<event>
 6    1  0.1929825E-004  0.3000000E+03  0.7818608E-02  0.1093470E+00
          1   -1    0    0  502    0  0.00000000000E+00  0.00000000000E+00  0.31500210741E+02  0.31500210741E+02  0.00000000000E+00 0.  1.
         13   -1    0    0    0    0 -0.00000000000E+00 -0.00000000000E+00 -0.10000000000E+04  0.10000000000E+04  0.00000000000E+00 0.  1.
    9000005    2    1    2  501    0 -0.98162952308E+01  0.49942759904E+01 -0.96801945101E+03  0.10204760024E+04  0.32278214246E+03 0.  0.
         13    1    3    3    0    0  0.12588588655E+03  0.25129061394E+02 -0.18285103098E+03  0.22341268023E+03  0.00000000000E+00 0.  1.
          1    1    3    3  501    0 -0.13570218178E+03 -0.20134785403E+02 -0.78516842004E+03  0.79706332217E+03  0.00000000000E+00 0.  1.
         21    1    1    2  502  501  0.98162952308E+01 -0.49942759904E+01 -0.48033824557E+00  0.11024208342E+02  0.00000000000E+00 0. -1.
<mgrwt>
<rscale>  1 0.30000000E+03</rscale>
<asrwt>0</asrwt>
<pdfrwt beam="1">  1        1 0.11454646E+00 0.30000000E+03</pdfrwt>
<pdfrwt beam="2">0</pdfrwt>
<totfact> 0.27934859E+01</totfact>
</mgrwt>
</event>
<event>
 6    1  0.1929825E-004  0.3000000E+03  0.7818608E-02  0.1093470E+00
          1   -1    0    0  502    0  0.00000000000E+00  0.00000000000E+00  0.47079874413E+02  0.47079874413E+02  0.00000000000E+00 0.  1.
         13   -1    0    0    0    0 -0.00000000000E+00 -0.00000000000E+00 -0.10000000000E+04  0.10000000000E+04  0.00000000000E+00 0.  1.
    9000005    2    1    2  501    0  0.76123240226E+01  0.82426410699E+01 -0.95863685827E+03  0.10344874306E+04  0.38865631269E+03 0.  0.
         13    1    3    3    0    0 -0.20657132095E+02 -0.18781478859E+03 -0.41860199645E+03  0.45926979364E+03  0.00000000000E+00 0.  1.
          1    1    3    3  501    0  0.28269456117E+02  0.19605742966E+03 -0.54003486183E+03  0.57521763695E+03  0.00000000000E+00 0.  1.
         21    1    1    2  502  501 -0.76123240226E+01 -0.82426410699E+01  0.57167326873E+01  0.12592443824E+02  0.00000000000E+00 0.  1.
<mgrwt>
<rscale>  1 0.30000000E+03</rscale>
<asrwt>0</asrwt>
<pdfrwt beam="1">  1        1 0.17119990E+00 0.30000000E+03</pdfrwt>
<pdfrwt beam="2">0</pdfrwt>
<totfact> 0.14095721E+01</totfact>
</mgrwt>
</event>
<event>
 6    1  0.1929825E-004  0.3000000E+03  0.7818608E-02  0.1093470E+00
          1   -1    0    0  502    0  0.00000000000E+00  0.00000000000E+00  0.32950396178E+02  0.32950396178E+02  0.00000000000E+00 0.  1.
         13   -1    0    0    0    0 -0.00000000000E+00 -0.00000000000E+00 -0.10000000000E+04  0.10000000000E+04  0.00000000000E+00 0.  1.
    9000005    2    1    2  501    0  0.80317575672E+01  0.99242835830E+01 -0.96511253843E+03  0.10200371179E+04  0.32995531434E+03 0.  0.
         13    1    3    3    0    0  0.30419378574E+02 -0.15512066039E+03 -0.37711399362E+03  0.40890429450E+03  0.00000000000E+00 0.  1.
          3    1    3    3  501    0 -0.22387621007E+02  0.16504494397E+03 -0.58799854481E+03  0.61113282338E+03  0.00000000000E+00 0.  1.
         21    1    1    2  502  501 -0.80317575672E+01 -0.99242835830E+01 -0.19370653885E+01  0.12913278305E+02  0.00000000000E+00 0. -1.
<mgrwt>
<rscale>  1 0.30000000E+03</rscale>
<asrwt>0</asrwt>
<pdfrwt beam="1">  1        1 0.11981988E+00 0.30000000E+03</pdfrwt>
<pdfrwt beam="2">0</pdfrwt>
<totfact> 0.26057080E+01</totfact>
</mgrwt>
</event>
<event>
 6    1  0.1929825E-004  0.3000000E+03  0.7818608E-02  0.1093470E+00
          1   -1    0    0  502    0  0.00000000000E+00  0.00000000000E+00  0.38010062381E+02  0.38010062381E+02  0.00000000000E+00 0.  1.
         13   -1    0    0    0    0 -0.00000000000E+00 -0.00000000000E+00 -0.10000000000E+04  0.10000000000E+04  0.00000000000E+00 0.  1.
    9000005    2    1    2  501    0  0.20125917665E+02 -0.16756023618E+02 -0.96493338418E+03  0.10116570594E+04  0.30276682943E+03 0.  0.
         13    1    3    3    0    0  0.63310884334E+02  0.65174151903E+02 -0.77559028156E+02  0.11946271803E+03  0.00000000000E+00 0.  1.
          3    1    3    3  501    0 -0.43184966669E+02 -0.81930175521E+02 -0.88737435602E+03  0.89219434135E+03  0.00000000000E+00 0.  1.
         21    1    1    2  502  501 -0.20125917665E+02  0.16756023618E+02  0.29434465618E+01  0.26353002997E+02  0.00000000000E+00 0.  1.
<mgrwt>
<rscale>  1 0.30000000E+03</rscale>
<asrwt>0</asrwt>
<pdfrwt beam="1">  1        1 0.13821870E+00 0.30000000E+03</pdfrwt>
<pdfrwt beam="2">0</pdfrwt>
<totfact> 0.20673412E+01</totfact>
</mgrwt>
</event>
<event>
 6    1  0.1929825E-004  0.3000000E+03  0.7818608E-02  0.1093470E+00
          1   -1    0    0  502    0  0.00000000000E+00  0.00000000000E+00  0.44268009315E+02  0.44268009315E+02  0.00000000000E+00 0.  1.
         13   -1    0    0    0    0 -0.00000000000E+00 -0.00000000000E+00 -0.10000000000E+04  0.10000000000E+04  0.00000000000E+00 0.  1.
    9000005    2    1    2  501    0 -0.18780589931E+02 -0.25549302754E+02 -0.95834503392E+03  0.10124512618E+04  0.32500288613E+03 0.  0.
         13    1    3    3    0    0  0.56071062989E+02  0.67394271984E+02 -0.60048942455E+02  0.10626301093E+03  0.00000000000E+00 0.  1.
          1    1    3    3  501    0 -0.74851652920E+02 -0.92943574738E+02 -0.89829609146E+03  0.90618825084E+03  0.00000000000E+00 0.  1.
         21    1    1    2  502  501  0.18780589931E+02  0.25549302754E+02  0.26130432342E+01  0.31816747545E+02  0.00000000000E+00 0.  1.
<mgrwt>
<rscale>  1 0.30000000E+03</rscale>
<asrwt>0</asrwt>
<pdfrwt beam="1">  1        1 0.16097492E+00 0.30000000E+03</pdfrwt>
<pdfrwt beam="2">0</pdfrwt>
<totfact> 0.15825734E+01</totfact>
</mgrwt>
</event>
<event>
 6    1  0.1929825E-004  0.3000000E+03  0.7818608E-02  0.1093470E+00
          1   -1    0    0  502    0  0.00000000000E+00  0.00000000000E+00  0.26210861453E+02  0.26210861453E+02  0.00000000000E+00 0.  1.
         13   -1    0    0    0    0 -0.00000000000E+00 -0.00000000000E+00 -0.10000000000E+04  0.10000000000E+04  0.00000000000E+00 0.  1.
    9000005    2    1    2  501    0  0.88152507914E+01 -0.10055437053E+02 -0.96141170142E+03  0.10079894068E+04  0.30257455954E+03 0.  0.
         13    1    3    3    0    0 -0.91178536685E+02 -0.49841548497E+00 -0.86150146554E+03  0.86631319343E+03  0.00000000000E+00 0.  1.
          1    1    3    3  501    0  0.99993787477E+02 -0.95570215676E+01 -0.99910235872E+02  0.14167621334E+03  0.00000000000E+00 0.  1.
         21    1    1    2  502  501 -0.88152507914E+01  0.10055437053E+02 -0.12377437131E+02  0.18221454683E+02  0.00000000000E+00 0. -1.
<mgrwt>
<rscale>  1 0.30000000E+03</rscale>
<asrwt>0</asrwt>
<pdfrwt beam="1">  1        1 0.95312424E-01 0.30000000E+03</pdfrwt>
<pdfrwt beam="2">0</pdfrwt>
<totfact> 0.36697134E+01</totfact>
</mgrwt>
</event>
<event>
 6    1  0.1929825E-004  0.3000000E+03  0.7818608E-02  0.1093470E+00
          1   -1    0    0  502    0  0.00000000000E+00  0.00000000000E+00  0.49931943103E+02  0.49931943103E+02  0.00000000000E+00 0.  1.
         13   -1    0    0    0    0 -0.00000000000E+00 -0.00000000000E+00 -0.10000000000E+04  0.10000000000E+04  0.00000000000E+00 0.  1.
    9000005    2    1    2  501    0  0.36369407997E+02 -0.17397200323E+02 -0.95589856893E+03  0.10091963163E+04  0.32110704510E+03 0.  0.
         13    1    3    3    0    0  0.20218560354E+02 -0.16802368811E+03 -0.57124872041E+03  0.59579010609E+03  0.00000000000E+00 0.  1.
          3    1    3    3  501    0  0.16150847644E+02  0.15062648779E+03 -0.38464984853E+03  0.41340621025E+03  0.00000000000E+00 0.  1.
         21    1    1    2  502  501 -0.36369407997E+02  0.17397200323E+02  0.58305120362E+01  0.40735626763E+02  0.00000000000E+00 0. -1.
<mgrwt>
<rscale>  1 0.30000000E+03</rscale>
<asrwt>0</asrwt>
<pdfrwt beam="1">  1        1 0.18157109E+00 0.30000000E+03</pdfrwt>
<pdfrwt beam="2">0</pdfrwt>
<totfact> 0.12553054E+01</totfact>
</mgrwt>
</event>
<event>
 6    1  0.1929825E-004  0.3000000E+03  0.7818608E-02  0.1093470E+00
          1   -1    0    0  502    0  0.00000000000E+00  0.00000000000E+00  0.33925356040E+02  0.33925356040E+02  0.00000000000E+00 0.  1.
         13   -1    0    0    0    0 -0.00000000000E+00 -0.00000000000E+00 -0.10000000000E+04  0.10000000000E+04  0.00000000000E+00 0.  1.
    9000005    2    1    2  501    0 -0.45918388223E+02 -0.86129044852E+01 -0.89933344705E+03  0.95245715448E+03  0.31014722574E+03 0.  0.
         13    1    3    3    0    0 -0.15770985922E+03  0.69566360327E+02 -0.41746592951E+03  0.45165216759E+03  0.00000000000E+00 0.  1.
          3    1    3    3  501    0  0.11179147100E+03 -0.78179264812E+02 -0.48186751754E+03  0.50080498689E+03  0.00000000000E+00 0.  1.
         21    1    1    2  502  501  0.45918388223E+02  0.86129044852E+01 -0.66741196914E+02  0.81468201565E+02  0.00000000000E+00 0. -1.
<mgrwt>
<rscale>  1 0.30000000E+03</rscale>
<asrwt>0</asrwt>
<pdfrwt beam="1">  1        1 0.12336519E+00 0.30000000E+03</pdfrwt>
<pdfrwt beam="2">0</pdfrwt>
<totfact> 0.24889389E+01</totfact>
</mgrwt>
</event>
<event>
 6    1  0.1929825E-004  0.3000000E+03  0.7818608E-02  0.1093470E+00
          1   -1    0    0  502    0  0.00000000000E+00  0.00000000000E+00  0.28369698382E+02  0.28369698382E+02  0.00000000000E+00 0.  1.
         13   -1    0    0    0    0 -0.00000000000E+00 -0.00000000000E+00 -0.10000000000E+04  0.10000000000E+04  0.00000000000E+00 0.  1.
    9000005    2    1    2  501    0  0.72241577863E+01  0.10057637344E+02 -0.94723595004E+03  0.10010122695E+04  0.32344439116E+03 0.  0.
         13    1    3    3    0    0 -0.12232946717E+03  0.91683484972E+02 -0.31010235445E+03  0.34573664861E+03  0.00000000000E+00 0.  1.
          1    1    3    3  501    0  0.12955362496E+03 -0.81625847627E+02 -0.63713359559E+03  0.65527562091E+03  0.00000000000E+00 0.  1.
         21    1    1    2  502  501 -0.72241577863E+01 -0.10057637344E+02 -0.24394351579E+02  0.27357428857E+02  0.00000000000E+00 0. -1.
<mgrwt>
<rscale>  1 0.30000000E+03</rscale>
<asrwt>0</asrwt>
<pdfrwt beam="1">  1        1 0.10316276E+00 0.30000000E+03</pdfrwt>
<pdfrwt beam="2">0</pdfrwt>
<totfact> 0.32696364E+01</totfact>
</mgrwt>
</event>
<event>
 6    1  0.1929825E-004  0.3000000E+03  0.7818608E-02  0.1093470E+00
          3   -1    0    0  502    0  0.00000000000E+00  0.00000000000E+00  0.30458507305E+02  0.30458507305E+02  0.00000000000E+00 0.  1.
         13   -1    0    0    0    0 -0.00000000000E+00 -0.00000000000E+00 -0.10000000000E+04  0.10000000000E+04  0.00000000000E+00 0.  1.
    9000005    2    1    2  501    0  0.17742297375E+02 -0.47191209578E+01 -0.95610866993E+03  0.10077098822E+04  0.31780238932E+03 0.  0.
         13    1    3    3    0    0 -0.10246148621E+03  0.61879203034E+02 -0.75316539016E+03  0.76261752987E+03  0.00000000000E+00 0.  1.
          1    1    3    3  501    0  0.12020378358E+03 -0.66598323991E+02 -0.20294327977E+03  0.24509235229E+03  0.00000000000E+00 0.  1.
         21    1    1    2  502  501 -0.17742297375E+02  0.47191209578E+01 -0.13432822760E+02  0.22748625147E+02  0.00000000000E+00 0. -1.
<mgrwt>
<rscale>  1 0.30000000E+03</rscale>
<asrwt>0</asrwt>
<pdfrwt beam="1">  1        3 0.11075844E+00 0.30000000E+03</pdfrwt>
<pdfrwt beam="2">0</pdfrwt>
<totfact> 0.29542111E+00</totfact>
</mgrwt>
</event>
<event>
 6    1  0.1929825E-004  0.3000000E+03  0.7818608E-02  0.1093470E+00
          1   -1    0    0  502    0  0.00000000000E+00  0.00000000000E+00  0.62959532273E+02  0.62959532273E+02  0.00000000000E+00 0.  1.
         13   -1    0    0    0    0 -0.00000000000E+00 -0.00000000000E+00 -0.10000000000E+04  0.10000000000E+04  0.00000000000E+00 0.  1.
    9000005    2    1    2  501    0 -0.59090716673E+01  0.19461261697E+02 -0.97493961101E+03  0.10199478723E+04  0.29895277085E+03 0.  0.
         13    1    3    3    0    0  0.11390037660E+03 -0.57598499241E+01 -0.16363299168E+03  0.19945482603E+03  0.00000000000E+00 0.  1.
          1    1    3    3  501    0 -0.11980944826E+03  0.25221111621E+02 -0.81130661933E+03  0.82049304624E+03  0.00000000000E+00 0.  1.
         21    1    1    2  502  501  0.59090716673E+01 -0.19461261697E+02  0.37899143280E+02  0.43011660003E+02  0.00000000000E+00 0.  1.
<mgrwt>
<rscale>  1 0.30000000E+03</rscale>
<asrwt>0</asrwt>
<pdfrwt beam="1">  1        1 0.22894424E+00 0.30000000E+03</pdfrwt>
<pdfrwt beam="2">0</pdfrwt>
<totfact> 0.74851289E+00</totfact>
</mgrwt>
</event>
<event>
 6    1  0.1929825E-004  0.3000000E+03  0.7818608E-02  0.1093470E+00
          1   -1    0    0  502    0  0.00000000000E+00  0.00000000000E+00  0.34928819152E+02  0.34928819152E+02  0.00000000000E+00 0.  1.
         13   -1    0    0    0    0 -0.00000000000E+00 -0.00000000000E+00 -0.10000000000E+04  0.10000000000E+04  0.00000000000E+00 0.  1.
    9000005    2    1    2  501    0  0.40346978180E+02 -0.14156030485E+02 -0.89838673917E+03  0.95571337489E+03  0.32320434710E+03 0.  0.
         13    1    3    3    0    0 -0.98384468868E+02  0.10321089247E+03 -0.34700979788E+03  0.37516368676E+03  0.00000000000E+00 0.  1.
          3    1    3    3  501    0  0.13873144705E+03 -0.11736692296E+03 -0.55137694129E+03  0.58054968813E+03  0.00000000000E+00 0.  1.
         21    1    1    2  502  501 -0.40346978180E+02  0.14156030485E+02 -0.66684441682E+02  0.79215444264E+02  0.00000000000E+00 0.  1.
<mgrwt>
<rscale>  1 0.30000000E+03</rscale>
<asrwt>0</asrwt>
<pdfrwt beam="1">  1        1 0.12701416E+00 0.30000000E+03</pdfrwt>
<pdfrwt beam="2">0</pdfrwt>
<totfact> 0.23757421E+01</totfact>
</mgrwt>
</event>
<event>
 6    1  0.1929825E-004  0.3000000E+03  0.7818608E-02  0.1093470E+00
          1   -1    0    0  502    0  0.00000000000E+00  0.00000000000E+00  0.50656493822E+02  0.50656493822E+02  0.00000000000E+00 0.  1.
         13   -1    0    0    0    0 -0.00000000000E+00 -0.00000000000E+00 -0.10000000000E+04  0.10000000000E+04  0.00000000000E+00 0.  1.
    9000005    2    1    2  501    0 -0.28026139435E+02 -0.24997127888E+02 -0.90211331759E+03  0.99031569827E+03  0.40682480696E+03 0.  0.
         13    1    3    3    0    0 -0.73002351402E+02  0.84922305935E+02 -0.38269105261E+02  0.11834553550E+03  0.00000000000E+00 0.  1.
          1    1    3    3  501    0  0.44976211966E+02 -0.10991943382E+03 -0.86384421233E+03  0.87197016277E+03  0.00000000000E+00 0.  1.
         21    1    1    2  502  501  0.28026139435E+02  0.24997127888E+02 -0.47230188585E+02  0.60340795554E+02  0.00000000000E+00 0.  1.
<mgrwt>
<rscale>  1 0.30000000E+03</rscale>
<asrwt>0</asrwt>
<pdfrwt beam="1">  1        1 0.18420582E+00 0.30000000E+03</pdfrwt>
<pdfrwt beam="2">0</pdfrwt>
<totfact> 0.12191181E+01</totfact>
</mgrwt>
</event>
<event>
 6    1  0.1929825E-004  0.3000000E+03  0.7818608E-02  0.1093470E+00
          1   -1    0    0  502    0  0.00000000000E+00  0.00000000000E+00  0.33393006314E+02  0.33393006314E+02  0.00000000000E+00 0.  1.
         13   -1    0    0    0    0 -0.00000000000E+00 -0.00000000000E+00 -0.10000000000E+04  0.10000000000E+04  0.00000000000E+00 0.  1.
    9000005    2    1    2  501    0  0.66352221890E+01 -0.13123808932E+02 -0.96465702170E+03  0.10185584883E+04  0.32662205072E+03 0.  0.
         13    1    3    3    0    0 -0.84487610626E+02 -0.14542277499E+01 -0.90518695468E+03  0.90912248573E+03  0.00000000000E+00 0.  1.
          3    1    3    3  501    0  0.91122832815E+02 -0.11669581182E+02 -0.59470067016E+02  0.10943600256E+03  0.00000000000E+00 0.  1.
         21    1    1    2  502  501 -0.66352221890E+01  0.13123808932E+02 -0.19499719896E+01  0.14834518029E+02  0.00000000000E+00 0.  1.
<mgrwt>
<rscale>  1 0.30000000E+03</rscale>
<asrwt>0</asrwt>
<pdfrwt beam="1">  1        1 0.12142937E+00 0.30000000E+03</pdfrwt>
<pdfrwt beam="2">0</pdfrwt>
<totfact> 0.25518198E+01</totfact>
</mgrwt>
</event>
<event>
 6    1  0.1929825E-004  0.3000000E+03  0.7818608E-02  0.1093470E+00
          1   -1    0    0  502    0  0.00000000000E+00  0.00000000000E+00  0.34713842129E+02  0.34713842129E+02  0.00000000000E+00 0.  1.
         13   -1    0    0    0    0 -0.00000000000E+00 -0.00000000000E+00 -0.10000000000E+04  0.10000000000E+04  0.00000000000E+00 0.  1.
    9000005    2    1    2  501    0  0.18898777184E+02  0.18010514311E+01 -0.96048356512E+03  0.10151313892E+04  0.32802843005E+03 0.  0.
         13    1    3    3    0    0  0.17131889891E+03 -0.21718167447E+02 -0.55802012143E+03  0.58413037915E+03  0.00000000000E+00 0.  1.
          1    1    3    3  501    0 -0.15242012173E+03  0.23519218878E+02 -0.40246344369E+03  0.43100101006E+03  0.00000000000E+00 0.  1.
         21    1    1    2  502  501 -0.18898777184E+02 -0.18010514311E+01 -0.48025927520E+01  0.19582452923E+02  0.00000000000E+00 0.  1.
<mgrwt>
<rscale>  1 0.30000000E+03</rscale>
<asrwt>0</asrwt>
<pdfrwt beam="1">  1        1 0.12623242E+00 0.30000000E+03</pdfrwt>
<pdfrwt beam="2">0</pdfrwt>
<totfact> 0.23994320E+01</totfact>
</mgrwt>
</event>
<event>
 6    1  0.1929825E-004  0.3000000E+03  0.7818608E-02  0.1093470E+00
          1   -1    0    0  502    0  0.00000000000E+00  0.00000000000E+00  0.32615308402E+02  0.32615308402E+02  0.00000000000E+00 0.  1.
         13   -1    0    0    0    0 -0.00000000000E+00 -0.00000000000E+00 -0.10000000000E+04  0.10000000000E+04  0.00000000000E+00 0.  1.
    9000005    2    1    2  501    0  0.19401896142E+01  0.16407180457E+02 -0.96136020593E+03  0.10150296798E+04  0.32526734449E+03 0.  0.
         13    1    3    3    0    0 -0.23582425863E+02  0.13467550792E+03 -0.80900229553E+03  0.82047445872E+03  0.00000000000E+00 0.  1.
          3    1    3    3  501    0  0.25522615478E+02 -0.11826832746E+03 -0.15235791040E+03  0.19455522106E+03  0.00000000000E+00 0.  1.
         21    1    1    2  502  501 -0.19401896142E+01 -0.16407180457E+02 -0.60244856695E+01  0.17585628617E+02  0.00000000000E+00 0.  1.
<mgrwt>
<rscale>  1 0.30000000E+03</rscale>
<asrwt>0</asrwt>
<pdfrwt beam="1">  1        1 0.11860137E+00 0.30000000E+03</pdfrwt>
<pdfrwt beam="2">0</pdfrwt>
<totfact> 0.26475245E+01</totfact>
</mgrwt>
</event>
<event>
 6    1  0.1929825E-004  0.3000000E+03  0.7818608E-02  0.1093470E+00
          1   -1    0    0  502    0  0.00000000000E+00  0.00000000000E+00  0.45318719708E+02  0.45318719708E+02  0.00000000000E+00 0.  1.
         13   -1    0    0    0    0 -0.00000000000E+00 -0.00000000000E+00 -0.10000000000E+04  0.10000000000E+04  0.00000000000E+00 0.  1.
    9000005    2    1    2  501    0  0.60916048832E+02 -0.17033188799E+02 -0.89743394585E+03  0.96000663482E+03  0.33499874212E+03 0.  0.
         13    1    3    3    0    0  0.82673679603E+02  0.14220093746E+03 -0.59750978224E+03  0.61973702793E+03  0.00000000000E+00 0.  1.
          1    1    3    3  501    0 -0.21757630771E+02 -0.15923412626E+03 -0.29992416361E+03  0.34026960690E+03  0.00000000000E+00 0.  1.
         21    1    1    2  502  501 -0.60916048832E+02  0.17033188799E+02 -0.57247334445E+02  0.85312084883E+02  0.00000000000E+00 0. -1.
<mgrwt>
<rscale>  1 0.30000000E+03</rscale>
<asrwt>0</asrwt>
<pdfrwt beam="1">  1        1 0.16479569E+00 0.30000000E+03</pdfrwt>
<pdfrwt beam="2">0</pdfrwt>
<totfact> 0.15152378E+01</totfact>
</mgrwt>
</event>
<event>
 6    1  0.1929825E-004  0.3000000E+03  0.7818608E-02  0.1093470E+00
          1   -1    0    0  502    0  0.00000000000E+00  0.00000000000E+00  0.34486017401E+02  0.34486017401E+02  0.00000000000E+00 0.  1.
         13   -1    0    0    0    0 -0.00000000000E+00 -0.00000000000E+00 -0.10000000000E+04  0.10000000000E+04  0.00000000000E+00 0.  1.
    9000005    2    1    2  501    0 -0.14939067182E+02  0.72696042319E+01 -0.96445392867E+03  0.10178382972E+04  0.32488058702E+03 0.  0.
         13    1    3    3    0    0  0.13541511278E+03  0.70944535041E+02 -0.34744097666E+03  0.37958610628E+03  0.00000000000E+00 0.  1.
          3    1    3    3  501    0 -0.15035417996E+03 -0.63674930809E+02 -0.61701295201E+03  0.63825219091E+03  0.00000000000E+00 0.  1.
         21    1    1    2  502  501  0.14939067182E+02 -0.72696042319E+01 -0.10600539288E+01  0.16647720213E+02  0.00000000000E+00 0. -1.
<mgrwt>
<rscale>  1 0.30000000E+03</rscale>
<asrwt>0</asrwt>
<pdfrwt beam="1">  1        1 0.12540396E+00 0.30000000E+03</pdfrwt>
<pdfrwt beam="2">0</pdfrwt>
<totfact> 0.24248675E+01</totfact>
</mgrwt>
</event>
<event>
 6    1  0.1929825E-004  0.3000000E+03  0.7818608E-02  0.1093470E+00
          3   -1    0    0  502    0  0.00000000000E+00  0.00000000000E+00  0.44278580972E+02  0.44278580972E+02  0.00000000000E+00 0.  1.
         13   -1    0    0    0    0 -0.00000000000E+00 -0.00000000000E+00 -0.10000000000E+04  0.10000000000E+04  0.00000000000E+00 0.  1.
    9000005    2    1    2  501    0  0.57285183995E+01 -0.11885915185E+02 -0.96705190353E+03  0.10268868938E+04  0.34515680160E+03 0.  0.
         13    1    3    3    0    0 -0.14251514240E+03 -0.28163837726E+02 -0.74742384996E+03  0.76141065074E+03  0.00000000000E+00 0.  1.
          3    1    3    3  501    0  0.14824366080E+03  0.16277922542E+02 -0.21962805356E+03  0.26547624308E+03  0.00000000000E+00 0.  1.
         21    1    1    2  502  501 -0.57285183995E+01  0.11885915185E+02  0.11330484500E+02  0.17391687148E+02  0.00000000000E+00 0. -1.
<mgrwt>
<rscale>  1 0.30000000E+03</rscale>
<asrwt>0</asrwt>
<pdfrwt beam="1">  1        3 0.16101336E+00 0.30000000E+03</pdfrwt>
<pdfrwt beam="2">0</pdfrwt>
<totfact> 0.68345260E-01</totfact>
</mgrwt>
</event>
<event>
 6    1  0.1929825E-004  0.3000000E+03  0.7818608E-02  0.1093470E+00
          1   -1    0    0  502    0  0.00000000000E+00  0.00000000000E+00  0.44561570042E+02  0.44561570042E+02  0.00000000000E+00 0.  1.
         13   -1    0    0    0    0 -0.00000000000E+00 -0.00000000000E+00 -0.10000000000E+04  0.10000000000E+04  0.00000000000E+00 0.  1.
    9000005    2    1    2  501    0 -0.11731110342E+02  0.84481217927E+02 -0.81151097756E+03  0.87726002586E+03  0.32211859794E+03 0.  0.
         13    1    3    3    0    0 -0.12776647942E+02  0.10710918827E+03 -0.83656109511E+03  0.84348686225E+03  0.00000000000E+00 0.  1.
          3    1    3    3  501    0  0.10455376000E+01 -0.22627970343E+02  0.25050117549E+02  0.33773163606E+02  0.00000000000E+00 0.  1.
         21    1    1    2  502  501  0.11731110342E+02 -0.84481217927E+02 -0.14392745240E+03  0.16730154418E+03  0.00000000000E+00 0. -1.
<mgrwt>
<rscale>  1 0.30000000E+03</rscale>
<asrwt>0</asrwt>
<pdfrwt beam="1">  1        1 0.16204241E+00 0.30000000E+03</pdfrwt>
<pdfrwt beam="2">0</pdfrwt>
<totfact> 0.15634192E+01</totfact>
</mgrwt>
</event>
<event>
 6    1  0.1929825E-004  0.3000000E+03  0.7818608E-02  0.1093470E+00
          1   -1    0    0  502    0  0.00000000000E+00  0.00000000000E+00  0.29689138200E+02  0.29689138200E+02  0.00000000000E+00 0.  1.
         13   -1    0    0    0    0 -0.00000000000E+00 -0.00000000000E+00 -0.10000000000E+04  0.10000000000E+04  0.00000000000E+00 0.  1.
    9000005    2    1    2  501    0 -0.58580217035E+01 -0.12078585342E+02 -0.95786014437E+03  0.10113798781E+04  0.32436552366E+03 0.  0.
         13    1    3    3    0    0  0.67112860237E+02 -0.12132911516E+03 -0.20721881654E+03  0.24932815349E+03  0.00000000000E+00 0.  1.
          1    1    3    3  501    0 -0.72970881940E+02  0.10925052982E+03 -0.75064132783E+03  0.76205172458E+03  0.00000000000E+00 0.  1.
         21    1    1    2  502  501  0.58580217035E+01  0.12078585342E+02 -0.12450717427E+02  0.18309260132E+02  0.00000000000E+00 0.  1.
<mgrwt>
<rscale>  1 0.30000000E+03</rscale>
<asrwt>0</asrwt>
<pdfrwt beam="1">  1        1 0.10796073E+00 0.30000000E+03</pdfrwt>
<pdfrwt beam="2">0</pdfrwt>
<totfact> 0.30557993E+01</totfact>
</mgrwt>
</event>
<event>
 6    1  0.1929825E-004  0.3000000E+03  0.7818608E-02  0.1093470E+00
          1   -1    0    0  502    0  0.00000000000E+00  0.00000000000E+00  0.29035186421E+02  0.29035186421E+02  0.00000000000E+00 0.  1.
         13   -1    0    0    0    0 -0.00000000000E+00 -0.00000000000E+00 -0.10000000000E+04  0.10000000000E+04  0.00000000000E+00 0.  1.
    9000005    2    1    2  501    0 -0.16514299044E+02  0.17852682667E+02 -0.92503370759E+03  0.97706301263E+03  0.31364522971E+03 0.  0.
         13    1    3    3    0    0 -0.62428552028E+02  0.68711780733E+02 -0.89897621152E+03  0.90375708119E+03  0.00000000000E+00 0.  1.
          3    1    3    3  501    0  0.45914252984E+02 -0.50859098066E+02 -0.26057496075E+02  0.73305931444E+02  0.00000000000E+00 0.  1.
         21    1    1    2  502  501  0.16514299044E+02 -0.17852682667E+02 -0.45931105986E+02  0.51972173790E+02  0.00000000000E+00 0. -1.
<mgrwt>
<rscale>  1 0.30000000E+03</rscale>
<asrwt>0</asrwt>
<pdfrwt beam="1">  1        1 0.10558272E+00 0.30000000E+03</pdfrwt>
<pdfrwt beam="2">0</pdfrwt>
<totfact> 0.31591737E+01</totfact>
</mgrwt>
</event>
<event>
 6    1  0.1929825E-004  0.3000000E+03  0.7818608E-02  0.1093470E+00
          1   -1    0    0  502    0  0.00000000000E+00  0.00000000000E+00  0.34842399402E+02  0.34842399402E+02  0.00000000000E+00 0.  1.
         13   -1    0    0    0    0 -0.00000000000E+00 -0.00000000000E+00 -0.10000000000E+04  0.10000000000E+04  0.00000000000E+00 0.  1.
    9000005    2    1    2  501    0 -0.28006233716E+02 -0.40999577498E+01 -0.77400224641E+03  0.84160283768E+03  0.32926387619E+03 0.  0.
         13    1    3    3    0    0 -0.25698064115E+02  0.10766649581E+03 -0.74973802063E+02  0.13369194371E+03  0.00000000000E+00 0.  1.
          3    1    3    3  501    0 -0.23081696004E+01 -0.11176645356E+03 -0.69902844435E+03  0.70791089397E+03  0.00000000000E+00 0.  1.
         21    1    1    2  502  501  0.28006233716E+02  0.40999577498E+01 -0.19115535418E+03  0.19323956172E+03  0.00000000000E+00 0.  1.
<mgrwt>
<rscale>  1 0.30000000E+03</rscale>
<asrwt>0</asrwt>
<pdfrwt beam="1">  1        1 0.12669990E+00 0.30000000E+03</pdfrwt>
<pdfrwt beam="2">0</pdfrwt>
<totfact> 0.23852292E+01</totfact>
</mgrwt>
</event>
<event>
 6    1  0.1929825E-004  0.3000000E+03  0.7818608E-02  0.1093470E+00
          1   -1    0    0  502    0  0.00000000000E+00  0.00000000000E+00  0.30151029577E+02  0.30151029577E+02  0.00000000000E+00 0.  1.
         13   -1    0    0    0    0 -0.00000000000E+00 -0.00000000000E+00 -0.10000000000E+04  0.10000000000E+04  0.00000000000E+00 0.  1.
    9000005    2    1    2  501    0 -0.18338480327E+02  0.28591117147E+01 -0.95700364864E+03  0.10075794396E+04  0.31466787141E+03 0.  0.
         13    1    3    3    0    0  0.30530830213E+02  0.47214881483E+02 -0.85973513008E+01  0.56879619164E+02  0.00000000000E+00 0.  1.
          3    1    3    3  501    0 -0.48869310540E+02 -0.44355769768E+02 -0.94840629734E+03  0.95069982047E+03  0.00000000000E+00 0.  1.
         21    1    1    2  502  501  0.18338480327E+02 -0.28591117147E+01 -0.12845321786E+02  0.22571589938E+02  0.00000000000E+00 0. -1.
<mgrwt>
<rscale>  1 0.30000000E+03</rscale>
<asrwt>0</asrwt>
<pdfrwt beam="1">  1        1 0.10964034E+00 0.30000000E+03</pdfrwt>
<pdfrwt beam="2">0</pdfrwt>
<totfact> 0.29856807E+01</totfact>
</mgrwt>
</event>
<event>
 6    1  0.1929825E-004  0.3000000E+03  0.7818608E-02  0.1093470E+00
          1   -1    0    0  502    0  0.00000000000E+00  0.00000000000E+00  0.32765417340E+02  0.32765417340E+02  0.00000000000E+00 0.  1.
         13   -1    0    0    0    0 -0.00000000000E+00 -0.00000000000E+00 -0.10000000000E+04  0.10000000000E+04  0.00000000000E+00 0.  1.
    9000005    2    1    2  501    0 -0.35885616720E+02 -0.64350358989E+00 -0.91232507832E+03  0.96716629196E+03  0.31903823623E+03 0.  0.
         13    1    3    3    0    0  0.76976726988E+02 -0.78692274050E+02 -0.73373407879E+03  0.74194581262E+03  0.00000000000E+00 0.  1.
          3    1    3    3  501    0 -0.11286234371E+03  0.78048770461E+02 -0.17859099954E+03  0.22522047934E+03  0.00000000000E+00 0.  1.
         21    1    1    2  502  501  0.35885616720E+02  0.64350358989E+00 -0.54909504337E+02  0.65599125381E+02  0.00000000000E+00 0. -1.
<mgrwt>
<rscale>  1 0.30000000E+03</rscale>
<asrwt>0</asrwt>
<pdfrwt beam="1">  1        1 0.11914722E+00 0.30000000E+03</pdfrwt>
<pdfrwt beam="2">0</pdfrwt>
<totfact> 0.26286808E+01</totfact>
</mgrwt>
</event>
<event>
 6    1  0.1929825E-004  0.3000000E+03  0.7818608E-02  0.1093470E+00
          1   -1    0    0  502    0  0.00000000000E+00  0.00000000000E+00  0.28876978105E+02  0.28876978105E+02  0.00000000000E+00 0.  1.
         13   -1    0    0    0    0 -0.00000000000E+00 -0.00000000000E+00 -0.10000000000E+04  0.10000000000E+04  0.00000000000E+00 0.  1.
    9000005    2    1    2  501    0 -0.75079170977E+01 -0.17402322263E+01 -0.94815095901E+03  0.10046465654E+04  0.33206186629E+03 0.  0.
         13    1    3    3    0    0  0.11275922534E+03  0.10564018899E+03 -0.30906393874E+03  0.34553583123E+03  0.00000000000E+00 0.  1.
          1    1    3    3  501    0 -0.12026714244E+03 -0.10738042122E+03 -0.63908702027E+03  0.65911073416E+03  0.00000000000E+00 0.  1.
         21    1    1    2  502  501  0.75079170977E+01  0.17402322263E+01 -0.22972062883E+02  0.24230412717E+02  0.00000000000E+00 0. -1.
<mgrwt>
<rscale>  1 0.30000000E+03</rscale>
<asrwt>0</asrwt>
<pdfrwt beam="1">  1        1 0.10500741E+00 0.30000000E+03</pdfrwt>
<pdfrwt beam="2">0</pdfrwt>
<totfact> 0.31849386E+01</totfact>
</mgrwt>
</event>
<event>
 6    1  0.1929825E-004  0.3000000E+03  0.7818608E-02  0.1093470E+00
          1   -1    0    0  502    0  0.00000000000E+00  0.00000000000E+00  0.35365993496E+02  0.35365993496E+02  0.00000000000E+00 0.  1.
         13   -1    0    0    0    0 -0.00000000000E+00 -0.00000000000E+00 -0.10000000000E+04  0.10000000000E+04  0.00000000000E+00 0.  1.
    9000005    2    1    2  501    0 -0.15481060255E+02  0.61560661184E+01 -0.96365051636E+03  0.10186768464E+04  0.32985245098E+03 0.  0.
         13    1    3    3    0    0  0.12874318858E+03 -0.89145177691E+02 -0.42249155324E+03  0.45057827718E+03  0.00000000000E+00 0.  1.
          1    1    3    3  501    0 -0.14422424884E+03  0.95301243809E+02 -0.54115896312E+03  0.56809856925E+03  0.00000000000E+00 0.  1.
         21    1    1    2  502  501  0.15481060255E+02 -0.61560661184E+01 -0.98349014773E+00  0.16689147059E+02  0.00000000000E+00 0. -1.
<mgrwt>
<rscale>  1 0.30000000E+03</rscale>
<asrwt>0</asrwt>
<pdfrwt beam="1">  1        1 0.12860388E+00 0.30000000E+03</pdfrwt>
<pdfrwt beam="2">0</pdfrwt>
<totfact> 0.23284842E+01</totfact>
</mgrwt>
</event>
<event>
 6    1  0.1929825E-004  0.3000000E+03  0.7818608E-02  0.1093470E+00
          1   -1    0    0  502    0  0.00000000000E+00  0.00000000000E+00  0.33988055057E+02  0.33988055057E+02  0.00000000000E+00 0.  1.
         13   -1    0    0    0    0 -0.00000000000E+00 -0.00000000000E+00 -0.10000000000E+04  0.10000000000E+04  0.00000000000E+00 0.  1.
    9000005    2    1    2  501    0  0.34010473566E+02 -0.39708914374E+01 -0.93077037792E+03  0.98485101874E+03  0.32003992318E+03 0.  0.
         13    1    3    3    0    0 -0.73215886215E+02 -0.80670777287E+02 -0.11466455914E+03  0.15816542424E+03  0.00000000000E+00 0.  1.
          1    1    3    3  501    0  0.10722635978E+03  0.76699885850E+02 -0.81610581878E+03  0.82668559450E+03  0.00000000000E+00 0.  1.
         21    1    1    2  502  501 -0.34010473566E+02  0.39708914374E+01 -0.35241567028E+02  0.49137036313E+02  0.00000000000E+00 0. -1.
<mgrwt>
<rscale>  1 0.30000000E+03</rscale>
<asrwt>0</asrwt>
<pdfrwt beam="1">  1        1 0.12359319E+00 0.30000000E+03</pdfrwt>
<pdfrwt beam="2">0</pdfrwt>
<totfact> 0.24816667E+01</totfact>
</mgrwt>
</event>
<event>
 6    1  0.1929825E-004  0.3000000E+03  0.7818608E-02  0.1093470E+00
          3   -1    0    0  502    0  0.00000000000E+00  0.00000000000E+00  0.26785875212E+02  0.26785875212E+02  0.00000000000E+00 0.  1.
         13   -1    0    0    0    0 -0.00000000000E+00 -0.00000000000E+00 -0.10000000000E+04  0.10000000000E+04  0.00000000000E+00 0.  1.
    9000005    2    1    2  501    0  0.69613405380E+01  0.75711670006E+01 -0.95929511569E+03  0.10094791815E+04  0.31415810690E+03 0.  0.
         13    1    3    3    0    0 -0.49316964976E+02 -0.51237348807E+02 -0.30926924318E+02  0.77549362312E+02  0.00000000000E+00 0.  1.
          3    1    3    3  501    0  0.56278305514E+02  0.58808515807E+02 -0.92836819137E+03  0.93192981922E+03  0.00000000000E+00 0.  1.
         21    1    1    2  502  501 -0.69613405380E+01 -0.75711670006E+01 -0.13919009103E+02  0.17306693683E+02  0.00000000000E+00 0.  1.
<mgrwt>
<rscale>  1 0.30000000E+03</rscale>
<asrwt>0</asrwt>
<pdfrwt beam="1">  1        3 0.97403388E-01 0.30000000E+03</pdfrwt>
<pdfrwt beam="2">0</pdfrwt>
<totfact> 0.41934820E+00</totfact>
</mgrwt>
</event>
<event>
 6    1  0.1929825E-004  0.3000000E+03  0.7818608E-02  0.1093470E+00
          1   -1    0    0  502    0  0.00000000000E+00  0.00000000000E+00  0.29170123789E+02  0.29170123789E+02  0.00000000000E+00 0.  1.
         13   -1    0    0    0    0 -0.00000000000E+00 -0.00000000000E+00 -0.10000000000E+04  0.10000000000E+04  0.00000000000E+00 0.  1.
    9000005    2    1    2  501    0  0.12394025342E+02 -0.36196429424E+01 -0.95154204284E+03  0.10059594755E+04  0.32612189947E+03 0.  0.
         13    1    3    3    0    0  0.25398152253E+02 -0.16295445081E+03 -0.43351067976E+03  0.46382187167E+03  0.00000000000E+00 0.  1.
          3    1    3    3  501    0 -0.13004126911E+02  0.15933480787E+03 -0.51803136308E+03  0.54213760380E+03  0.00000000000E+00 0.  1.
         21    1    1    2  502  501 -0.12394025342E+02  0.36196429424E+01 -0.19287833371E+02  0.23210648318E+02  0.00000000000E+00 0.  1.
<mgrwt>
<rscale>  1 0.30000000E+03</rscale>
<asrwt>0</asrwt>
<pdfrwt beam="1">  1        1 0.10607340E+00 0.30000000E+03</pdfrwt>
<pdfrwt beam="2">0</pdfrwt>
<totfact> 0.31374357E+01</totfact>
</mgrwt>
</event>
<event>
 6    1  0.1929825E-004  0.3000000E+03  0.7818608E-02  0.1093470E+00
          1   -1    0    0  502    0  0.00000000000E+00  0.00000000000E+00  0.34291534885E+02  0.34291534885E+02  0.00000000000E+00 0.  1.
         13   -1    0    0    0    0 -0.00000000000E+00 -0.00000000000E+00 -0.10000000000E+04  0.10000000000E+04  0.00000000000E+00 0.  1.
    9000005    2    1    2  501    0 -0.58102449607E+01  0.18138550296E+02 -0.93702465273E+03  0.99986005153E+03  0.34834201134E+03 0.  0.
         13    1    3    3    0    0  0.11122898512E+03 -0.12198880823E+03 -0.48650616080E+03  0.51375227587E+03  0.00000000000E+00 0.  1.
          1    1    3    3  501    0 -0.11703923008E+03  0.14012735852E+03 -0.45051849193E+03  0.48610777566E+03  0.00000000000E+00 0.  1.
         21    1    1    2  502  501  0.58102449607E+01 -0.18138550296E+02 -0.28683812380E+02  0.34431483354E+02  0.00000000000E+00 0. -1.
<mgrwt>
<rscale>  1 0.30000000E+03</rscale>
<asrwt>0</asrwt>
<pdfrwt beam="1">  1        1 0.12469675E+00 0.30000000E+03</pdfrwt>
<pdfrwt beam="2">0</pdfrwt>
<totfact> 0.24468520E+01</totfact>
</mgrwt>
</event>
<event>
 6    1  0.1929825E-004  0.3000000E+03  0.7818608E-02  0.1093470E+00
          1   -1    0    0  502    0  0.00000000000E+00  0.00000000000E+00  0.57385832724E+02  0.57385832724E+02  0.00000000000E+00 0.  1.
         13   -1    0    0    0    0 -0.00000000000E+00 -0.00000000000E+00 -0.10000000000E+04  0.10000000000E+04  0.00000000000E+00 0.  1.
    9000005    2    1    2  501    0 -0.35874392642E+02 -0.39931115194E+02 -0.95176871291E+03  0.10029315242E+04  0.31165123681E+03 0.  0.
         13    1    3    3    0    0  0.11899085918E+03 -0.41514137018E+02 -0.20792389990E+03  0.24313493432E+03  0.00000000000E+00 0.  1.
          1    1    3    3  501    0 -0.15486525182E+03  0.15830218237E+01 -0.74384481301E+03  0.75979658990E+03  0.00000000000E+00 0.  1.
         21    1    1    2  502  501  0.35874392642E+02  0.39931115194E+02  0.91545456342E+01  0.54454308497E+02  0.00000000000E+00 0.  1.
<mgrwt>
<rscale>  1 0.30000000E+03</rscale>
<asrwt>0</asrwt>
<pdfrwt beam="1">  1        1 0.20867620E+00 0.30000000E+03</pdfrwt>
<pdfrwt beam="2">0</pdfrwt>
<totfact> 0.93182901E+00</totfact>
</mgrwt>
</event>
<event>
 6    1  0.1929825E-004  0.3000000E+03  0.7818608E-02  0.1093470E+00
          1   -1    0    0  502    0  0.00000000000E+00  0.00000000000E+00  0.44025712946E+02  0.44025712946E+02  0.00000000000E+00 0.  1.
         13   -1    0    0    0    0 -0.00000000000E+00 -0.00000000000E+00 -0.10000000000E+04  0.10000000000E+04  0.00000000000E+00 0.  1.
    9000005    2    1    2  501    0  0.15300003077E+02 -0.90920326831E+01 -0.96853175610E+03  0.10222439504E+04  0.32651520075E+03 0.  0.
         13    1    3    3    0    0  0.13015319041E+03  0.25296783022E+02 -0.17421744353E+03  0.21893263310E+03  0.00000000000E+00 0.  1.
          1    1    3    3  501    0 -0.11485318733E+03 -0.34388815705E+02 -0.79431431257E+03  0.80331131726E+03  0.00000000000E+00 0.  1.
         21    1    1    2  502  501 -0.15300003077E+02  0.90920326831E+01  0.12557469048E+02  0.21781762586E+02  0.00000000000E+00 0.  1.
<mgrwt>
<rscale>  1 0.30000000E+03</rscale>
<asrwt>0</asrwt>
<pdfrwt beam="1">  1        1 0.16009384E+00 0.30000000E+03</pdfrwt>
<pdfrwt beam="2">0</pdfrwt>
<totfact> 0.15985879E+01</totfact>
</mgrwt>
</event>
<event>
 6    1  0.1929825E-004  0.3000000E+03  0.7818608E-02  0.1093470E+00
          1   -1    0    0  502    0  0.00000000000E+00  0.00000000000E+00  0.31196560145E+02  0.31196560145E+02  0.00000000000E+00 0.  1.
         13   -1    0    0    0    0 -0.00000000000E+00 -0.00000000000E+00 -0.10000000000E+04  0.10000000000E+04  0.00000000000E+00 0.  1.
    9000005    2    1    2  501    0 -0.18002173386E+02  0.63045163141E+01 -0.94928587454E+03  0.10039062592E+04  0.32606790763E+03 0.  0.
         13    1    3    3    0    0 -0.11878130169E+03 -0.10200814189E+03 -0.30486226820E+03  0.34271804915E+03  0.00000000000E+00 0.  1.
          1    1    3    3  501    0  0.10077912831E+03  0.10831265820E+03 -0.64442360635E+03  0.66118821000E+03  0.00000000000E+00 0.  1.
         21    1    1    2  502  501  0.18002173386E+02 -0.63045163141E+01 -0.19517565313E+02  0.27290300994E+02  0.00000000000E+00 0. -1.
<mgrwt>
<rscale>  1 0.30000000E+03</rscale>
<asrwt>0</asrwt>
<pdfrwt beam="1">  1        1 0.11344228E+00 0.30000000E+03</pdfrwt>
<pdfrwt beam="2">0</pdfrwt>
<totfact> 0.28351747E+01</totfact>
</mgrwt>
</event>
<event>
 6    1  0.1929825E-004  0.3000000E+03  0.7818608E-02  0.1093470E+00
          1   -1    0    0  502    0  0.00000000000E+00  0.00000000000E+00  0.37001286816E+02  0.37001286816E+02  0.00000000000E+00 0.  1.
         13   -1    0    0    0    0 -0.00000000000E+00 -0.00000000000E+00 -0.10000000000E+04  0.10000000000E+04  0.00000000000E+00 0.  1.
    9000005    2    1    2  501    0  0.25205306335E+02 -0.71749545736E+01 -0.95692838270E+03  0.10101007970E+04  0.32234283462E+03 0.  0.
         13    1    3    3    0    0  0.30163787698E+01  0.14777314201E+03 -0.63713591795E+03  0.65405517961E+03  0.00000000000E+00 0.  1.
          3    1    3    3  501    0  0.22188927565E+02 -0.15494809659E+03 -0.31979246475E+03  0.35604561738E+03  0.00000000000E+00 0.  1.
         21    1    1    2  502  501 -0.25205306335E+02  0.71749545736E+01 -0.60703304857E+01  0.26900489824E+02  0.00000000000E+00 0.  1.
<mgrwt>
<rscale>  1 0.30000000E+03</rscale>
<asrwt>0</asrwt>
<pdfrwt beam="1">  1        1 0.13455042E+00 0.30000000E+03</pdfrwt>
<pdfrwt beam="2">0</pdfrwt>
<totfact> 0.21621794E+01</totfact>
</mgrwt>
</event>
<event>
 6    1  0.1929825E-004  0.3000000E+03  0.7818608E-02  0.1093470E+00
          1   -1    0    0  502    0  0.00000000000E+00  0.00000000000E+00  0.52971680551E+02  0.52971680551E+02  0.00000000000E+00 0.  1.
         13   -1    0    0    0    0 -0.00000000000E+00 -0.00000000000E+00 -0.10000000000E+04  0.10000000000E+04  0.00000000000E+00 0.  1.
    9000005    2    1    2  501    0 -0.23920660972E+02  0.79956166158E+01 -0.96769053489E+03  0.10203671555E+04  0.32262677017E+03 0.  0.
         13    1    3    3    0    0  0.74002424963E+02 -0.74127666772E+02 -0.81296732193E+03  0.81968721864E+03  0.00000000000E+00 0.  1.
          3    1    3    3  501    0 -0.97923085934E+02  0.82123283388E+02 -0.15472321296E+03  0.20067993687E+03  0.00000000000E+00 0.  1.
         21    1    1    2  502  501  0.23920660972E+02 -0.79956166158E+01  0.20662215437E+02  0.32604525041E+02  0.00000000000E+00 0.  1.
<mgrwt>
<rscale>  1 0.30000000E+03</rscale>
<asrwt>0</asrwt>
<pdfrwt beam="1">  1        1 0.19262470E+00 0.30000000E+03</pdfrwt>
<pdfrwt beam="2">0</pdfrwt>
<totfact> 0.11107459E+01</totfact>
</mgrwt>
</event>
<event>
 6    1  0.1929825E-004  0.3000000E+03  0.7818608E-02  0.1093470E+00
          1   -1    0    0  502    0  0.00000000000E+00  0.00000000000E+00  0.24211932233E+02  0.24211932233E+02  0.00000000000E+00 0.  1.
         13   -1    0    0    0    0 -0.00000000000E+00 -0.00000000000E+00 -0.10000000000E+04  0.10000000000E+04  0.00000000000E+00 0.  1.
    9000005    2    1    2  501    0 -0.17692754685E+02 -0.51241028759E+01 -0.97690831289E+03  0.10057580723E+04  0.23845368129E+03 0.  0.
         13    1    3    3    0    0 -0.54476948831E+02 -0.10677995743E+03 -0.35956531568E+03  0.37902099348E+03  0.00000000000E+00 0.  1.
          1    1    3    3  501    0  0.36784194146E+02  0.10165585456E+03 -0.61734299722E+03  0.62673707878E+03  0.00000000000E+00 0.  1.
         21    1    1    2  502  501  0.17692754685E+02  0.51241028759E+01  0.11202451278E+01  0.18453859970E+02  0.00000000000E+00 0.  1.
<mgrwt>
<rscale>  1 0.30000000E+03</rscale>
<asrwt>0</asrwt>
<pdfrwt beam="1">  1        1 0.88043576E-01 0.30000000E+03</pdfrwt>
<pdfrwt beam="2">0</pdfrwt>
<totfact> 0.41088704E+01</totfact>
</mgrwt>
</event>
<event>
 6    1  0.1929825E-004  0.3000000E+03  0.7818608E-02  0.1093470E+00
          1   -1    0    0  502    0  0.00000000000E+00  0.00000000000E+00  0.44669241071E+02  0.44669241071E+02  0.00000000000E+00 0.  1.
         13   -1    0    0    0    0 -0.00000000000E+00 -0.00000000000E+00 -0.10000000000E+04  0.10000000000E+04  0.00000000000E+00 0.  1.
    9000005    2    1    2  501    0 -0.16484165785E-01  0.10046649620E+02 -0.97246876595E+03  0.10248035237E+04  0.32314985080E+03 0.  0.
         13    1    3    3    0    0 -0.10690366265E+03  0.11077159723E+03 -0.68387393840E+03  0.70098666425E+03  0.00000000000E+00 0.  1.
          1    1    3    3  501    0  0.10688717849E+03 -0.10072494761E+03 -0.28859482756E+03  0.32381685949E+03  0.00000000000E+00 0.  1.
         21    1    1    2  502  501  0.16484165785E-01 -0.10046649620E+02  0.17138007025E+02  0.19865717332E+02  0.00000000000E+00 0.  1.
<mgrwt>
<rscale>  1 0.30000000E+03</rscale>
<asrwt>0</asrwt>
<pdfrwt beam="1">  1        1 0.16243395E+00 0.30000000E+03</pdfrwt>
<pdfrwt beam="2">0</pdfrwt>
<totfact> 0.15564611E+01</totfact>
</mgrwt>
</event>
<event>
 6    1  0.1929825E-004  0.3000000E+03  0.7818608E-02  0.1093470E+00
          1   -1    0    0  502    0  0.00000000000E+00  0.00000000000E+00  0.29660881819E+02  0.29660881819E+02  0.00000000000E+00 0.  1.
         13   -1    0    0    0    0 -0.00000000000E+00 -0.00000000000E+00 -0.10000000000E+04  0.10000000000E+04  0.00000000000E+00 0.  1.
    9000005    2    1    2  501    0 -0.85925677130E+01  0.42736533150E+01 -0.96425721861E+03  0.10182992871E+04  0.32718398203E+03 0.  0.
         13    1    3    3    0    0 -0.10143884727E+03  0.29456399474E+02 -0.90018260169E+02  0.13878330724E+03  0.00000000000E+00 0.  1.
          3    1    3    3  501    0  0.92846279558E+02 -0.25182746159E+02 -0.87423895845E+03  0.87951597984E+03  0.00000000000E+00 0.  1.
         21    1    1    2  502  501  0.85925677130E+01 -0.42736533150E+01 -0.60818995665E+01  0.11361594734E+02  0.00000000000E+00 0.  1.
<mgrwt>
<rscale>  1 0.30000000E+03</rscale>
<asrwt>0</asrwt>
<pdfrwt beam="1">  1        1 0.10785798E+00 0.30000000E+03</pdfrwt>
<pdfrwt beam="2">0</pdfrwt>
<totfact> 0.30601649E+01</totfact>
</mgrwt>
</event>
<event>
 6    1  0.1929825E-004  0.3000000E+03  0.7818608E-02  0.1093470E+00
          1   -1    0    0  502    0  0.00000000000E+00  0.00000000000E+00  0.21056878136E+02  0.21056878136E+02  0.00000000000E+00 0.  1.
         13   -1    0    0    0    0 -0.00000000000E+00 -0.00000000000E+00 -0.10000000000E+04  0.10000000000E+04  0.00000000000E+00 0.  1.
    9000005    2    1    2  501    0 -0.62756902684E+00  0.95981217774E+01 -0.96965218592E+03  0.10076837979E+04  0.27405976919E+03 0.  0.
         13    1    3    3    0    0 -0.89040255155E+02 -0.80888657139E+02 -0.25537594584E+03  0.28229065802E+03  0.00000000000E+00 0.  1.
          3    1    3    3  501    0  0.88412686128E+02  0.90486778916E+02 -0.71427624009E+03  0.72539313988E+03  0.00000000000E+00 0.  1.
         21    1    1    2  502  501  0.62756902684E+00 -0.95981217774E+01 -0.92909359390E+01  0.13373080242E+02  0.00000000000E+00 0. -1.
<mgrwt>
<rscale>  1 0.30000000E+03</rscale>
<asrwt>0</asrwt>
<pdfrwt beam="1">  1        1 0.76570627E-01 0.30000000E+03</pdfrwt>
<pdfrwt beam="2">0</pdfrwt>
<totfact> 0.49887728E+01</totfact>
</mgrwt>
</event>
<event>
 6    1  0.1929825E-004  0.3000000E+03  0.7818608E-02  0.1093470E+00
          1   -1    0    0  502    0  0.00000000000E+00  0.00000000000E+00  0.30507244304E+02  0.30507244304E+02  0.00000000000E+00 0.  1.
         13   -1    0    0    0    0 -0.00000000000E+00 -0.00000000000E+00 -0.10000000000E+04  0.10000000000E+04  0.00000000000E+00 0.  1.
    9000005    2    1    2  501    0  0.14924996791E+01 -0.10521092819E+02 -0.96691836697E+03  0.10195734240E+04  0.32324281518E+03 0.  0.
         13    1    3    3    0    0 -0.11507634429E+03 -0.12348297379E+02 -0.83720975237E+03  0.84517170736E+03  0.00000000000E+00 0.  1.
          3    1    3    3  501    0  0.11656884397E+03  0.18272045607E+01 -0.12970861460E+03  0.17440171663E+03  0.00000000000E+00 0.  1.
         21    1    1    2  502  501 -0.14924996791E+01  0.10521092819E+02 -0.25743887238E+01  0.10933820316E+02  0.00000000000E+00 0. -1.
<mgrwt>
<rscale>  1 0.30000000E+03</rscale>
<asrwt>0</asrwt>
<pdfrwt beam="1">  1        1 0.11093567E+00 0.30000000E+03</pdfrwt>
<pdfrwt beam="2">0</pdfrwt>
<totfact> 0.29331576E+01</totfact>
</mgrwt>
</event>
<event>
 6    1  0.1929825E-004  0.3000000E+03  0.7818608E-02  0.1093470E+00
          1   -1    0    0  502    0  0.00000000000E+00  0.00000000000E+00  0.33945278754E+02  0.33945278754E+02  0.00000000000E+00 0.  1.
         13   -1    0    0    0    0 -0.00000000000E+00 -0.00000000000E+00 -0.10000000000E+04  0.10000000000E+04  0.00000000000E+00 0.  1.
    9000005    2    1    2  501    0 -0.95301935863E+01 -0.62427536081E+01 -0.96864687716E+03  0.10222612797E+04  0.32651424886E+03 0.  0.
         13    1    3    3    0    0  0.15722478991E+03 -0.21900988851E+02 -0.44364541893E+03  0.47119056189E+03  0.00000000000E+00 0.  1.
          1    1    3    3  501    0 -0.16675498349E+03  0.15658235243E+02 -0.52500145823E+03  0.55107071778E+03  0.00000000000E+00 0.  1.
         21    1    1    2  502  501  0.95301935863E+01  0.62427536081E+01  0.25921559141E+01  0.11683999088E+02  0.00000000000E+00 0.  1.
<mgrwt>
<rscale>  1 0.30000000E+03</rscale>
<asrwt>0</asrwt>
<pdfrwt beam="1">  1        1 0.12343764E+00 0.30000000E+03</pdfrwt>
<pdfrwt beam="2">0</pdfrwt>
<totfact> 0.24866251E+01</totfact>
</mgrwt>
</event>
<event>
 6    1  0.1929825E-004  0.3000000E+03  0.7818608E-02  0.1093470E+00
          1   -1    0    0  502    0  0.00000000000E+00  0.00000000000E+00  0.47831252270E+02  0.47831252270E+02  0.00000000000E+00 0.  1.
         13   -1    0    0    0    0 -0.00000000000E+00 -0.00000000000E+00 -0.10000000000E+04  0.10000000000E+04  0.00000000000E+00 0.  1.
    9000005    2    1    2  501    0  0.13976761115E+02 -0.72311141907E+02 -0.88556767748E+03  0.94853395294E+03  0.33175638260E+03 0.  0.
         13    1    3    3    0    0 -0.14719041546E+03  0.22492321554E+02 -0.32208167394E+03  0.35483450736E+03  0.00000000000E+00 0.  1.
          3    1    3    3  501    0  0.16116717657E+03 -0.94803463461E+02 -0.56348600354E+03  0.59369944558E+03  0.00000000000E+00 0.  1.
         21    1    1    2  502  501 -0.13976761115E+02  0.72311141907E+02 -0.66601070253E+02  0.99297299329E+02  0.00000000000E+00 0.  1.
<mgrwt>
<rscale>  1 0.30000000E+03</rscale>
<asrwt>0</asrwt>
<pdfrwt beam="1">  1        1 0.17393219E+00 0.30000000E+03</pdfrwt>
<pdfrwt beam="2">0</pdfrwt>
<totfact> 0.13670300E+01</totfact>
</mgrwt>
</event>
<event>
 6    1  0.1929825E-004  0.3000000E+03  0.7818608E-02  0.1093470E+00
          1   -1    0    0  502    0  0.00000000000E+00  0.00000000000E+00  0.34790179007E+02  0.34790179007E+02  0.00000000000E+00 0.  1.
         13   -1    0    0    0    0 -0.00000000000E+00 -0.00000000000E+00 -0.10000000000E+04  0.10000000000E+04  0.00000000000E+00 0.  1.
    9000005    2    1    2  501    0 -0.29985225728E+02 -0.22699577952E+02 -0.90136332458E+03  0.96069051838E+03  0.33023634658E+03 0.  0.
         13    1    3    3    0    0 -0.89784394759E+01 -0.17427611166E+03 -0.56087806918E+03  0.58739848822E+03  0.00000000000E+00 0.  1.
          3    1    3    3  501    0 -0.21006786252E+02  0.15157653371E+03 -0.34048525540E+03  0.37329203016E+03  0.00000000000E+00 0.  1.
         21    1    1    2  502  501  0.29985225728E+02  0.22699577952E+02 -0.63846496414E+02  0.74099660630E+02  0.00000000000E+00 0.  1.
<mgrwt>
<rscale>  1 0.30000000E+03</rscale>
<asrwt>0</asrwt>
<pdfrwt beam="1">  1        1 0.12651001E+00 0.30000000E+03</pdfrwt>
<pdfrwt beam="2">0</pdfrwt>
<totfact> 0.23909854E+01</totfact>
</mgrwt>
</event>
<event>
 6    1  0.1929825E-004  0.3000000E+03  0.7818608E-02  0.1093470E+00
          1   -1    0    0  502    0  0.00000000000E+00  0.00000000000E+00  0.30665102116E+02  0.30665102116E+02  0.00000000000E+00 0.  1.
         13   -1    0    0    0    0 -0.00000000000E+00 -0.00000000000E+00 -0.10000000000E+04  0.10000000000E+04  0.00000000000E+00 0.  1.
    9000005    2    1    2  501    0 -0.22275974870E+02  0.22640723734E+01 -0.94321033717E+03  0.99625815874E+03  0.31997380147E+03 0.  0.
         13    1    3    3    0    0 -0.73054250111E+01 -0.84372402063E+02 -0.88888050500E+03  0.89290571934E+03  0.00000000000E+00 0.  1.
          1    1    3    3  501    0 -0.14970549859E+02  0.86636474436E+02 -0.54329832172E+02  0.10335243940E+03  0.00000000000E+00 0.  1.
         21    1    1    2  502  501  0.22275974870E+02 -0.22640723734E+01 -0.26124560716E+02  0.34406943380E+02  0.00000000000E+00 0. -1.
<mgrwt>
<rscale>  1 0.30000000E+03</rscale>
<asrwt>0</asrwt>
<pdfrwt beam="1">  1        1 0.11150970E+00 0.30000000E+03</pdfrwt>
<pdfrwt beam="2">0</pdfrwt>
<totfact> 0.29102997E+01</totfact>
</mgrwt>
</event>
<event>
 6    1  0.1929825E-004  0.3000000E+03  0.7818608E-02  0.1093470E+00
          1   -1    0    0  502    0  0.00000000000E+00  0.00000000000E+00  0.42906064085E+02  0.42906064085E+02  0.00000000000E+00 0.  1.
         13   -1    0    0    0    0 -0.00000000000E+00 -0.00000000000E+00 -0.10000000000E+04  0.10000000000E+04  0.00000000000E+00 0.  1.
    9000005    2    1    2  501    0  0.12651263262E+02 -0.11942365115E+02 -0.97119421319E+03  0.10205120389E+04  0.31292802237E+03 0.  0.
         13    1    3    3    0    0  0.34063790421E+02 -0.73096645783E+02 -0.94840370050E+03  0.95182616089E+03  0.00000000000E+00 0.  1.
          1    1    3    3  501    0 -0.21412527159E+02  0.61154280668E+02 -0.22790512686E+02  0.68685877965E+02  0.00000000000E+00 0.  1.
         21    1    1    2  502  501 -0.12651263262E+02  0.11942365115E+02  0.14100277271E+02  0.22394025225E+02  0.00000000000E+00 0.  1.
<mgrwt>
<rscale>  1 0.30000000E+03</rscale>
<asrwt>0</asrwt>
<pdfrwt beam="1">  1        1 0.15602238E+00 0.30000000E+03</pdfrwt>
<pdfrwt beam="2">0</pdfrwt>
<totfact> 0.16751031E+01</totfact>
</mgrwt>
</event>
<event>
 6    1  0.1929825E-004  0.3000000E+03  0.7818608E-02  0.1093470E+00
          1   -1    0    0  502    0  0.00000000000E+00  0.00000000000E+00  0.28641440324E+02  0.28641440324E+02  0.00000000000E+00 0.  1.
         13   -1    0    0    0    0 -0.00000000000E+00 -0.00000000000E+00 -0.10000000000E+04  0.10000000000E+04  0.00000000000E+00 0.  1.
    9000005    2    1    2  501    0  0.51217482910E+01 -0.11636510609E+02 -0.95085057230E+03  0.10045122416E+04  0.32367636923E+03 0.  0.
         13    1    3    3    0    0  0.13381461730E+03  0.53228188877E+02 -0.70480176813E+03  0.71936438906E+03  0.00000000000E+00 0.  1.
          3    1    3    3  501    0 -0.12869286901E+03 -0.64864699486E+02 -0.24604880417E+03  0.28514785254E+03  0.00000000000E+00 0.  1.
         21    1    1    2  502  501 -0.51217482910E+01  0.11636510609E+02 -0.20507987374E+02  0.24129198719E+02  0.00000000000E+00 0.  1.
<mgrwt>
<rscale>  1 0.30000000E+03</rscale>
<asrwt>0</asrwt>
<pdfrwt beam="1">  1        1 0.10415091E+00 0.30000000E+03</pdfrwt>
<pdfrwt beam="2">0</pdfrwt>
<totfact> 0.32238640E+01</totfact>
</mgrwt>
</event>
<event>
 6    1  0.1929825E-004  0.3000000E+03  0.7818608E-02  0.1093470E+00
          1   -1    0    0  502    0  0.00000000000E+00  0.00000000000E+00  0.32978544375E+02  0.32978544375E+02  0.00000000000E+00 0.  1.
         13   -1    0    0    0    0 -0.00000000000E+00 -0.00000000000E+00 -0.10000000000E+04  0.10000000000E+04  0.00000000000E+00 0.  1.
    9000005    2    1    2  501    0 -0.12937147577E+01  0.13101214034E+02 -0.94709572017E+03  0.10090965336E+04  0.34801177477E+03 0.  0.
         13    1    3    3    0    0  0.10341448730E+03 -0.23083624590E+02 -0.74577357113E+02  0.12957311489E+03  0.00000000000E+00 0.  1.
          3    1    3    3  501    0 -0.10470820206E+03  0.36184838624E+02 -0.87251836306E+03  0.87952341868E+03  0.00000000000E+00 0.  1.
         21    1    1    2  502  501  0.12937147577E+01 -0.13101214034E+02 -0.19925735453E+02  0.23882010811E+02  0.00000000000E+00 0. -1.
<mgrwt>
<rscale>  1 0.30000000E+03</rscale>
<asrwt>0</asrwt>
<pdfrwt beam="1">  1        1 0.11992223E+00 0.30000000E+03</pdfrwt>
<pdfrwt beam="2">0</pdfrwt>
<totfact> 0.26022359E+01</totfact>
</mgrwt>
</event>
<event>
 6    1  0.1929825E-004  0.3000000E+03  0.7818608E-02  0.1093470E+00
          1   -1    0    0  502    0  0.00000000000E+00  0.00000000000E+00  0.70728140406E+02  0.70728140406E+02  0.00000000000E+00 0.  1.
         13   -1    0    0    0    0 -0.00000000000E+00 -0.00000000000E+00 -0.10000000000E+04  0.10000000000E+04  0.00000000000E+00 0.  1.
    9000005    2    1    2  501    0 -0.32175197418E+02  0.56486936147E+02 -0.94640512375E+03  0.10035004227E+04  0.32726812076E+03 0.  0.
         13    1    3    3    0    0 -0.12730762020E+03  0.94094076708E+02 -0.22635460918E+03  0.27621972147E+03  0.00000000000E+00 0.  1.
          3    1    3    3  501    0  0.95132422781E+02 -0.37607140561E+02 -0.72005051457E+03  0.72728070125E+03  0.00000000000E+00 0.  1.
         21    1    1    2  502  501  0.32175197418E+02 -0.56486936147E+02  0.17133264155E+02  0.67227717682E+02  0.00000000000E+00 0.  1.
<mgrwt>
<rscale>  1 0.30000000E+03</rscale>
<asrwt>0</asrwt>
<pdfrwt beam="1">  1        1 0.25719378E+00 0.30000000E+03</pdfrwt>
<pdfrwt beam="2">0</pdfrwt>
<totfact> 0.55229011E+00</totfact>
</mgrwt>
</event>
<event>
 6    1  0.1929825E-004  0.3000000E+03  0.7818608E-02  0.1093470E+00
          1   -1    0    0  502    0  0.00000000000E+00  0.00000000000E+00  0.30675669810E+02  0.30675669810E+02  0.00000000000E+00 0.  1.
         13   -1    0    0    0    0 -0.00000000000E+00 -0.00000000000E+00 -0.10000000000E+04  0.10000000000E+04  0.00000000000E+00 0.  1.
    9000005    2    1    2  501    0  0.20781670935E+01 -0.10706486181E+02 -0.96857661839E+03  0.10197437579E+04  0.31877534170E+03 0.  0.
         13    1    3    3    0    0 -0.13838061955E+03 -0.80616337127E+02 -0.54500483720E+03  0.56804794010E+03  0.00000000000E+00 0.  1.
          3    1    3    3  501    0  0.14045878664E+03  0.69909850946E+02 -0.42357178120E+03  0.45169581781E+03  0.00000000000E+00 0.  1.
         21    1    1    2  502  501 -0.20781670935E+01  0.10706486181E+02 -0.74771179554E+00  0.10931911898E+02  0.00000000000E+00 0.  1.
<mgrwt>
<rscale>  1 0.30000000E+03</rscale>
<asrwt>0</asrwt>
<pdfrwt beam="1">  1        1 0.11154813E+00 0.30000000E+03</pdfrwt>
<pdfrwt beam="2">0</pdfrwt>
<totfact> 0.29087785E+01</totfact>
</mgrwt>
</event>
<event>
 6    1  0.1929825E-004  0.3000000E+03  0.7818608E-02  0.1093470E+00
          1   -1    0    0  502    0  0.00000000000E+00  0.00000000000E+00  0.48872447545E+02  0.48872447545E+02  0.00000000000E+00 0.  1.
         13   -1    0    0    0    0 -0.00000000000E+00 -0.00000000000E+00 -0.10000000000E+04  0.10000000000E+04  0.00000000000E+00 0.  1.
    9000005    2    1    2  501    0  0.24737046295E+02 -0.52216787965E+01 -0.96922311332E+03  0.10177816658E+04  0.30959148626E+03 0.  0.
         13    1    3    3    0    0  0.38765894126E+02  0.11914552711E+03 -0.18376061208E+03  0.22241046228E+03  0.00000000000E+00 0.  1.
          3    1    3    3  501    0 -0.14028847831E+02 -0.12436720590E+03 -0.78546250124E+03  0.79537120348E+03  0.00000000000E+00 0.  1.
         21    1    1    2  502  501 -0.24737046295E+02  0.52216787965E+01  0.18095560869E+02  0.31090781786E+02  0.00000000000E+00 0.  1.
<mgrwt>
<rscale>  1 0.30000000E+03</rscale>
<asrwt>0</asrwt>
<pdfrwt beam="1">  1        1 0.17771837E+00 0.30000000E+03</pdfrwt>
<pdfrwt beam="2">0</pdfrwt>
<totfact> 0.13103611E+01</totfact>
</mgrwt>
</event>
<event>
 6    1  0.1929825E-004  0.3000000E+03  0.7818608E-02  0.1093470E+00
          1   -1    0    0  502    0  0.00000000000E+00  0.00000000000E+00  0.37618388278E+02  0.37618388278E+02  0.00000000000E+00 0.  1.
         13   -1    0    0    0    0 -0.00000000000E+00 -0.00000000000E+00 -0.10000000000E+04  0.10000000000E+04  0.00000000000E+00 0.  1.
    9000005    2    1    2  501    0 -0.16937250665E+02 -0.40738980869E+02 -0.92689881937E+03  0.98100069161E+03  0.31823639104E+03 0.  0.
         13    1    3    3    0    0  0.99708513872E+02  0.95155903180E+02 -0.32485481722E+03  0.35288395531E+03  0.00000000000E+00 0.  1.
          1    1    3    3  501    0 -0.11664576454E+03 -0.13589488405E+03 -0.60204400215E+03  0.62811673630E+03  0.00000000000E+00 0.  1.
         21    1    1    2  502  501  0.16937250665E+02  0.40738980869E+02 -0.35482792356E+02  0.56617696666E+02  0.00000000000E+00 0.  1.
<mgrwt>
<rscale>  1 0.30000000E+03</rscale>
<asrwt>0</asrwt>
<pdfrwt beam="1">  1        1 0.13679443E+00 0.30000000E+03</pdfrwt>
<pdfrwt beam="2">0</pdfrwt>
<totfact> 0.21035051E+01</totfact>
</mgrwt>
</event>
<event>
 6    1  0.1929825E-004  0.3000000E+03  0.7818608E-02  0.1093470E+00
          1   -1    0    0  502    0  0.00000000000E+00  0.00000000000E+00  0.28504560069E+02  0.28504560069E+02  0.00000000000E+00 0.  1.
         13   -1    0    0    0    0 -0.00000000000E+00 -0.00000000000E+00 -0.10000000000E+04  0.10000000000E+04  0.00000000000E+00 0.  1.
    9000005    2    1    2  501    0  0.52669263393E+01 -0.92232252997E+01 -0.95139476041E+03  0.10057703190E+04  0.32605081832E+03 0.  0.
         13    1    3    3    0    0  0.55223406470E+02 -0.15702855932E+03 -0.56671625780E+03  0.59065633825E+03  0.00000000000E+00 0.  1.
          1    1    3    3  501    0 -0.49956480131E+02  0.14780533402E+03 -0.38467850261E+03  0.41511398079E+03  0.00000000000E+00 0.  1.
         21    1    1    2  502  501 -0.52669263393E+01  0.92232252997E+01 -0.20100679518E+02  0.22734241027E+02  0.00000000000E+00 0.  1.
<mgrwt>
<rscale>  1 0.30000000E+03</rscale>
<asrwt>0</asrwt>
<pdfrwt beam="1">  1        1 0.10365316E+00 0.30000000E+03</pdfrwt>
<pdfrwt beam="2">0</pdfrwt>
<totfact> 0.32468029E+01</totfact>
</mgrwt>
</event>
<event>
 6    1  0.1929825E-004  0.3000000E+03  0.7818608E-02  0.1093470E+00
          1   -1    0    0  502    0  0.00000000000E+00  0.00000000000E+00  0.35616053521E+02  0.35616053521E+02  0.00000000000E+00 0.  1.
         13   -1    0    0    0    0 -0.00000000000E+00 -0.00000000000E+00 -0.10000000000E+04  0.10000000000E+04  0.00000000000E+00 0.  1.
    9000005    2    1    2  501    0 -0.45604451264E+02 -0.24466051179E+02 -0.82657062096E+03  0.88840577424E+03  0.32150812530E+03 0.  0.
         13    1    3    3    0    0 -0.74589727463E+02  0.10625052319E+03 -0.14850517369E+03  0.19724752909E+03  0.00000000000E+00 0.  1.
          3    1    3    3  501    0  0.28985276199E+02 -0.13071657437E+03 -0.67806544727E+03  0.69115824515E+03  0.00000000000E+00 0.  1.
         21    1    1    2  502  501  0.45604451264E+02  0.24466051179E+02 -0.13781332552E+03  0.14721027928E+03  0.00000000000E+00 0.  1.
<mgrwt>
<rscale>  1 0.30000000E+03</rscale>
<asrwt>0</asrwt>
<pdfrwt beam="1">  1        1 0.12951320E+00 0.30000000E+03</pdfrwt>
<pdfrwt beam="2">0</pdfrwt>
<totfact> 0.23019974E+01</totfact>
</mgrwt>
</event>
<event>
 6    1  0.1929825E-004  0.3000000E+03  0.7818608E-02  0.1093470E+00
          1   -1    0    0  502    0  0.00000000000E+00  0.00000000000E+00  0.48836417067E+02  0.48836417067E+02  0.00000000000E+00 0.  1.
         13   -1    0    0    0    0 -0.00000000000E+00 -0.00000000000E+00 -0.10000000000E+04  0.10000000000E+04  0.00000000000E+00 0.  1.
    9000005    2    1    2  501    0 -0.67079934218E+02 -0.27619139519E+02 -0.89090409642E+03  0.95452978868E+03  0.33489472080E+03 0.  0.
         13    1    3    3    0    0  0.99847581184E+02  0.61272962375E+02 -0.15256135835E+03  0.19235093826E+03  0.00000000000E+00 0.  1.
          3    1    3    3  501    0 -0.16692751540E+03 -0.88892101893E+02 -0.73834273806E+03  0.76217885042E+03  0.00000000000E+00 0.  1.
         21    1    1    2  502  501  0.67079934218E+02  0.27619139519E+02 -0.60259486514E+02  0.94306628385E+02  0.00000000000E+00 0.  1.
<mgrwt>
<rscale>  1 0.30000000E+03</rscale>
<asrwt>0</asrwt>
<pdfrwt beam="1">  1        1 0.17758735E+00 0.30000000E+03</pdfrwt>
<pdfrwt beam="2">0</pdfrwt>
<totfact> 0.13122791E+01</totfact>
</mgrwt>
</event>
<event>
 6    1  0.1929825E-004  0.3000000E+03  0.7818608E-02  0.1093470E+00
          1   -1    0    0  502    0  0.00000000000E+00  0.00000000000E+00  0.51734133919E+02  0.51734133919E+02  0.00000000000E+00 0.  1.
         13   -1    0    0    0    0 -0.00000000000E+00 -0.00000000000E+00 -0.10000000000E+04  0.10000000000E+04  0.00000000000E+00 0.  1.
    9000005    2    1    2  501    0  0.79464532991E+01  0.49449504931E+02 -0.95999636394E+03  0.10002948081E+04  0.27656515458E+03 0.  0.
         13    1    3    3    0    0  0.16075925956E+02 -0.25430797084E+02 -0.90862677856E+03  0.90912473487E+03  0.00000000000E+00 0.  1.
          3    1    3    3  501    0 -0.81294726568E+01  0.74880302015E+02 -0.51369585381E+02  0.91170073257E+02  0.00000000000E+00 0.  1.
         21    1    1    2  502  501 -0.79464532991E+01 -0.49449504931E+02  0.11730497859E+02  0.51439325792E+02  0.00000000000E+00 0.  1.
<mgrwt>
<rscale>  1 0.30000000E+03</rscale>
<asrwt>0</asrwt>
<pdfrwt beam="1">  1        1 0.18812452E+00 0.30000000E+03</pdfrwt>
<pdfrwt beam="2">0</pdfrwt>
<totfact> 0.11673576E+01</totfact>
</mgrwt>
</event>
<event>
 6    1  0.1929825E-004  0.3000000E+03  0.7818608E-02  0.1093470E+00
          1   -1    0    0  502    0  0.00000000000E+00  0.00000000000E+00  0.41544998492E+02  0.41544998492E+02  0.00000000000E+00 0.  1.
         13   -1    0    0    0    0 -0.00000000000E+00 -0.00000000000E+00 -0.10000000000E+04  0.10000000000E+04  0.00000000000E+00 0.  1.
    9000005    2    1    2  501    0  0.10178659184E+02 -0.19996538211E+01 -0.97077178118E+03  0.10254419932E+04  0.33019059125E+03 0.  0.
         13    1    3    3    0    0  0.34320435047E+02 -0.69152938940E+02 -0.31366112333E+02  0.83329791963E+02  0.00000000000E+00 0.  1.
          3    1    3    3  501    0 -0.24141775862E+02  0.67153285119E+02 -0.93940566885E+03  0.94211220123E+03  0.00000000000E+00 0.  1.
         21    1    1    2  502  501 -0.10178659184E+02  0.19996538211E+01  0.12316779671E+02  0.16103005299E+02  0.00000000000E+00 0.  1.
<mgrwt>
<rscale>  1 0.30000000E+03</rscale>
<asrwt>0</asrwt>
<pdfrwt beam="1">  1        1 0.15107304E+00 0.30000000E+03</pdfrwt>
<pdfrwt beam="2">0</pdfrwt>
<totfact> 0.17740994E+01</totfact>
</mgrwt>
</event>
<event>
 6    1  0.1929825E-004  0.3000000E+03  0.7818608E-02  0.1093470E+00
          1   -1    0    0  502    0  0.00000000000E+00  0.00000000000E+00  0.38948002715E+02  0.38948002715E+02  0.00000000000E+00 0.  1.
         13   -1    0    0    0    0 -0.00000000000E+00 -0.00000000000E+00 -0.10000000000E+04  0.10000000000E+04  0.00000000000E+00 0.  1.
    9000005    2    1    2  501    0 -0.14830214462E+02  0.25765165890E+02 -0.95252864146E+03  0.10080218547E+04  0.32850185355E+03 0.  0.
         13    1    3    3    0    0 -0.10926371719E+03 -0.11159306197E+03 -0.35833846665E+03  0.39089388337E+03  0.00000000000E+00 0.  1.
          1    1    3    3  501    0  0.94433502729E+02  0.13735822786E+03 -0.59419017481E+03  0.61712797137E+03  0.00000000000E+00 0.  1.
         21    1    1    2  502  501  0.14830214462E+02 -0.25765165890E+02 -0.85233558227E+01  0.30926147979E+02  0.00000000000E+00 0.  1.
<mgrwt>
<rscale>  1 0.30000000E+03</rscale>
<asrwt>0</asrwt>
<pdfrwt beam="1">  1        1 0.14162940E+00 0.30000000E+03</pdfrwt>
<pdfrwt beam="2">0</pdfrwt>
<totfact> 0.19839128E+01</totfact>
</mgrwt>
</event>
<event>
 6    1  0.1929825E-004  0.3000000E+03  0.7818608E-02  0.1093470E+00
          1   -1    0    0  502    0  0.00000000000E+00  0.00000000000E+00  0.38941562672E+02  0.38941562672E+02  0.00000000000E+00 0.  1.
         13   -1    0    0    0    0 -0.00000000000E+00 -0.00000000000E+00 -0.10000000000E+04  0.10000000000E+04  0.00000000000E+00 0.  1.
    9000005    2    1    2  501    0  0.24453486107E+02  0.30626940894E+02 -0.93937038188E+03  0.99414921689E+03  0.32307888912E+03 0.  0.
         13    1    3    3    0    0  0.83781980146E+02  0.14428223838E+03 -0.72850877260E+03  0.74736993267E+03  0.00000000000E+00 0.  1.
          3    1    3    3  501    0 -0.59328494039E+02 -0.11365529748E+03 -0.21086160929E+03  0.24677928422E+03  0.00000000000E+00 0.  1.
         21    1    1    2  502  501 -0.24453486107E+02 -0.30626940894E+02 -0.21688055444E+02  0.44792345777E+02  0.00000000000E+00 0.  1.
<mgrwt>
<rscale>  1 0.30000000E+03</rscale>
<asrwt>0</asrwt>
<pdfrwt beam="1">  1        1 0.14160598E+00 0.30000000E+03</pdfrwt>
<pdfrwt beam="2">0</pdfrwt>
<totfact> 0.19844709E+01</totfact>
</mgrwt>
</event>
<event>
 6    1  0.1929825E-004  0.3000000E+03  0.7818608E-02  0.1093470E+00
          1   -1    0    0  502    0  0.00000000000E+00  0.00000000000E+00  0.66171458365E+02  0.66171458365E+02  0.00000000000E+00 0.  1.
         13   -1    0    0    0    0 -0.00000000000E+00 -0.00000000000E+00 -0.10000000000E+04  0.10000000000E+04  0.00000000000E+00 0.  1.
    9000005    2    1    2  501    0 -0.25897064387E+02 -0.12329517865E+02 -0.94482073299E+03  0.10354549608E+04  0.42267964618E+03 0.  0.
         13    1    3    3    0    0 -0.61240182546E+02 -0.13679886667E+03 -0.87633166053E+03  0.88905650502E+03  0.00000000000E+00 0.  1.
          3    1    3    3  501    0  0.35343118159E+02  0.12446934880E+03 -0.68489072465E+02  0.14639845573E+03  0.00000000000E+00 0.  1.
         21    1    1    2  502  501  0.25897064387E+02  0.12329517865E+02  0.10992191359E+02  0.30716497612E+02  0.00000000000E+00 0.  1.
<mgrwt>
<rscale>  1 0.30000000E+03</rscale>
<asrwt>0</asrwt>
<pdfrwt beam="1">  1        1 0.24062399E+00 0.30000000E+03</pdfrwt>
<pdfrwt beam="2">0</pdfrwt>
<totfact> 0.65992408E+00</totfact>
</mgrwt>
</event>
<event>
 6    1  0.1929825E-004  0.3000000E+03  0.7818608E-02  0.1093470E+00
          1   -1    0    0  502    0  0.00000000000E+00  0.00000000000E+00  0.36915273508E+02  0.36915273508E+02  0.00000000000E+00 0.  1.
         13   -1    0    0    0    0 -0.00000000000E+00 -0.00000000000E+00 -0.10000000000E+04  0.10000000000E+04  0.00000000000E+00 0.  1.
    9000005    2    1    2  501    0 -0.24284451890E+02 -0.42749979473E+02 -0.86825436771E+03  0.93009723994E+03  0.32984531730E+03 0.  0.
         13    1    3    3    0    0 -0.96391606554E+02  0.12006282934E+03 -0.44617136973E+03  0.47199080073E+03  0.00000000000E+00 0.  1.
          3    1    3    3  501    0  0.72107154664E+02 -0.16281280881E+03 -0.42208299798E+03  0.45810643921E+03  0.00000000000E+00 0.  1.
         21    1    1    2  502  501  0.24284451890E+02  0.42749979473E+02 -0.94830358783E+02  0.10681803357E+03  0.00000000000E+00 0.  1.
<mgrwt>
<rscale>  1 0.30000000E+03</rscale>
<asrwt>0</asrwt>
<pdfrwt beam="1">  1        1 0.13423764E+00 0.30000000E+03</pdfrwt>
<pdfrwt beam="2">0</pdfrwt>
<totfact> 0.21705300E+01</totfact>
</mgrwt>
</event>
<event>
 6    1  0.1929825E-004  0.3000000E+03  0.7818608E-02  0.1093470E+00
          1   -1    0    0  502    0  0.00000000000E+00  0.00000000000E+00  0.27924698219E+02  0.27924698219E+02  0.00000000000E+00 0.  1.
         13   -1    0    0    0    0 -0.00000000000E+00 -0.00000000000E+00 -0.10000000000E+04  0.10000000000E+04  0.00000000000E+00 0.  1.
    9000005    2    1    2  501    0 -0.59629510559E+01  0.68016805401E+01 -0.95223444260E+03  0.10061192095E+04  0.32472081930E+03 0.  0.
         13    1    3    3    0    0  0.76912467481E+02  0.81163058813E+02 -0.84215288389E+03  0.84954367140E+03  0.00000000000E+00 0.  1.
          3    1    3    3  501    0 -0.82875418537E+02 -0.74361378273E+02 -0.11008155871E+03  0.15657553814E+03  0.00000000000E+00 0.  1.
         21    1    1    2  502  501  0.59629510559E+01 -0.68016805401E+01 -0.19840859181E+02  0.21805488679E+02  0.00000000000E+00 0. -1.
<mgrwt>
<rscale>  1 0.30000000E+03</rscale>
<asrwt>0</asrwt>
<pdfrwt beam="1">  1        1 0.10154457E+00 0.30000000E+03</pdfrwt>
<pdfrwt beam="2">0</pdfrwt>
<totfact> 0.33466644E+01</totfact>
</mgrwt>
</event>
<event>
 6    1  0.1929825E-004  0.3000000E+03  0.7818608E-02  0.1093470E+00
          1   -1    0    0  502    0  0.00000000000E+00  0.00000000000E+00  0.28678813878E+02  0.28678813878E+02  0.00000000000E+00 0.  1.
         13   -1    0    0    0    0 -0.00000000000E+00 -0.00000000000E+00 -0.10000000000E+04  0.10000000000E+04  0.00000000000E+00 0.  1.
    9000005    2    1    2  501    0 -0.14962701367E+01 -0.10399531676E+02 -0.94473037241E+03  0.10000875485E+04  0.32794700636E+03 0.  0.
         13    1    3    3    0    0 -0.42896105809E+02  0.14174248125E+03 -0.27819228772E+03  0.31515386057E+03  0.00000000000E+00 0.  1.
          3    1    3    3  501    0  0.41399835672E+02 -0.15214201292E+03 -0.66653808469E+03  0.68493368791E+03  0.00000000000E+00 0.  1.
         21    1    1    2  502  501  0.14962701367E+01  0.10399531676E+02 -0.26590813716E+02  0.28591265405E+02  0.00000000000E+00 0. -1.
<mgrwt>
<rscale>  1 0.30000000E+03</rscale>
<asrwt>0</asrwt>
<pdfrwt beam="1">  1        1 0.10428682E+00 0.30000000E+03</pdfrwt>
<pdfrwt beam="2">0</pdfrwt>
<totfact> 0.32176417E+01</totfact>
</mgrwt>
</event>
<event>
 6    1  0.1929825E-004  0.3000000E+03  0.7818608E-02  0.1093470E+00
          1   -1    0    0  502    0  0.00000000000E+00  0.00000000000E+00  0.30411904512E+02  0.30411904512E+02  0.00000000000E+00 0.  1.
         13   -1    0    0    0    0 -0.00000000000E+00 -0.00000000000E+00 -0.10000000000E+04  0.10000000000E+04  0.00000000000E+00 0.  1.
    9000005    2    1    2  501    0  0.19401896338E+02  0.14359160938E+02 -0.94684546928E+03  0.99724797635E+03  0.31209704348E+03 0.  0.
         13    1    3    3    0    0  0.78053980779E+02  0.10869645587E+03 -0.19058837645E+03  0.23287608867E+03  0.00000000000E+00 0.  1.
          3    1    3    3  501    0 -0.58652084441E+02 -0.94337294932E+02 -0.75625709283E+03  0.76437188768E+03  0.00000000000E+00 0.  1.
         21    1    1    2  502  501 -0.19401896338E+02 -0.14359160938E+02 -0.22742626207E+02  0.33163928162E+02  0.00000000000E+00 0. -1.
<mgrwt>
<rscale>  1 0.30000000E+03</rscale>
<asrwt>0</asrwt>
<pdfrwt beam="1">  1        1 0.11058898E+00 0.30000000E+03</pdfrwt>
<pdfrwt beam="2">0</pdfrwt>
<totfact> 0.29470861E+01</totfact>
</mgrwt>
</event>
<event>
 6    1  0.1929825E-004  0.3000000E+03  0.7818608E-02  0.1093470E+00
          3   -1    0    0  502    0  0.00000000000E+00  0.00000000000E+00  0.34138946728E+02  0.34138946728E+02  0.00000000000E+00 0.  1.
         13   -1    0    0    0    0 -0.00000000000E+00 -0.00000000000E+00 -0.10000000000E+04  0.10000000000E+04  0.00000000000E+00 0.  1.
    9000005    2    1    2  501    0  0.27662317095E+02  0.18206916515E+02 -0.92853811404E+03  0.98424207920E+03  0.32473488518E+03 0.  0.
         13    1    3    3    0    0 -0.77487524817E+02 -0.34118524913E+00 -0.84533365885E+03  0.84887774602E+03  0.00000000000E+00 0.  1.
          1    1    3    3  501    0  0.10514984191E+03  0.18548101764E+02 -0.83204455187E+02  0.13536433318E+03  0.00000000000E+00 0.  1.
         21    1    1    2  502  501 -0.27662317095E+02 -0.18206916515E+02 -0.37322939235E+02  0.49896867529E+02  0.00000000000E+00 0.  1.
<mgrwt>
<rscale>  1 0.30000000E+03</rscale>
<asrwt>0</asrwt>
<pdfrwt beam="1">  1        3 0.12414189E+00 0.30000000E+03</pdfrwt>
<pdfrwt beam="2">0</pdfrwt>
<totfact> 0.20704608E+00</totfact>
</mgrwt>
</event>
<event>
 6    1  0.1929825E-004  0.3000000E+03  0.7818608E-02  0.1093470E+00
          3   -1    0    0  502    0  0.00000000000E+00  0.00000000000E+00  0.43652764423E+02  0.43652764423E+02  0.00000000000E+00 0.  1.
         13   -1    0    0    0    0 -0.00000000000E+00 -0.00000000000E+00 -0.10000000000E+04  0.10000000000E+04  0.00000000000E+00 0.  1.
    9000005    2    1    2  501    0 -0.85873805108E+01  0.61034712071E+01 -0.97105961594E+03  0.10255571959E+04  0.32969651022E+03 0.  0.
         13    1    3    3    0    0  0.35722169290E+02  0.13100148819E+03 -0.19115583558E+03  0.23447391488E+03  0.00000000000E+00 0.  1.
          3    1    3    3  501    0 -0.44309549801E+02 -0.12489801698E+03 -0.77990378037E+03  0.79108328100E+03  0.00000000000E+00 0.  1.
         21    1    1    2  502  501  0.85873805108E+01 -0.61034712071E+01  0.14712380364E+02  0.18095568540E+02  0.00000000000E+00 0. -1.
<mgrwt>
<rscale>  1 0.30000000E+03</rscale>
<asrwt>0</asrwt>
<pdfrwt beam="1">  1        3 0.15873766E+00 0.30000000E+03</pdfrwt>
<pdfrwt beam="2">0</pdfrwt>
<totfact> 0.74001959E-01</totfact>
</mgrwt>
</event>
<event>
 6    1  0.1929825E-004  0.3000000E+03  0.7818608E-02  0.1093470E+00
          1   -1    0    0  502    0  0.00000000000E+00  0.00000000000E+00  0.33114992834E+02  0.33114992834E+02  0.00000000000E+00 0.  1.
         13   -1    0    0    0    0 -0.00000000000E+00 -0.00000000000E+00 -0.10000000000E+04  0.10000000000E+04  0.00000000000E+00 0.  1.
    9000005    2    1    2  501    0  0.13125298359E+01  0.26128293052E+02 -0.94684138199E+03  0.10001580915E+04  0.32112800407E+03 0.  0.
         13    1    3    3    0    0 -0.60329157537E+02  0.12131442092E+03 -0.18167124805E+03  0.22663017968E+03  0.00000000000E+00 0.  1.
          1    1    3    3  501    0  0.61641687373E+02 -0.95186127871E+02 -0.76517013394E+03  0.77352791187E+03  0.00000000000E+00 0.  1.
         21    1    1    2  502  501 -0.13125298359E+01 -0.26128293052E+02 -0.20043625173E+02  0.32956901287E+02  0.00000000000E+00 0.  1.
<mgrwt>
<rscale>  1 0.30000000E+03</rscale>
<asrwt>0</asrwt>
<pdfrwt beam="1">  1        1 0.12041841E+00 0.30000000E+03</pdfrwt>
<pdfrwt beam="2">0</pdfrwt>
<totfact> 0.25854926E+01</totfact>
</mgrwt>
</event>
<event>
 6    1  0.1929825E-004  0.3000000E+03  0.7818608E-02  0.1093470E+00
          1   -1    0    0  502    0  0.00000000000E+00  0.00000000000E+00  0.32168905564E+02  0.32168905564E+02  0.00000000000E+00 0.  1.
         13   -1    0    0    0    0 -0.00000000000E+00 -0.00000000000E+00 -0.10000000000E+04  0.10000000000E+04  0.00000000000E+00 0.  1.
    9000005    2    1    2  501    0  0.14838887108E+02  0.56811900624E+00 -0.96093678552E+03  0.10157967699E+04  0.32897272942E+03 0.  0.
         13    1    3    3    0    0  0.17149438429E+03  0.53978711019E+01 -0.46258740755E+03  0.49338278292E+03  0.00000000000E+00 0.  1.
          1    1    3    3  501    0 -0.15665549718E+03 -0.48297520957E+01 -0.49834937797E+03  0.52241398701E+03  0.00000000000E+00 0.  1.
         21    1    1    2  502  501 -0.14838887108E+02 -0.56811900624E+00 -0.68943089143E+01  0.16372135634E+02  0.00000000000E+00 0. -1.
<mgrwt>
<rscale>  1 0.30000000E+03</rscale>
<asrwt>0</asrwt>
<pdfrwt beam="1">  1        1 0.11697809E+00 0.30000000E+03</pdfrwt>
<pdfrwt beam="2">0</pdfrwt>
<totfact> 0.27046621E+01</totfact>
</mgrwt>
</event>
<event>
 6    1  0.1929825E-004  0.3000000E+03  0.7818608E-02  0.1093470E+00
          1   -1    0    0  502    0  0.00000000000E+00  0.00000000000E+00  0.32931684776E+02  0.32931684776E+02  0.00000000000E+00 0.  1.
         13   -1    0    0    0    0 -0.00000000000E+00 -0.00000000000E+00 -0.10000000000E+04  0.10000000000E+04  0.00000000000E+00 0.  1.
    9000005    2    1    2  501    0  0.82835796308E+02  0.49193007566E+02 -0.86826088656E+03  0.89492940544E+03  0.19426773392E+03 0.  0.
         13    1    3    3    0    0  0.76211086618E+00  0.10364302592E+03 -0.60567812399E+03  0.61448225973E+03  0.00000000000E+00 0.  1.
          1    1    3    3  501    0  0.82073685442E+02 -0.54450018350E+02 -0.26258276257E+03  0.28044714571E+03  0.00000000000E+00 0.  1.
         21    1    1    2  502  501 -0.82835796308E+02 -0.49193007566E+02 -0.98807428660E+02  0.13800227934E+03  0.00000000000E+00 0. -1.
<mgrwt>
<rscale>  1 0.30000000E+03</rscale>
<asrwt>0</asrwt>
<pdfrwt beam="1">  1        1 0.11975183E+00 0.30000000E+03</pdfrwt>
<pdfrwt beam="2">0</pdfrwt>
<totfact> 0.26080195E+01</totfact>
</mgrwt>
</event>
<event>
 6    1  0.1929825E-004  0.3000000E+03  0.7818608E-02  0.1093470E+00
          1   -1    0    0  502    0  0.00000000000E+00  0.00000000000E+00  0.33580995382E+02  0.33580995382E+02  0.00000000000E+00 0.  1.
         13   -1    0    0    0    0 -0.00000000000E+00 -0.00000000000E+00 -0.10000000000E+04  0.10000000000E+04  0.00000000000E+00 0.  1.
    9000005    2    1    2  501    0 -0.10305372215E+02 -0.14455042763E+02 -0.95097767990E+03  0.10100526409E+04  0.33990092772E+03 0.  0.
         13    1    3    3    0    0  0.57993641086E+02  0.31343821720E+00 -0.15069917212E+01  0.58014064450E+02  0.00000000000E+00 0.  1.
          1    1    3    3  501    0 -0.68299013301E+02 -0.14768480980E+02 -0.94947068818E+03  0.95203857641E+03  0.00000000000E+00 0.  1.
         21    1    1    2  502  501  0.10305372215E+02  0.14455042763E+02 -0.15441324715E+02  0.23528354526E+02  0.00000000000E+00 0. -1.
<mgrwt>
<rscale>  1 0.30000000E+03</rscale>
<asrwt>0</asrwt>
<pdfrwt beam="1">  1        1 0.12211297E+00 0.30000000E+03</pdfrwt>
<pdfrwt beam="2">0</pdfrwt>
<totfact> 0.25293791E+01</totfact>
</mgrwt>
</event>
<event>
 6    1  0.1929825E-004  0.3000000E+03  0.7818608E-02  0.1093470E+00
          1   -1    0    0  502    0  0.00000000000E+00  0.00000000000E+00  0.48972398177E+02  0.48972398177E+02  0.00000000000E+00 0.  1.
         13   -1    0    0    0    0 -0.00000000000E+00 -0.00000000000E+00 -0.10000000000E+04  0.10000000000E+04  0.00000000000E+00 0.  1.
    9000005    2    1    2  501    0  0.18723466726E+02 -0.52301018312E+02 -0.93909888811E+03  0.99215462865E+03  0.31524295519E+03 0.  0.
         13    1    3    3    0    0  0.13827194862E+03 -0.23563981030E+02 -0.20855149356E+03  0.25133268479E+03  0.00000000000E+00 0.  1.
          3    1    3    3  501    0 -0.11954848189E+03 -0.28737037282E+02 -0.73054739455E+03  0.74082194387E+03  0.00000000000E+00 0.  1.
         21    1    1    2  502  501 -0.18723466726E+02  0.52301018312E+02 -0.11928713717E+02  0.56817769524E+02  0.00000000000E+00 0.  1.
<mgrwt>
<rscale>  1 0.30000000E+03</rscale>
<asrwt>0</asrwt>
<pdfrwt beam="1">  1        1 0.17808182E+00 0.30000000E+03</pdfrwt>
<pdfrwt beam="2">0</pdfrwt>
<totfact> 0.13050563E+01</totfact>
</mgrwt>
</event>
<event>
 6    1  0.1929825E-004  0.3000000E+03  0.7818608E-02  0.1093470E+00
          3   -1    0    0  502    0  0.00000000000E+00  0.00000000000E+00  0.30112741083E+02  0.30112741083E+02  0.00000000000E+00 0.  1.
         13   -1    0    0    0    0 -0.00000000000E+00 -0.00000000000E+00 -0.10000000000E+04  0.10000000000E+04  0.00000000000E+00 0.  1.
    9000005    2    1    2  501    0  0.17782703406E+02  0.17468267264E+02 -0.89319251705E+03  0.94946878079E+03  0.32105564670E+03 0.  0.
         13    1    3    3    0    0  0.15099841947E+03  0.83731357326E+02 -0.45134105298E+03  0.48323928750E+03  0.00000000000E+00 0.  1.
          1    1    3    3  501    0 -0.13321571606E+03 -0.66263090063E+02 -0.44185146407E+03  0.46622949328E+03  0.00000000000E+00 0.  1.
         21    1    1    2  502  501 -0.17782703406E+02 -0.17468267264E+02 -0.76694741871E+02  0.80643960296E+02  0.00000000000E+00 0.  1.
<mgrwt>
<rscale>  1 0.30000000E+03</rscale>
<asrwt>0</asrwt>
<pdfrwt beam="1">  1        3 0.10950111E+00 0.30000000E+03</pdfrwt>
<pdfrwt beam="2">0</pdfrwt>
<totfact> 0.30533347E+00</totfact>
</mgrwt>
</event>
<event>
 6    1  0.1929825E-004  0.3000000E+03  0.7818608E-02  0.1093470E+00
          1   -1    0    0  502    0  0.00000000000E+00  0.00000000000E+00  0.33751985498E+02  0.33751985498E+02  0.00000000000E+00 0.  1.
         13   -1    0    0    0    0 -0.00000000000E+00 -0.00000000000E+00 -0.10000000000E+04  0.10000000000E+04  0.00000000000E+00 0.  1.
    9000005    2    1    2  501    0 -0.23267004663E+02 -0.80964363320E+00 -0.95003965099E+03  0.10053843970E+04  0.32814697663E+03 0.  0.
         13    1    3    3    0    0  0.12740997261E+01  0.14527297056E+03 -0.24401749767E+03  0.28399013799E+03  0.00000000000E+00 0.  1.
          3    1    3    3  501    0 -0.24541104389E+02 -0.14608261419E+03 -0.70602215332E+03  0.72139425902E+03  0.00000000000E+00 0.  1.
         21    1    1    2  502  501  0.23267004663E+02  0.80964363320E+00 -0.16208363512E+02  0.28367588486E+02  0.00000000000E+00 0.  1.
<mgrwt>
<rscale>  1 0.30000000E+03</rscale>
<asrwt>0</asrwt>
<pdfrwt beam="1">  1        1 0.12273475E+00 0.30000000E+03</pdfrwt>
<pdfrwt beam="2">0</pdfrwt>
<totfact> 0.25091923E+01</totfact>
</mgrwt>
</event>
<event>
 6    1  0.3040410E-004  0.3000000E+03  0.7818608E-02  0.1093470E+00
          1   -1    0    0  502    0  0.00000000000E+00  0.00000000000E+00  0.61179221458E+02  0.61179221458E+02  0.00000000000E+00 0.  1.
         13   -1    0    0    0    0 -0.00000000000E+00 -0.00000000000E+00 -0.10000000000E+04  0.10000000000E+04  0.00000000000E+00 0.  1.
    9000005    2    1    2  501    0  0.34328600303E+01 -0.10043624735E+02 -0.94032579376E+03  0.10504589604E+04  0.46812260168E+03 0.  0.
         13    1    3    3    0    0 -0.20324150528E+03  0.51805580887E+02 -0.68398960484E+03  0.71542484386E+03  0.00000000000E+00 0.  1.
          3    1    3    3  501    0  0.20667436531E+03 -0.61849205622E+02 -0.25633618892E+03  0.33503411656E+03  0.00000000000E+00 0.  1.
         21    1    1    2  502  501 -0.34328600303E+01  0.10043624735E+02  0.15050152159E+01  0.10720261032E+02  0.00000000000E+00 0.  1.
<mgrwt>
<rscale>  1 0.30000000E+03</rscale>
<asrwt>0</asrwt>
<pdfrwt beam="1">  1        1 0.22247037E+00 0.30000000E+03</pdfrwt>
<pdfrwt beam="2">0</pdfrwt>
<totfact> 0.80264372E+00</totfact>
</mgrwt>
</event>
<event>
 6    1  0.1929825E-004  0.3000000E+03  0.7818608E-02  0.1093470E+00
          1   -1    0    0  502    0  0.00000000000E+00  0.00000000000E+00  0.48609224203E+02  0.48609224203E+02  0.00000000000E+00 0.  1.
         13   -1    0    0    0    0 -0.00000000000E+00 -0.00000000000E+00 -0.10000000000E+04  0.10000000000E+04  0.00000000000E+00 0.  1.
    9000005    2    1    2  501    0  0.80901787625E+02  0.42622834233E+02 -0.65314261548E+03  0.73665767289E+03  0.32818812535E+03 0.  0.
         13    1    3    3    0    0  0.15854972830E+03 -0.71336986208E+02 -0.50582205098E+03  0.53486720708E+03  0.00000000000E+00 0.  1.
          1    1    3    3  501    0 -0.77647940678E+02  0.11395982044E+03 -0.14732056450E+03  0.20179046581E+03  0.00000000000E+00 0.  1.
         21    1    1    2  502  501 -0.80901787625E+02 -0.42622834233E+02 -0.29824816031E+03  0.31195155132E+03  0.00000000000E+00 0.  1.
<mgrwt>
<rscale>  1 0.30000000E+03</rscale>
<asrwt>0</asrwt>
<pdfrwt beam="1">  1        1 0.17676119E+00 0.30000000E+03</pdfrwt>
<pdfrwt beam="2">0</pdfrwt>
<totfact> 0.13244435E+01</totfact>
</mgrwt>
</event>
<event>
 6    1  0.1929825E-004  0.3000000E+03  0.7818608E-02  0.1093470E+00
          1   -1    0    0  502    0  0.00000000000E+00  0.00000000000E+00  0.94879353427E+02  0.94879353427E+02  0.00000000000E+00 0.  1.
         13   -1    0    0    0    0 -0.00000000000E+00 -0.00000000000E+00 -0.10000000000E+04  0.10000000000E+04  0.00000000000E+00 0.  1.
    9000005    2    1    2  501    0 -0.12544825857E+03 -0.16114898411E+03 -0.72540926013E+03  0.82284545283E+03  0.33037824369E+03 0.  0.
         13    1    3    3    0    0 -0.13565862811E+03  0.10270967678E+02 -0.58621086658E+03  0.60179060832E+03  0.00000000000E+00 0.  1.
          3    1    3    3  501    0  0.10210369550E+02 -0.17141995179E+03 -0.13919839355E+03  0.22105484452E+03  0.00000000000E+00 0.  1.
         21    1    1    2  502  501  0.12544825857E+03  0.16114898411E+03 -0.17971138644E+03  0.27203390060E+03  0.00000000000E+00 0.  1.
<mgrwt>
<rscale>  1 0.30000000E+03</rscale>
<asrwt>0</asrwt>
<pdfrwt beam="1">  1        1 0.34501656E+00 0.30000000E+03</pdfrwt>
<pdfrwt beam="2">0</pdfrwt>
<totfact> 0.20878257E+00</totfact>
</mgrwt>
</event>
<event>
 6    1  0.1929825E-004  0.3000000E+03  0.7818608E-02  0.1093470E+00
          1   -1    0    0  502    0  0.00000000000E+00  0.00000000000E+00  0.29121381768E+02  0.29121381768E+02  0.00000000000E+00 0.  1.
         13   -1    0    0    0    0 -0.00000000000E+00 -0.00000000000E+00 -0.10000000000E+04  0.10000000000E+04  0.00000000000E+00 0.  1.
    9000005    2    1    2  501    0  0.72403107059E+01  0.73220904149E+01 -0.94764305037E+03  0.10037062933E+04  0.33059482334E+03 0.  0.
         13    1    3    3    0    0 -0.15839876769E+03  0.12627193463E+02 -0.36807867011E+03  0.40091336098E+03  0.00000000000E+00 0.  1.
          1    1    3    3  501    0  0.16563907840E+03 -0.53051030476E+01 -0.57956438026E+03  0.60279293233E+03  0.00000000000E+00 0.  1.
         21    1    1    2  502  501 -0.72403107059E+01 -0.73220904149E+01 -0.23235567863E+02  0.25415088453E+02  0.00000000000E+00 0. -1.
<mgrwt>
<rscale>  1 0.30000000E+03</rscale>
<asrwt>0</asrwt>
<pdfrwt beam="1">  1        1 0.10589616E+00 0.30000000E+03</pdfrwt>
<pdfrwt beam="2">0</pdfrwt>
<totfact> 0.31452629E+01</totfact>
</mgrwt>
</event>
<event>
 6    1  0.1929825E-004  0.3000000E+03  0.7818608E-02  0.1093470E+00
          1   -1    0    0  502    0  0.00000000000E+00  0.00000000000E+00  0.60867794465E+02  0.60867794465E+02  0.00000000000E+00 0.  1.
         13   -1    0    0    0    0 -0.00000000000E+00 -0.00000000000E+00 -0.10000000000E+04  0.10000000000E+04  0.00000000000E+00 0.  1.
    9000005    2    1    2  501    0  0.37417393859E+02 -0.11448304984E+02 -0.96183749713E+03  0.10156278197E+04  0.32378599754E+03 0.  0.
         13    1    3    3    0    0 -0.10194591591E+03  0.29724210976E+02 -0.11546798706E+03  0.15687368972E+03  0.00000000000E+00 0.  1.
          1    1    3    3  501    0  0.13936330977E+03 -0.41172515960E+02 -0.84636951007E+03  0.85875412998E+03  0.00000000000E+00 0.  1.
         21    1    1    2  502  501 -0.37417393859E+02  0.11448304984E+02  0.22705291600E+02  0.45239974766E+02  0.00000000000E+00 0. -1.
<mgrwt>
<rscale>  1 0.30000000E+03</rscale>
<asrwt>0</asrwt>
<pdfrwt beam="1">  1        1 0.22133790E+00 0.30000000E+03</pdfrwt>
<pdfrwt beam="2">0</pdfrwt>
<totfact> 0.81251026E+00</totfact>
</mgrwt>
</event>
<event>
 6    1  0.1929825E-004  0.3000000E+03  0.7818608E-02  0.1093470E+00
          1   -1    0    0  502    0  0.00000000000E+00  0.00000000000E+00  0.34850669582E+02  0.34850669582E+02  0.00000000000E+00 0.  1.
         13   -1    0    0    0    0 -0.00000000000E+00 -0.00000000000E+00 -0.10000000000E+04  0.10000000000E+04  0.00000000000E+00 0.  1.
    9000005    2    1    2  501    0 -0.10253304486E+02 -0.16537851070E+02 -0.95781623117E+03  0.10140563166E+04  0.33244495753E+03 0.  0.
         13    1    3    3    0    0 -0.12830027240E+03 -0.76198055408E+02 -0.77008887906E+03  0.78441314701E+03  0.00000000000E+00 0.  1.
          3    1    3    3  501    0  0.11804696791E+03  0.59660204338E+02 -0.18772735211E+03  0.22964316961E+03  0.00000000000E+00 0.  1.
         21    1    1    2  502  501  0.10253304486E+02  0.16537851070E+02 -0.73330992437E+01  0.20794352969E+02  0.00000000000E+00 0. -1.
<mgrwt>
<rscale>  1 0.30000000E+03</rscale>
<asrwt>0</asrwt>
<pdfrwt beam="1">  1        1 0.12672997E+00 0.30000000E+03</pdfrwt>
<pdfrwt beam="2">0</pdfrwt>
<totfact> 0.23843192E+01</totfact>
</mgrwt>
</event>
<event>
 6    1  0.1929825E-004  0.3000000E+03  0.7818608E-02  0.1093470E+00
          1   -1    0    0  502    0  0.00000000000E+00  0.00000000000E+00  0.54053138276E+02  0.54053138276E+02  0.00000000000E+00 0.  1.
         13   -1    0    0    0    0 -0.00000000000E+00 -0.00000000000E+00 -0.10000000000E+04  0.10000000000E+04  0.00000000000E+00 0.  1.
    9000005    2    1    2  501    0  0.84895669309E+02  0.34577858718E+01 -0.89473942030E+03  0.95484914134E+03  0.32242676925E+03 0.  0.
         13    1    3    3    0    0  0.10985896660E+03  0.13649582010E+03 -0.32469164834E+03  0.36895090181E+03  0.00000000000E+00 0.  1.
          1    1    3    3  501    0 -0.24963297295E+02 -0.13303803423E+03 -0.57004777196E+03  0.58589823953E+03  0.00000000000E+00 0.  1.
         21    1    1    2  502  501 -0.84895669309E+02 -0.34577858718E+01 -0.51207441422E+02  0.99203996933E+02  0.00000000000E+00 0.  1.
<mgrwt>
<rscale>  1 0.30000000E+03</rscale>
<asrwt>0</asrwt>
<pdfrwt beam="1">  1        1 0.19655728E+00 0.30000000E+03</pdfrwt>
<pdfrwt beam="2">0</pdfrwt>
<totfact> 0.10637180E+01</totfact>
</mgrwt>
</event>
<event>
 6    1  0.1929825E-004  0.3000000E+03  0.7818608E-02  0.1093470E+00
          1   -1    0    0  502    0  0.00000000000E+00  0.00000000000E+00  0.47744690474E+02  0.47744690474E+02  0.00000000000E+00 0.  1.
         13   -1    0    0    0    0 -0.00000000000E+00 -0.00000000000E+00 -0.10000000000E+04  0.10000000000E+04  0.00000000000E+00 0.  1.
    9000005    2    1    2  501    0  0.16162910587E+01 -0.51414430116E+02 -0.94278291678E+03  0.99543998471E+03  0.31530156829E+03 0.  0.
         13    1    3    3    0    0  0.12340003215E+03  0.46981061260E+02 -0.65149884691E+03  0.66474471459E+03  0.00000000000E+00 0.  1.
          3    1    3    3  501    0 -0.12178374109E+03 -0.98395491375E+02 -0.29128406987E+03  0.33069527011E+03  0.00000000000E+00 0.  1.
         21    1    1    2  502  501 -0.16162910587E+01  0.51414430116E+02 -0.94723927472E+01  0.52304705766E+02  0.00000000000E+00 0.  1.
<mgrwt>
<rscale>  1 0.30000000E+03</rscale>
<asrwt>0</asrwt>
<pdfrwt beam="1">  1        1 0.17361742E+00 0.30000000E+03</pdfrwt>
<pdfrwt beam="2">0</pdfrwt>
<totfact> 0.13718588E+01</totfact>
</mgrwt>
</event>
<event>
 6    1  0.1929825E-004  0.3000000E+03  0.7818608E-02  0.1093470E+00
          1   -1    0    0  502    0  0.00000000000E+00  0.00000000000E+00  0.39969761911E+02  0.39969761911E+02  0.00000000000E+00 0.  1.
         13   -1    0    0    0    0 -0.00000000000E+00 -0.00000000000E+00 -0.10000000000E+04  0.10000000000E+04  0.00000000000E+00 0.  1.
    9000005    2    1    2  501    0  0.20516161464E+02 -0.27209560606E+02 -0.90864681490E+03  0.97831321929E+03  0.36096599249E+03 0.  0.
         13    1    3    3    0    0 -0.15559461790E+02  0.14587638030E+03 -0.64076560252E+03  0.65734509396E+03  0.00000000000E+00 0.  1.
          1    1    3    3  501    0  0.36075623254E+02 -0.17308594090E+03 -0.26788121238E+03  0.32096812533E+03  0.00000000000E+00 0.  1.
         21    1    1    2  502  501 -0.20516161464E+02  0.27209560606E+02 -0.51383423189E+02  0.61656542623E+02  0.00000000000E+00 0. -1.
<mgrwt>
<rscale>  1 0.30000000E+03</rscale>
<asrwt>0</asrwt>
<pdfrwt beam="1">  1        1 0.14534490E+00 0.30000000E+03</pdfrwt>
<pdfrwt beam="2">0</pdfrwt>
<totfact> 0.18978298E+01</totfact>
</mgrwt>
</event>
<event>
 6    1  0.1929825E-004  0.3000000E+03  0.7818608E-02  0.1093470E+00
          1   -1    0    0  502    0  0.00000000000E+00  0.00000000000E+00  0.32997820837E+02  0.32997820837E+02  0.00000000000E+00 0.  1.
         13   -1    0    0    0    0 -0.00000000000E+00 -0.00000000000E+00 -0.10000000000E+04  0.10000000000E+04  0.00000000000E+00 0.  1.
    9000005    2    1    2  501    0 -0.13470503016E+02  0.97696136717E+01 -0.96230832361E+03  0.10157081684E+04  0.32457491243E+03 0.  0.
         13    1    3    3    0    0  0.44684436557E+02  0.58587305643E+02 -0.28791073082E+02  0.79108135752E+02  0.00000000000E+00 0.  1.
          1    1    3    3  501    0 -0.58154939573E+02 -0.48817691971E+02 -0.93351725053E+03  0.93660003261E+03  0.00000000000E+00 0.  1.
         21    1    1    2  502  501  0.13470503016E+02 -0.97696136717E+01 -0.46938555499E+01  0.17289652475E+02  0.00000000000E+00 0.  1.
<mgrwt>
<rscale>  1 0.30000000E+03</rscale>
<asrwt>0</asrwt>
<pdfrwt beam="1">  1        1 0.11999233E+00 0.30000000E+03</pdfrwt>
<pdfrwt beam="2">0</pdfrwt>
<totfact> 0.25998617E+01</totfact>
</mgrwt>
</event>
<event>
 6    1  0.1929825E-004  0.3000000E+03  0.7818608E-02  0.1093470E+00
          1   -1    0    0  502    0  0.00000000000E+00  0.00000000000E+00  0.35113395177E+02  0.35113395177E+02  0.00000000000E+00 0.  1.
         13   -1    0    0    0    0 -0.00000000000E+00 -0.00000000000E+00 -0.10000000000E+04  0.10000000000E+04  0.00000000000E+00 0.  1.
    9000005    2    1    2  501    0 -0.18280454916E+02 -0.25385140350E+02 -0.94237644350E+03  0.99657396413E+03  0.32265728621E+03 0.  0.
         13    1    3    3    0    0  0.13010592670E+03  0.44741855787E+00 -0.69405336186E+03  0.70614291858E+03  0.00000000000E+00 0.  1.
          3    1    3    3  501    0 -0.14838638161E+03 -0.25832558907E+02 -0.24832308163E+03  0.29043104555E+03  0.00000000000E+00 0.  1.
         21    1    1    2  502  501  0.18280454916E+02  0.25385140350E+02 -0.22510161327E+02  0.38539431048E+02  0.00000000000E+00 0. -1.
<mgrwt>
<rscale>  1 0.30000000E+03</rscale>
<asrwt>0</asrwt>
<pdfrwt beam="1">  1        1 0.12768534E+00 0.30000000E+03</pdfrwt>
<pdfrwt beam="2">0</pdfrwt>
<totfact> 0.23556407E+01</totfact>
</mgrwt>
</event>
<event>
 6    1  0.1929825E-004  0.3000000E+03  0.7818608E-02  0.1093470E+00
          1   -1    0    0  502    0  0.00000000000E+00  0.00000000000E+00  0.18848301168E+02  0.18848301168E+02  0.00000000000E+00 0.  1.
         13   -1    0    0    0    0 -0.00000000000E+00 -0.00000000000E+00 -0.10000000000E+04  0.10000000000E+04  0.00000000000E+00 0.  1.
    9000005    2    1    2  501    0  0.17128828177E+02  0.29726876634E+01 -0.91609776813E+03  0.95151147970E+03  0.25658671358E+03 0.  0.
         13    1    3    3    0    0 -0.85219495287E+02  0.88067552900E+02 -0.38770104803E+03  0.40660836058E+03  0.00000000000E+00 0.  1.
          1    1    3    3  501    0  0.10234832346E+03 -0.85094865237E+02 -0.52839672010E+03  0.54490311911E+03  0.00000000000E+00 0.  1.
         21    1    1    2  502  501 -0.17128828177E+02 -0.29726876634E+01 -0.65053930698E+02  0.67336821472E+02  0.00000000000E+00 0.  1.
<mgrwt>
<rscale>  1 0.30000000E+03</rscale>
<asrwt>0</asrwt>
<pdfrwt beam="1">  1        1 0.68539422E-01 0.30000000E+03</pdfrwt>
<pdfrwt beam="2">0</pdfrwt>
<totfact> 0.58018862E+01</totfact>
</mgrwt>
</event>
<event>
 6    1  0.1929825E-004  0.3000000E+03  0.7818608E-02  0.1093470E+00
          1   -1    0    0  502    0  0.00000000000E+00  0.00000000000E+00  0.58080053772E+02  0.58080053772E+02  0.00000000000E+00 0.  1.
         13   -1    0    0    0    0 -0.00000000000E+00 -0.00000000000E+00 -0.10000000000E+04  0.10000000000E+04  0.00000000000E+00 0.  1.
    9000005    2    1    2  501    0  0.15030324477E-01  0.60820229536E+02 -0.94105100359E+03  0.99725361538E+03  0.32440511936E+03 0.  0.
         13    1    3    3    0    0  0.20870995006E+02  0.47185622072E+02  0.41150220366E+01  0.51759199851E+02  0.00000000000E+00 0.  1.
          3    1    3    3  501    0 -0.20855964682E+02  0.13634607464E+02 -0.94516602563E+03  0.94549441552E+03  0.00000000000E+00 0.  1.
         21    1    1    2  502  501 -0.15030324477E-01 -0.60820229536E+02 -0.86894263484E+00  0.60826438396E+02  0.00000000000E+00 0.  1.
<mgrwt>
<rscale>  1 0.30000000E+03</rscale>
<asrwt>0</asrwt>
<pdfrwt beam="1">  1        1 0.21120064E+00 0.30000000E+03</pdfrwt>
<pdfrwt beam="2">0</pdfrwt>
<totfact> 0.90664641E+00</totfact>
</mgrwt>
</event>
<event>
 6    1  0.1929825E-004  0.3000000E+03  0.7818608E-02  0.1093470E+00
          1   -1    0    0  502    0  0.00000000000E+00  0.00000000000E+00  0.32898176630E+02  0.32898176630E+02  0.00000000000E+00 0.  1.
         13   -1    0    0    0    0 -0.00000000000E+00 -0.00000000000E+00 -0.10000000000E+04  0.10000000000E+04  0.00000000000E+00 0.  1.
    9000005    2    1    2  501    0 -0.66896871121E+00 -0.28119654468E+02 -0.92895646699E+03  0.98550376029E+03  0.32782065448E+03 0.  0.
         13    1    3    3    0    0 -0.12553093692E+01 -0.17815503294E+03 -0.53891109348E+03  0.56759665101E+03  0.00000000000E+00 0.  1.
          3    1    3    3  501    0  0.58634065801E+00  0.15003537848E+03 -0.39004537351E+03  0.41790710928E+03  0.00000000000E+00 0.  1.
         21    1    1    2  502  501  0.66896871121E+00  0.28119654468E+02 -0.38145356383E+02  0.47394416339E+02  0.00000000000E+00 0. -1.
<mgrwt>
<rscale>  1 0.30000000E+03</rscale>
<asrwt>0</asrwt>
<pdfrwt beam="1">  1        1 0.11962999E+00 0.30000000E+03</pdfrwt>
<pdfrwt beam="2">0</pdfrwt>
<totfact> 0.26121658E+01</totfact>
</mgrwt>
</event>
<event>
 6    1  0.1929825E-004  0.3000000E+03  0.7818608E-02  0.1093470E+00
          1   -1    0    0  502    0  0.00000000000E+00  0.00000000000E+00  0.27201252823E+02  0.27201252823E+02  0.00000000000E+00 0.  1.
         13   -1    0    0    0    0 -0.00000000000E+00 -0.00000000000E+00 -0.10000000000E+04  0.10000000000E+04  0.00000000000E+00 0.  1.
    9000005    2    1    2  501    0  0.18466730969E+02 -0.16327029784E+01 -0.93933155546E+03  0.98894241341E+03  0.30873878942E+03 0.  0.
         13    1    3    3    0    0  0.14385129637E+03  0.46037319979E+02 -0.68445751849E+03  0.70092419341E+03  0.00000000000E+00 0.  1.
          1    1    3    3  501    0 -0.12538456540E+03 -0.47670022957E+02 -0.25487403697E+03  0.28801821999E+03  0.00000000000E+00 0.  1.
         21    1    1    2  502  501 -0.18466730969E+02  0.16327029784E+01 -0.33467191720E+02  0.38258839415E+02  0.00000000000E+00 0.  1.
<mgrwt>
<rscale>  1 0.30000000E+03</rscale>
<asrwt>0</asrwt>
<pdfrwt beam="1">  1        1 0.98913855E-01 0.30000000E+03</pdfrwt>
<pdfrwt beam="2">0</pdfrwt>
<totfact> 0.34776922E+01</totfact>
</mgrwt>
</event>
<event>
 6    1  0.1929825E-004  0.3000000E+03  0.7818608E-02  0.1093470E+00
          1   -1    0    0  502    0  0.00000000000E+00  0.00000000000E+00  0.46260083676E+02  0.46260083676E+02  0.00000000000E+00 0.  1.
         13   -1    0    0    0    0 -0.00000000000E+00 -0.00000000000E+00 -0.10000000000E+04  0.10000000000E+04  0.00000000000E+00 0.  1.
    9000005    2    1    2  501    0 -0.17486530043E+01 -0.99521543052E+01 -0.97151701947E+03  0.10258118916E+04  0.32915439339E+03 0.  0.
         13    1    3    3    0    0  0.59316259925E+02  0.78947490696E+02 -0.78076273332E+02  0.12588498495E+03  0.00000000000E+00 0.  1.
          1    1    3    3  501    0 -0.61064912929E+02 -0.88899645001E+02 -0.89344074614E+03  0.89992690666E+03  0.00000000000E+00 0.  1.
         21    1    1    2  502  501  0.17486530043E+01  0.99521543052E+01  0.17777103143E+02  0.20448192067E+02  0.00000000000E+00 0.  1.
<mgrwt>
<rscale>  1 0.30000000E+03</rscale>
<asrwt>0</asrwt>
<pdfrwt beam="1">  1        1 0.16821884E+00 0.30000000E+03</pdfrwt>
<pdfrwt beam="2">0</pdfrwt>
<totfact> 0.14576837E+01</totfact>
</mgrwt>
</event>
<event>
 6    1  0.1929825E-004  0.3000000E+03  0.7818608E-02  0.1093470E+00
          1   -1    0    0  502    0  0.00000000000E+00  0.00000000000E+00  0.32136828692E+02  0.32136828692E+02  0.00000000000E+00 0.  1.
         13   -1    0    0    0    0 -0.00000000000E+00 -0.00000000000E+00 -0.10000000000E+04  0.10000000000E+04  0.00000000000E+00 0.  1.
    9000005    2    1    2  501    0 -0.13729456718E+02 -0.17909903429E+01 -0.95958349616E+03  0.10160042948E+04  0.33357538186E+03 0.  0.
         13    1    3    3    0    0  0.23416034949E+02 -0.15685002381E+03 -0.63317854761E+03  0.65273678754E+03  0.00000000000E+00 0.  1.
          3    1    3    3  501    0 -0.37145491667E+02  0.15505903347E+03 -0.32640494856E+03  0.36326750729E+03  0.00000000000E+00 0.  1.
         21    1    1    2  502  501  0.13729456718E+02  0.17909903429E+01 -0.82796751457E+01  0.16132533859E+02  0.00000000000E+00 0.  1.
<mgrwt>
<rscale>  1 0.30000000E+03</rscale>
<asrwt>0</asrwt>
<pdfrwt beam="1">  1        1 0.11686144E+00 0.30000000E+03</pdfrwt>
<pdfrwt beam="2">0</pdfrwt>
<totfact> 0.27088327E+01</totfact>
</mgrwt>
</event>
<event>
 6    1  0.1929825E-004  0.3000000E+03  0.7818608E-02  0.1093470E+00
          1   -1    0    0  502    0  0.00000000000E+00  0.00000000000E+00  0.43958343089E+02  0.43958343089E+02  0.00000000000E+00 0.  1.
         13   -1    0    0    0    0 -0.00000000000E+00 -0.00000000000E+00 -0.10000000000E+04  0.10000000000E+04  0.00000000000E+00 0.  1.
    9000005    2    1    2  501    0  0.10722062934E+01 -0.39604114958E+02 -0.94516310224E+03  0.10028733276E+04  0.33294441845E+03 0.  0.
         13    1    3    3    0    0 -0.11487607438E+03 -0.97437706470E+02 -0.77222758964E+03  0.78678209773E+03  0.00000000000E+00 0.  1.
          1    1    3    3  501    0  0.11594828067E+03  0.57833591512E+02 -0.17293551260E+03  0.21609122984E+03  0.00000000000E+00 0.  1.
         21    1    1    2  502  501 -0.10722062934E+01  0.39604114958E+02 -0.10878554669E+02  0.41085015512E+02  0.00000000000E+00 0.  1.
<mgrwt>
<rscale>  1 0.30000000E+03</rscale>
<asrwt>0</asrwt>
<pdfrwt beam="1">  1        1 0.15984886E+00 0.30000000E+03</pdfrwt>
<pdfrwt beam="2">0</pdfrwt>
<totfact> 0.16030741E+01</totfact>
</mgrwt>
</event>
<event>
 6    1  0.1929825E-004  0.3000000E+03  0.7818608E-02  0.1093470E+00
          3   -1    0    0  502    0  0.00000000000E+00  0.00000000000E+00  0.26250656227E+02  0.26250656227E+02  0.00000000000E+00 0.  1.
         13   -1    0    0    0    0 -0.00000000000E+00 -0.00000000000E+00 -0.10000000000E+04  0.10000000000E+04  0.00000000000E+00 0.  1.
    9000005    2    1    2  501    0  0.21345665230E+02 -0.19161574209E+02 -0.91871135938E+03  0.96418630997E+03  0.29120761516E+03 0.  0.
         13    1    3    3    0    0 -0.50699255460E+02 -0.31250054937E+02 -0.87904415158E+03  0.88105936285E+03  0.00000000000E+00 0.  1.
          1    1    3    3  501    0  0.72044920690E+02  0.12088480728E+02 -0.39667207808E+02  0.83126947128E+02  0.00000000000E+00 0.  1.
         21    1    1    2  502  501 -0.21345665230E+02  0.19161574209E+02 -0.55037984389E+02  0.62064346254E+02  0.00000000000E+00 0. -1.
<mgrwt>
<rscale>  1 0.30000000E+03</rscale>
<asrwt>0</asrwt>
<pdfrwt beam="1">  1        3 0.95457133E-01 0.30000000E+03</pdfrwt>
<pdfrwt beam="2">0</pdfrwt>
<totfact> 0.44139766E+00</totfact>
</mgrwt>
</event>
<event>
 6    1  0.1929825E-004  0.3000000E+03  0.7818608E-02  0.1093470E+00
          1   -1    0    0  502    0  0.00000000000E+00  0.00000000000E+00  0.28977852814E+02  0.28977852814E+02  0.00000000000E+00 0.  1.
         13   -1    0    0    0    0 -0.00000000000E+00 -0.00000000000E+00 -0.10000000000E+04  0.10000000000E+04  0.00000000000E+00 0.  1.
    9000005    2    1    2  501    0  0.22588277186E+01 -0.10330987797E+02 -0.96369254512E+03  0.10161110475E+04  0.32197283705E+03 0.  0.
         13    1    3    3    0    0 -0.14408981571E+02  0.15397168090E+03 -0.52755485398E+03  0.54975360046E+03  0.00000000000E+00 0.  1.
          3    1    3    3  501    0  0.16667809289E+02 -0.16430266869E+03 -0.43613769115E+03  0.46635744708E+03  0.00000000000E+00 0.  1.
         21    1    1    2  502  501 -0.22588277186E+01  0.10330987797E+02 -0.73296020620E+01  0.12866805272E+02  0.00000000000E+00 0.  1.
<mgrwt>
<rscale>  1 0.30000000E+03</rscale>
<asrwt>0</asrwt>
<pdfrwt beam="1">  1        1 0.10537423E+00 0.30000000E+03</pdfrwt>
<pdfrwt beam="2">0</pdfrwt>
<totfact> 0.31684758E+01</totfact>
</mgrwt>
</event>
<event>
 6    1  0.1929825E-004  0.3000000E+03  0.7818608E-02  0.1093470E+00
          1   -1    0    0  502    0  0.00000000000E+00  0.00000000000E+00  0.54280297908E+02  0.54280297908E+02  0.00000000000E+00 0.  1.
         13   -1    0    0    0    0 -0.00000000000E+00 -0.00000000000E+00 -0.10000000000E+04  0.10000000000E+04  0.00000000000E+00 0.  1.
    9000005    2    1    2  501    0 -0.12432858879E+02  0.27587031481E+02 -0.95043744974E+03  0.10236555134E+04  0.37897710204E+03 0.  0.
         13    1    3    3    0    0 -0.17083384412E+03 -0.16180419424E+02 -0.24363629093E+03  0.29800109149E+03  0.00000000000E+00 0.  1.
          3    1    3    3  501    0  0.15840098524E+03  0.43767450905E+02 -0.70680115881E+03  0.72565442187E+03  0.00000000000E+00 0.  1.
         21    1    1    2  502  501  0.12432858879E+02 -0.27587031481E+02  0.47177476496E+01  0.30624784550E+02  0.00000000000E+00 0. -1.
<mgrwt>
<rscale>  1 0.30000000E+03</rscale>
<asrwt>0</asrwt>
<pdfrwt beam="1">  1        1 0.19738332E+00 0.30000000E+03</pdfrwt>
<pdfrwt beam="2">0</pdfrwt>
<totfact> 0.10541260E+01</totfact>
</mgrwt>
</event>
<event>
 6    1  0.1929825E-004  0.3000000E+03  0.7818608E-02  0.1093470E+00
          1   -1    0    0  502    0  0.00000000000E+00  0.00000000000E+00  0.32284308157E+02  0.32284308157E+02  0.00000000000E+00 0.  1.
         13   -1    0    0    0    0 -0.00000000000E+00 -0.00000000000E+00 -0.10000000000E+04  0.10000000000E+04  0.00000000000E+00 0.  1.
    9000005    2    1    2  501    0  0.36285945643E+02 -0.16121437396E+02 -0.93713405316E+03  0.98216637504E+03  0.29129707188E+03 0.  0.
         13    1    3    3    0    0 -0.11401936046E+03 -0.44851713221E+01 -0.20448585333E+03  0.23416873304E+03  0.00000000000E+00 0.  1.
          3    1    3    3  501    0  0.15030530611E+03 -0.11636266074E+02 -0.73264819982E+03  0.74799764200E+03  0.00000000000E+00 0.  1.
         21    1    1    2  502  501 -0.36285945643E+02  0.16121437396E+02 -0.30581638687E+02  0.50117933114E+02  0.00000000000E+00 0.  1.
<mgrwt>
<rscale>  1 0.30000000E+03</rscale>
<asrwt>0</asrwt>
<pdfrwt beam="1">  1        1 0.11739773E+00 0.30000000E+03</pdfrwt>
<pdfrwt beam="2">0</pdfrwt>
<totfact> 0.26897305E+01</totfact>
</mgrwt>
</event>
<event>
 6    1  0.1929825E-004  0.3000000E+03  0.7818608E-02  0.1093470E+00
          3   -1    0    0  502    0  0.00000000000E+00  0.00000000000E+00  0.33942722989E+02  0.33942722989E+02  0.00000000000E+00 0.  1.
         13   -1    0    0    0    0 -0.00000000000E+00 -0.00000000000E+00 -0.10000000000E+04  0.10000000000E+04  0.00000000000E+00 0.  1.
    9000005    2    1    2  501    0 -0.78532996965E+01  0.21859679909E+02 -0.94776348320E+03  0.10043761403E+04  0.33162673464E+03 0.  0.
         13    1    3    3    0    0 -0.80488933437E+01  0.88479815020E+02 -0.93159478538E+03  0.93582172795E+03  0.00000000000E+00 0.  1.
          3    1    3    3  501    0  0.19559364720E+00 -0.66620135111E+02 -0.16168697816E+02  0.68554412317E+02  0.00000000000E+00 0.  1.
         21    1    1    2  502  501  0.78532996965E+01 -0.21859679909E+02 -0.18293793811E+02  0.29566582722E+02  0.00000000000E+00 0.  1.
<mgrwt>
<rscale>  1 0.30000000E+03</rscale>
<asrwt>0</asrwt>
<pdfrwt beam="1">  1        3 0.12342834E+00 0.30000000E+03</pdfrwt>
<pdfrwt beam="2">0</pdfrwt>
<totfact> 0.21103951E+00</totfact>
</mgrwt>
</event>
<event>
 6    1  0.1929825E-004  0.3000000E+03  0.7818608E-02  0.1093470E+00
          1   -1    0    0  502    0  0.00000000000E+00  0.00000000000E+00  0.33048817333E+02  0.33048817333E+02  0.00000000000E+00 0.  1.
         13   -1    0    0    0    0 -0.00000000000E+00 -0.00000000000E+00 -0.10000000000E+04  0.10000000000E+04  0.00000000000E+00 0.  1.
    9000005    2    1    2  501    0  0.31203924681E+02 -0.96702976173E+01 -0.79445659117E+03  0.85748804817E+03  0.32102535404E+03 0.  0.
         13    1    3    3    0    0  0.12716290931E+03 -0.22753396627E+02 -0.12066354076E+03  0.17677050838E+03  0.00000000000E+00 0.  1.
          3    1    3    3  501    0 -0.95958984630E+02  0.13083099010E+02 -0.67379305041E+03  0.68071753980E+03  0.00000000000E+00 0.  1.
         21    1    1    2  502  501 -0.31203924681E+02  0.96702976173E+01 -0.17249459150E+03  0.17556076916E+03  0.00000000000E+00 0. -1.
<mgrwt>
<rscale>  1 0.30000000E+03</rscale>
<asrwt>0</asrwt>
<pdfrwt beam="1">  1        1 0.12017777E+00 0.30000000E+03</pdfrwt>
<pdfrwt beam="2">0</pdfrwt>
<totfact> 0.25935948E+01</totfact>
</mgrwt>
</event>
<event>
 6    1  0.1929825E-004  0.3000000E+03  0.7818608E-02  0.1093470E+00
          1   -1    0    0  502    0  0.00000000000E+00  0.00000000000E+00  0.46243455537E+02  0.46243455537E+02  0.00000000000E+00 0.  1.
         13   -1    0    0    0    0 -0.00000000000E+00 -0.00000000000E+00 -0.10000000000E+04  0.10000000000E+04  0.00000000000E+00 0.  1.
    9000005    2    1    2  501    0 -0.12239349500E+01  0.48895528370E+02 -0.93404938708E+03  0.99351165523E+03  0.33499982218E+03 0.  0.
         13    1    3    3    0    0 -0.14395551594E+03  0.44978828898E+02 -0.72389923469E+03  0.73944329573E+03  0.00000000000E+00 0.  1.
          1    1    3    3  501    0  0.14273158099E+03  0.39166994721E+01 -0.21015015240E+03  0.25406835950E+03  0.00000000000E+00 0.  1.
         21    1    1    2  502  501  0.12239349500E+01 -0.48895528370E+02 -0.19707157378E+02  0.52731800304E+02  0.00000000000E+00 0.  1.
<mgrwt>
<rscale>  1 0.30000000E+03</rscale>
<asrwt>0</asrwt>
<pdfrwt beam="1">  1        1 0.16815837E+00 0.30000000E+03</pdfrwt>
<pdfrwt beam="2">0</pdfrwt>
<totfact> 0.14586785E+01</totfact>
</mgrwt>
</event>
<event>
 6    1  0.1929825E-004  0.3000000E+03  0.7818608E-02  0.1093470E+00
          1   -1    0    0  502    0  0.00000000000E+00  0.00000000000E+00  0.29600552870E+02  0.29600552870E+02  0.00000000000E+00 0.  1.
         13   -1    0    0    0    0 -0.00000000000E+00 -0.00000000000E+00 -0.10000000000E+04  0.10000000000E+04  0.00000000000E+00 0.  1.
    9000005    2    1    2  501    0  0.92690605949E+01 -0.40544797871E+01 -0.95109811536E+03  0.10078084511E+04  0.33314845762E+03 0.  0.
         13    1    3    3    0    0  0.12589291552E+03 -0.11181946519E+03 -0.39283048120E+03  0.42739724605E+03  0.00000000000E+00 0.  1.
          3    1    3    3  501    0 -0.11662385493E+03  0.10776498540E+03 -0.55826763416E+03  0.58041120506E+03  0.00000000000E+00 0.  1.
         21    1    1    2  502  501 -0.92690605949E+01  0.40544797871E+01 -0.19301331774E+02  0.21792101755E+02  0.00000000000E+00 0.  1.
<mgrwt>
<rscale>  1 0.30000000E+03</rscale>
<asrwt>0</asrwt>
<pdfrwt beam="1">  1        1 0.10763860E+00 0.30000000E+03</pdfrwt>
<pdfrwt beam="2">0</pdfrwt>
<totfact> 0.30695156E+01</totfact>
</mgrwt>
</event>
<event>
 6    1  0.1929825E-004  0.3000000E+03  0.7818608E-02  0.1093470E+00
          3   -1    0    0  502    0  0.00000000000E+00  0.00000000000E+00  0.39443535154E+02  0.39443535154E+02  0.00000000000E+00 0.  1.
         13   -1    0    0    0    0 -0.00000000000E+00 -0.00000000000E+00 -0.10000000000E+04  0.10000000000E+04  0.00000000000E+00 0.  1.
    9000005    2    1    2  501    0  0.33089750727E+02 -0.18372411925E+02 -0.94740651397E+03  0.99937611284E+03  0.31581804108E+03 0.  0.
         13    1    3    3    0    0 -0.12503958597E+03 -0.26954009192E+01 -0.20488569708E+03  0.24004231317E+03  0.00000000000E+00 0.  1.
          3    1    3    3  501    0  0.15812933669E+03 -0.15677011006E+02 -0.74252081689E+03  0.75933379967E+03  0.00000000000E+00 0.  1.
         21    1    1    2  502  501 -0.33089750727E+02  0.18372411925E+02 -0.13149950873E+02  0.40067422316E+02  0.00000000000E+00 0.  1.
<mgrwt>
<rscale>  1 0.30000000E+03</rscale>
<asrwt>0</asrwt>
<pdfrwt beam="1">  1        3 0.14343134E+00 0.30000000E+03</pdfrwt>
<pdfrwt beam="2">0</pdfrwt>
<totfact> 0.12108119E+00</totfact>
</mgrwt>
</event>
<event>
 6    1  0.1929825E-004  0.3000000E+03  0.7818608E-02  0.1093470E+00
          1   -1    0    0  502    0  0.00000000000E+00  0.00000000000E+00  0.69919380490E+02  0.69919380490E+02  0.00000000000E+00 0.  1.
         13   -1    0    0    0    0 -0.00000000000E+00 -0.00000000000E+00 -0.10000000000E+04  0.10000000000E+04  0.00000000000E+00 0.  1.
    9000005    2    1    2  501    0  0.19502598744E+02 -0.47250923029E+01 -0.97168230520E+03  0.10237308743E+04  0.32164533702E+03 0.  0.
         13    1    3    3    0    0  0.49511272101E+02  0.14214849006E+03 -0.67192684420E+03  0.68858060040E+03  0.00000000000E+00 0.  1.
          3    1    3    3  501    0 -0.30008673357E+02 -0.14687358236E+03 -0.29975546100E+03  0.33515027387E+03  0.00000000000E+00 0.  1.
         21    1    1    2  502  501 -0.19502598744E+02  0.47250923029E+01  0.41601685690E+02  0.46188506225E+02  0.00000000000E+00 0.  1.
<mgrwt>
<rscale>  1 0.30000000E+03</rscale>
<asrwt>0</asrwt>
<pdfrwt beam="1">  1        1 0.25425283E+00 0.30000000E+03</pdfrwt>
<pdfrwt beam="2">0</pdfrwt>
<totfact> 0.57001433E+00</totfact>
</mgrwt>
</event>
<event>
 6    1  0.1929825E-004  0.3000000E+03  0.7818608E-02  0.1093470E+00
          1   -1    0    0  502    0  0.00000000000E+00  0.00000000000E+00  0.35285531961E+02  0.35285531961E+02  0.00000000000E+00 0.  1.
         13   -1    0    0    0    0 -0.00000000000E+00 -0.00000000000E+00 -0.10000000000E+04  0.10000000000E+04  0.00000000000E+00 0.  1.
    9000005    2    1    2  501    0 -0.17494398430E+02  0.17389005502E+02 -0.96998560229E+03  0.10100622026E+04  0.28061566767E+03 0.  0.
         13    1    3    3    0    0 -0.13916823621E+03 -0.81605921723E+00 -0.69518550332E+03  0.70897908851E+03  0.00000000000E+00 0.  1.
          1    1    3    3  501    0  0.12167383778E+03  0.18205064720E+02 -0.27480009898E+03  0.30108311407E+03  0.00000000000E+00 0.  1.
         21    1    1    2  502  501  0.17494398430E+02 -0.17389005502E+02  0.52711342519E+01  0.25223329382E+02  0.00000000000E+00 0.  1.
<mgrwt>
<rscale>  1 0.30000000E+03</rscale>
<asrwt>0</asrwt>
<pdfrwt beam="1">  1        1 0.12831130E+00 0.30000000E+03</pdfrwt>
<pdfrwt beam="2">0</pdfrwt>
<totfact> 0.23370906E+01</totfact>
</mgrwt>
</event>
<event>
 6    1  0.1929825E-004  0.3000000E+03  0.7818608E-02  0.1093470E+00
          3   -1    0    0  502    0  0.00000000000E+00  0.00000000000E+00  0.36085894168E+02  0.36085894168E+02  0.00000000000E+00 0.  1.
         13   -1    0    0    0    0 -0.00000000000E+00 -0.00000000000E+00 -0.10000000000E+04  0.10000000000E+04  0.00000000000E+00 0.  1.
    9000005    2    1    2  501    0  0.25715627206E+02 -0.78799390338E+01 -0.95616579570E+03  0.10080961955E+04  0.31824758222E+03 0.  0.
         13    1    3    3    0    0 -0.96509617813E+02 -0.31317206299E+02 -0.98374174973E+02  0.14132357214E+03  0.00000000000E+00 0.  1.
          3    1    3    3  501    0  0.12222524502E+03  0.23437267265E+02 -0.85779162072E+03  0.86677262336E+03  0.00000000000E+00 0.  1.
         21    1    1    2  502  501 -0.25715627206E+02  0.78799390338E+01 -0.77483101357E+01  0.27989698672E+02  0.00000000000E+00 0.  1.
<mgrwt>
<rscale>  1 0.30000000E+03</rscale>
<asrwt>0</asrwt>
<pdfrwt beam="1">  1        3 0.13122171E+00 0.30000000E+03</pdfrwt>
<pdfrwt beam="2">0</pdfrwt>
<totfact> 0.17118866E+00</totfact>
</mgrwt>
</event>
<event>
 6    1  0.1929825E-004  0.3000000E+03  0.7818608E-02  0.1093470E+00
          1   -1    0    0  502    0  0.00000000000E+00  0.00000000000E+00  0.32705263756E+02  0.32705263756E+02  0.00000000000E+00 0.  1.
         13   -1    0    0    0    0 -0.00000000000E+00 -0.00000000000E+00 -0.10000000000E+04  0.10000000000E+04  0.00000000000E+00 0.  1.
    9000005    2    1    2  501    0 -0.24953403089E+02  0.52403451882E+01 -0.92857348547E+03  0.98634289965E+03  0.33162247246E+03 0.  0.
         13    1    3    3    0    0 -0.15053255113E+03  0.94887678246E+02 -0.47425991780E+03  0.50654337432E+03  0.00000000000E+00 0.  1.
          1    1    3    3  501    0  0.12557914804E+03 -0.89647333058E+02 -0.45431356766E+03  0.47979952533E+03  0.00000000000E+00 0.  1.
         21    1    1    2  502  501  0.24953403089E+02 -0.52403451882E+01 -0.38721250777E+02  0.46362364102E+02  0.00000000000E+00 0. -1.
<mgrwt>
<rscale>  1 0.30000000E+03</rscale>
<asrwt>0</asrwt>
<pdfrwt beam="1">  1        1 0.11892848E+00 0.30000000E+03</pdfrwt>
<pdfrwt beam="2">0</pdfrwt>
<totfact> 0.26362102E+01</totfact>
</mgrwt>
</event>
<event>
 6    1  0.1929825E-004  0.3000000E+03  0.7818608E-02  0.1093470E+00
          3   -1    0    0  502    0  0.00000000000E+00  0.00000000000E+00  0.38889906075E+02  0.38889906075E+02  0.00000000000E+00 0.  1.
         13   -1    0    0    0    0 -0.00000000000E+00 -0.00000000000E+00 -0.10000000000E+04  0.10000000000E+04  0.00000000000E+00 0.  1.
    9000005    2    1    2  501    0 -0.13787881621E+02  0.15338831760E+02 -0.96072244303E+03  0.10182613891E+04  0.33681338832E+03 0.  0.
         13    1    3    3    0    0  0.37841247534E+02  0.15294181799E+03 -0.71319009562E+03  0.73038570098E+03  0.00000000000E+00 0.  1.
          3    1    3    3  501    0 -0.51629129155E+02 -0.13760298623E+03 -0.24753234740E+03  0.28787568812E+03  0.00000000000E+00 0.  1.
         21    1    1    2  502  501  0.13787881621E+02 -0.15338831760E+02 -0.38765089648E+00  0.20628516975E+02  0.00000000000E+00 0.  1.
<mgrwt>
<rscale>  1 0.30000000E+03</rscale>
<asrwt>0</asrwt>
<pdfrwt beam="1">  1        3 0.14141814E+00 0.30000000E+03</pdfrwt>
<pdfrwt beam="2">0</pdfrwt>
<totfact> 0.12850534E+00</totfact>
</mgrwt>
</event>
<event>
 6    1  0.1929825E-004  0.3000000E+03  0.7818608E-02  0.1093470E+00
          1   -1    0    0  502    0  0.00000000000E+00  0.00000000000E+00  0.32063675405E+02  0.32063675405E+02  0.00000000000E+00 0.  1.
         13   -1    0    0    0    0 -0.00000000000E+00 -0.00000000000E+00 -0.10000000000E+04  0.10000000000E+04  0.00000000000E+00 0.  1.
    9000005    2    1    2  501    0  0.32010795771E+02  0.87195727255E+01 -0.90647028105E+03  0.96221529315E+03  0.32104388789E+03 0.  0.
         13    1    3    3    0    0  0.14569865115E+03  0.99681994711E+02 -0.46693539392E+03  0.49919260723E+03  0.00000000000E+00 0.  1.
          3    1    3    3  501    0 -0.11368785538E+03 -0.90962421986E+02 -0.43953488713E+03  0.46302268592E+03  0.00000000000E+00 0.  1.
         21    1    1    2  502  501 -0.32010795771E+02 -0.87195727255E+01 -0.61466043546E+02  0.69848382255E+02  0.00000000000E+00 0. -1.
<mgrwt>
<rscale>  1 0.30000000E+03</rscale>
<asrwt>0</asrwt>
<pdfrwt beam="1">  1        1 0.11659543E+00 0.30000000E+03</pdfrwt>
<pdfrwt beam="2">0</pdfrwt>
<totfact> 0.27183773E+01</totfact>
</mgrwt>
</event>
<event>
 6    1  0.1929825E-004  0.3000000E+03  0.7818608E-02  0.1093470E+00
          1   -1    0    0  502    0  0.00000000000E+00  0.00000000000E+00  0.84754832509E+02  0.84754832509E+02  0.00000000000E+00 0.  1.
         13   -1    0    0    0    0 -0.00000000000E+00 -0.00000000000E+00 -0.10000000000E+04  0.10000000000E+04  0.00000000000E+00 0.  1.
    9000005    2    1    2  501    0 -0.25249882576E+02 -0.84875579471E+02 -0.94521255936E+03  0.99126972601E+03  0.28521477307E+03 0.  0.
         13    1    3    3    0    0 -0.15575660524E+03 -0.43651712406E+02 -0.51832834145E+03  0.54298237690E+03  0.00000000000E+00 0.  1.
          3    1    3    3  501    0  0.13050672266E+03 -0.41223867065E+02 -0.42688421791E+03  0.44828734912E+03  0.00000000000E+00 0.  1.
         21    1    1    2  502  501  0.25249882576E+02  0.84875579471E+02  0.29967391870E+02  0.93485106494E+02  0.00000000000E+00 0.  1.
<mgrwt>
<rscale>  1 0.30000000E+03</rscale>
<asrwt>0</asrwt>
<pdfrwt beam="1">  1        1 0.30820004E+00 0.30000000E+03</pdfrwt>
<pdfrwt beam="2">0</pdfrwt>
<totfact> 0.31753717E+00</totfact>
</mgrwt>
</event>
<event>
 6    1  0.1929825E-004  0.3000000E+03  0.7818608E-02  0.1093470E+00
          1   -1    0    0  502    0  0.00000000000E+00  0.00000000000E+00  0.31616196164E+02  0.31616196164E+02  0.00000000000E+00 0.  1.
         13   -1    0    0    0    0 -0.00000000000E+00 -0.00000000000E+00 -0.10000000000E+04  0.10000000000E+04  0.00000000000E+00 0.  1.
    9000005    2    1    2  501    0  0.38342761696E+01 -0.14199121294E+02 -0.96142662198E+03  0.10153460057E+04  0.32614420900E+03 0.  0.
         13    1    3    3    0    0  0.62189373924E+02  0.10304497152E+03 -0.14482099284E+03  0.18830534870E+03  0.00000000000E+00 0.  1.
          3    1    3    3  501    0 -0.58355097755E+02 -0.11724409281E+03 -0.81660562914E+03  0.82704065697E+03  0.00000000000E+00 0.  1.
         21    1    1    2  502  501 -0.38342761696E+01  0.14199121294E+02 -0.69571818573E+01  0.16270190493E+02  0.00000000000E+00 0. -1.
<mgrwt>
<rscale>  1 0.30000000E+03</rscale>
<asrwt>0</asrwt>
<pdfrwt beam="1">  1        1 0.11496823E+00 0.30000000E+03</pdfrwt>
<pdfrwt beam="2">0</pdfrwt>
<totfact> 0.27777902E+01</totfact>
</mgrwt>
</event>
<event>
 6    1  0.1929825E-004  0.3000000E+03  0.7818608E-02  0.1093470E+00
          1   -1    0    0  502    0  0.00000000000E+00  0.00000000000E+00  0.33736077285E+02  0.33736077285E+02  0.00000000000E+00 0.  1.
         13   -1    0    0    0    0 -0.00000000000E+00 -0.00000000000E+00 -0.10000000000E+04  0.10000000000E+04  0.00000000000E+00 0.  1.
    9000005    2    1    2  501    0 -0.49737854814E+01 -0.10286338146E+02 -0.95510414393E+03  0.10177646041E+04  0.35141188970E+03 0.  0.
         13    1    3    3    0    0  0.17089344875E+03  0.22160115167E+01 -0.39025215774E+03  0.42603547758E+03  0.00000000000E+00 0.  1.
          3    1    3    3  501    0 -0.17586723423E+03 -0.12502349663E+02 -0.56485198619E+03  0.59172912648E+03  0.00000000000E+00 0.  1.
         21    1    1    2  502  501  0.49737854814E+01  0.10286338146E+02 -0.11159778782E+02  0.15971473224E+02  0.00000000000E+00 0.  1.
<mgrwt>
<rscale>  1 0.30000000E+03</rscale>
<asrwt>0</asrwt>
<pdfrwt beam="1">  1        1 0.12267690E+00 0.30000000E+03</pdfrwt>
<pdfrwt beam="2">0</pdfrwt>
<totfact> 0.25110615E+01</totfact>
</mgrwt>
</event>
<event>
 6    1  0.1929825E-004  0.3000000E+03  0.7818608E-02  0.1093470E+00
          1   -1    0    0  502    0  0.00000000000E+00  0.00000000000E+00  0.37776622938E+02  0.37776622938E+02  0.00000000000E+00 0.  1.
         13   -1    0    0    0    0 -0.00000000000E+00 -0.00000000000E+00 -0.10000000000E+04  0.10000000000E+04  0.00000000000E+00 0.  1.
    9000005    2    1    2  501    0 -0.35759408947E+02 -0.32918323024E+02 -0.89893005610E+03  0.95797439366E+03  0.32753219969E+03 0.  0.
         13    1    3    3    0    0 -0.90675701493E+02  0.10789947393E+03 -0.66274747460E+03  0.67756814742E+03  0.00000000000E+00 0.  1.
          1    1    3    3  501    0  0.54916292546E+02 -0.14081779695E+03 -0.23618258150E+03  0.28040624624E+03  0.00000000000E+00 0.  1.
         21    1    1    2  502  501  0.35759408947E+02  0.32918323024E+02 -0.63293320960E+02  0.79802229274E+02  0.00000000000E+00 0.  1.
<mgrwt>
<rscale>  1 0.30000000E+03</rscale>
<asrwt>0</asrwt>
<pdfrwt beam="1">  1        1 0.13736983E+00 0.30000000E+03</pdfrwt>
<pdfrwt beam="2">0</pdfrwt>
<totfact> 0.20887982E+01</totfact>
</mgrwt>
</event>
<event>
 6    1  0.1929825E-004  0.3000000E+03  0.7818608E-02  0.1093470E+00
          1   -1    0    0  502    0  0.00000000000E+00  0.00000000000E+00  0.29316648211E+02  0.29316648211E+02  0.00000000000E+00 0.  1.
         13   -1    0    0    0    0 -0.00000000000E+00 -0.00000000000E+00 -0.10000000000E+04  0.10000000000E+04  0.00000000000E+00 0.  1.
    9000005    2    1    2  501    0 -0.51358008924E+01  0.14776707014E+02 -0.93696857665E+03  0.99214927564E+03  0.32589161389E+03 0.  0.
         13    1    3    3    0    0  0.42259127866E+02  0.13977042511E+03 -0.73891072525E+03  0.75320028247E+03  0.00000000000E+00 0.  1.
          3    1    3    3  501    0 -0.47394928758E+02 -0.12499371810E+03 -0.19805785140E+03  0.23894899317E+03  0.00000000000E+00 0.  1.
         21    1    1    2  502  501  0.51358008924E+01 -0.14776707014E+02 -0.33714775140E+02  0.37167372570E+02  0.00000000000E+00 0. -1.
<mgrwt>
<rscale>  1 0.30000000E+03</rscale>
<asrwt>0</asrwt>
<pdfrwt beam="1">  1        1 0.10660622E+00 0.30000000E+03</pdfrwt>
<pdfrwt beam="2">0</pdfrwt>
<totfact> 0.31140743E+01</totfact>
</mgrwt>
</event>
<event>
 6    1  0.1929825E-004  0.3000000E+03  0.7818608E-02  0.1093470E+00
          1   -1    0    0  502    0  0.00000000000E+00  0.00000000000E+00  0.74421288888E+02  0.74421288888E+02  0.00000000000E+00 0.  1.
         13   -1    0    0    0    0 -0.00000000000E+00 -0.00000000000E+00 -0.10000000000E+04  0.10000000000E+04  0.00000000000E+00 0.  1.
    9000005    2    1    2  501    0 -0.50280561868E+01  0.28564807991E+02 -0.96857691874E+03  0.10225553515E+04  0.32655316524E+03 0.  0.
         13    1    3    3    0    0 -0.13062499146E+03  0.10898578654E+03 -0.39849986466E+03  0.43329312502E+03  0.00000000000E+00 0.  1.
          1    1    3    3  501    0  0.12559693527E+03 -0.80420978550E+02 -0.57007705408E+03  0.58926222646E+03  0.00000000000E+00 0.  1.
         21    1    1    2  502  501  0.50280561868E+01 -0.28564807991E+02  0.42998207623E+02  0.51865937410E+02  0.00000000000E+00 0. -1.
<mgrwt>
<rscale>  1 0.30000000E+03</rscale>
<asrwt>0</asrwt>
<pdfrwt beam="1">  1        1 0.27062344E+00 0.30000000E+03</pdfrwt>
<pdfrwt beam="2">0</pdfrwt>
<totfact> 0.47759094E+00</totfact>
</mgrwt>
</event>
<event>
 6    1  0.1929825E-004  0.3000000E+03  0.7818608E-02  0.1093470E+00
          1   -1    0    0  502    0  0.00000000000E+00  0.00000000000E+00  0.29336365911E+02  0.29336365911E+02  0.00000000000E+00 0.  1.
         13   -1    0    0    0    0 -0.00000000000E+00 -0.00000000000E+00 -0.10000000000E+04  0.10000000000E+04  0.00000000000E+00 0.  1.
    9000005    2    1    2  501    0  0.90400917021E+01 -0.46316253829E+01 -0.96552839004E+03  0.10179545408E+04  0.32230916824E+03 0.  0.
         13    1    3    3    0    0 -0.26383545792E+02  0.15280807014E+03 -0.57140533465E+03  0.59207301430E+03  0.00000000000E+00 0.  1.
          3    1    3    3  501    0  0.35423637495E+02 -0.15743969553E+03 -0.39412305538E+03  0.42588152649E+03  0.00000000000E+00 0.  1.
         21    1    1    2  502  501 -0.90400917021E+01  0.46316253829E+01 -0.51352440544E+01  0.11381825125E+02  0.00000000000E+00 0.  1.
<mgrwt>
<rscale>  1 0.30000000E+03</rscale>
<asrwt>0</asrwt>
<pdfrwt beam="1">  1        1 0.10667792E+00 0.30000000E+03</pdfrwt>
<pdfrwt beam="2">0</pdfrwt>
<totfact> 0.31109497E+01</totfact>
</mgrwt>
</event>
<event>
 6    1  0.1929825E-004  0.3000000E+03  0.7818608E-02  0.1093470E+00
          3   -1    0    0  502    0  0.00000000000E+00  0.00000000000E+00  0.37455197169E+02  0.37455197169E+02  0.00000000000E+00 0.  1.
         13   -1    0    0    0    0 -0.00000000000E+00 -0.00000000000E+00 -0.10000000000E+04  0.10000000000E+04  0.00000000000E+00 0.  1.
    9000005    2    1    2  501    0 -0.25698124272E+01  0.16554795918E+02 -0.96767287024E+03  0.10199348582E+04  0.32186280598E+03 0.  0.
         13    1    3    3    0    0 -0.89086588101E+02  0.14097773549E+03 -0.42653973256E+03  0.45798175240E+03  0.00000000000E+00 0.  1.
          3    1    3    3  501    0  0.86516775674E+02 -0.12442293957E+03 -0.54113313768E+03  0.56195310575E+03  0.00000000000E+00 0.  1.
         21    1    1    2  502  501  0.25698124272E+01 -0.16554795918E+02  0.51280674107E+01  0.17520339014E+02  0.00000000000E+00 0.  1.
<mgrwt>
<rscale>  1 0.30000000E+03</rscale>
<asrwt>0</asrwt>
<pdfrwt beam="1">  1        3 0.13620100E+00 0.30000000E+03</pdfrwt>
<pdfrwt beam="2">0</pdfrwt>
<totfact> 0.14925319E+00</totfact>
</mgrwt>
</event>
<event>
 6    1  0.1929825E-004  0.3000000E+03  0.7818608E-02  0.1093470E+00
          1   -1    0    0  502    0  0.00000000000E+00  0.00000000000E+00  0.35276783996E+02  0.35276783996E+02  0.00000000000E+00 0.  1.
         13   -1    0    0    0    0 -0.00000000000E+00 -0.00000000000E+00 -0.10000000000E+04  0.10000000000E+04  0.00000000000E+00 0.  1.
    9000005    2    1    2  501    0  0.37206971886E+02 -0.42536323494E+02 -0.82755783209E+03  0.88692571350E+03  0.31399292705E+03 0.  0.
         13    1    3    3    0    0  0.12240604610E+03 -0.12826944831E+03 -0.32692488691E+03  0.37190882373E+03  0.00000000000E+00 0.  1.
          3    1    3    3  501    0 -0.85199074218E+02  0.85733124819E+02 -0.50063294519E+03  0.51501688977E+03  0.00000000000E+00 0.  1.
         21    1    1    2  502  501 -0.37206971886E+02  0.42536323494E+02 -0.13716538391E+03  0.14835107049E+03  0.00000000000E+00 0.  1.
<mgrwt>
<rscale>  1 0.30000000E+03</rscale>
<asrwt>0</asrwt>
<pdfrwt beam="1">  1        1 0.12827949E+00 0.30000000E+03</pdfrwt>
<pdfrwt beam="2">0</pdfrwt>
<totfact> 0.23380287E+01</totfact>
</mgrwt>
</event>
<event>
 6    1  0.1929825E-004  0.3000000E+03  0.7818608E-02  0.1093470E+00
          1   -1    0    0  502    0  0.00000000000E+00  0.00000000000E+00  0.31694701777E+02  0.31694701777E+02  0.00000000000E+00 0.  1.
         13   -1    0    0    0    0 -0.00000000000E+00 -0.00000000000E+00 -0.10000000000E+04  0.10000000000E+04  0.00000000000E+00 0.  1.
    9000005    2    1    2  501    0  0.15269761143E+02 -0.46529921531E+01 -0.95117547170E+03  0.10082800291E+04  0.33412426298E+03 0.  0.
         13    1    3    3    0    0  0.12841139008E+02 -0.13872668287E+03 -0.19125405603E+03  0.23661804948E+03  0.00000000000E+00 0.  1.
          3    1    3    3  501    0  0.24286221355E+01  0.13407369072E+03 -0.75992141568E+03  0.77166197959E+03  0.00000000000E+00 0.  1.
         21    1    1    2  502  501 -0.15269761143E+02  0.46529921531E+01 -0.17129826520E+02  0.23414672706E+02  0.00000000000E+00 0. -1.
<mgrwt>
<rscale>  1 0.30000000E+03</rscale>
<asrwt>0</asrwt>
<pdfrwt beam="1">  1        1 0.11525370E+00 0.30000000E+03</pdfrwt>
<pdfrwt beam="2">0</pdfrwt>
<totfact> 0.27672367E+01</totfact>
</mgrwt>
</event>
<event>
 6    1  0.1929825E-004  0.3000000E+03  0.7818608E-02  0.1093470E+00
          1   -1    0    0  502    0  0.00000000000E+00  0.00000000000E+00  0.30617037719E+02  0.30617037719E+02  0.00000000000E+00 0.  1.
         13   -1    0    0    0    0 -0.00000000000E+00 -0.00000000000E+00 -0.10000000000E+04  0.10000000000E+04  0.00000000000E+00 0.  1.
    9000005    2    1    2  501    0 -0.60528424984E+01 -0.90471086111E+01 -0.96552115461E+03  0.10190671185E+04  0.32580393619E+03 0.  0.
         13    1    3    3    0    0 -0.13291359131E+03 -0.10288715851E+03 -0.51103373957E+03  0.53796586613E+03  0.00000000000E+00 0.  1.
          3    1    3    3  501    0  0.12686074882E+03  0.93840049902E+02 -0.45448741504E+03  0.48110125232E+03  0.00000000000E+00 0.  1.
         21    1    1    2  502  501  0.60528424984E+01  0.90471086111E+01 -0.38618076672E+01  0.11549919263E+02  0.00000000000E+00 0.  1.
<mgrwt>
<rscale>  1 0.30000000E+03</rscale>
<asrwt>0</asrwt>
<pdfrwt beam="1">  1        1 0.11133492E+00 0.30000000E+03</pdfrwt>
<pdfrwt beam="2">0</pdfrwt>
<totfact> 0.29172327E+01</totfact>
</mgrwt>
</event>
<event>
 6    1  0.1929825E-004  0.3000000E+03  0.7818608E-02  0.1093470E+00
          1   -1    0    0  502    0  0.00000000000E+00  0.00000000000E+00  0.44217386961E+02  0.44217386961E+02  0.00000000000E+00 0.  1.
         13   -1    0    0    0    0 -0.00000000000E+00 -0.00000000000E+00 -0.10000000000E+04  0.10000000000E+04  0.00000000000E+00 0.  1.
    9000005    2    1    2  501    0 -0.17272081076E+02  0.67694835710E+01 -0.97237384577E+03  0.10193292433E+04  0.30524917619E+03 0.  0.
         13    1    3    3    0    0 -0.57199911732E+02 -0.14029942604E+03 -0.54164191059E+03  0.56243374557E+03  0.00000000000E+00 0.  1.
          1    1    3    3  501    0  0.39927830656E+02  0.14706890961E+03 -0.43073193518E+03  0.45689549770E+03  0.00000000000E+00 0.  1.
         21    1    1    2  502  501  0.17272081076E+02 -0.67694835710E+01  0.16591232734E+02  0.24888143686E+02  0.00000000000E+00 0.  1.
<mgrwt>
<rscale>  1 0.30000000E+03</rscale>
<asrwt>0</asrwt>
<pdfrwt beam="1">  1        1 0.16079084E+00 0.30000000E+03</pdfrwt>
<pdfrwt beam="2">0</pdfrwt>
<totfact> 0.15859038E+01</totfact>
</mgrwt>
</event>
<event>
 6    1  0.1929825E-004  0.3000000E+03  0.7818608E-02  0.1093470E+00
          1   -1    0    0  502    0  0.00000000000E+00  0.00000000000E+00  0.32494538652E+02  0.32494538652E+02  0.00000000000E+00 0.  1.
         13   -1    0    0    0    0 -0.00000000000E+00 -0.00000000000E+00 -0.10000000000E+04  0.10000000000E+04  0.00000000000E+00 0.  1.
    9000005    2    1    2  501    0 -0.16375340577E+02 -0.24773723850E+00 -0.96091321597E+03  0.10148403366E+04  0.32600381426E+03 0.  0.
         13    1    3    3    0    0 -0.12591385641E+03 -0.68700753183E+00 -0.14685548339E+03  0.19344586896E+03  0.00000000000E+00 0.  1.
          3    1    3    3  501    0  0.10953851584E+03  0.43927029333E+00 -0.81405773258E+03  0.82139446759E+03  0.00000000000E+00 0.  1.
         21    1    1    2  502  501  0.16375340577E+02  0.24773723850E+00 -0.65922453775E+01  0.17654202102E+02  0.00000000000E+00 0. -1.
<mgrwt>
<rscale>  1 0.30000000E+03</rscale>
<asrwt>0</asrwt>
<pdfrwt beam="1">  1        1 0.11816221E+00 0.30000000E+03</pdfrwt>
<pdfrwt beam="2">0</pdfrwt>
<totfact> 0.26628185E+01</totfact>
</mgrwt>
</event>
<event>
 6    1  0.1929825E-004  0.3000000E+03  0.7818608E-02  0.1093470E+00
          1   -1    0    0  502    0  0.00000000000E+00  0.00000000000E+00  0.36361275159E+02  0.36361275159E+02  0.00000000000E+00 0.  1.
         13   -1    0    0    0    0 -0.00000000000E+00 -0.00000000000E+00 -0.10000000000E+04  0.10000000000E+04  0.00000000000E+00 0.  1.
    9000005    2    1    2  501    0 -0.47521538971E+02 -0.34168423900E+02 -0.85275057490E+03  0.91097403635E+03  0.31506249231E+03 0.  0.
         13    1    3    3    0    0 -0.32340903067E+02  0.10555900325E+03 -0.67696278338E+03  0.68590615048E+03  0.00000000000E+00 0.  1.
          1    1    3    3  501    0 -0.15180635904E+02 -0.13972742715E+03 -0.17578779152E+03  0.22506788587E+03  0.00000000000E+00 0.  1.
         21    1    1    2  502  501  0.47521538971E+02  0.34168423900E+02 -0.11088814994E+03  0.12538723881E+03  0.00000000000E+00 0.  1.
<mgrwt>
<rscale>  1 0.30000000E+03</rscale>
<asrwt>0</asrwt>
<pdfrwt beam="1">  1        1 0.13222310E+00 0.30000000E+03</pdfrwt>
<pdfrwt beam="2">0</pdfrwt>
<totfact> 0.22253509E+01</totfact>
</mgrwt>
</event>
<event>
 6    1  0.1929825E-004  0.3000000E+03  0.7818608E-02  0.1093470E+00
          1   -1    0    0  502    0  0.00000000000E+00  0.00000000000E+00  0.28792495791E+02  0.28792495791E+02  0.00000000000E+00 0.  1.
         13   -1    0    0    0    0 -0.00000000000E+00 -0.00000000000E+00 -0.10000000000E+04  0.10000000000E+04  0.00000000000E+00 0.  1.
    9000005    2    1    2  501    0 -0.27802440771E+02 -0.22820386596E+02 -0.89455445202E+03  0.94411997270E+03  0.29973506545E+03 0.  0.
         13    1    3    3    0    0 -0.55689622810E+02 -0.12203317745E+03 -0.77391733440E+03  0.78545621837E+03  0.00000000000E+00 0.  1.
          3    1    3    3  501    0  0.27887182040E+02  0.99212790851E+02 -0.12063711762E+03  0.15866375433E+03  0.00000000000E+00 0.  1.
         21    1    1    2  502  501  0.27802440771E+02  0.22820386596E+02 -0.76653052184E+02  0.84672523090E+02  0.00000000000E+00 0.  1.
<mgrwt>
<rscale>  1 0.30000000E+03</rscale>
<asrwt>0</asrwt>
<pdfrwt beam="1">  1        1 0.10470021E+00 0.30000000E+03</pdfrwt>
<pdfrwt beam="2">0</pdfrwt>
<totfact> 0.31988216E+01</totfact>
</mgrwt>
</event>
<event>
 6    1  0.1929825E-004  0.3000000E+03  0.7818608E-02  0.1093470E+00
          1   -1    0    0  502    0  0.00000000000E+00  0.00000000000E+00  0.49446048365E+02  0.49446048365E+02  0.00000000000E+00 0.  1.
         13   -1    0    0    0    0 -0.00000000000E+00 -0.00000000000E+00 -0.10000000000E+04  0.10000000000E+04  0.00000000000E+00 0.  1.
    9000005    2    1    2  501    0 -0.17240415757E+01  0.16910503960E+02 -0.95227735101E+03  0.10323607456E+04  0.39830593574E+03 0.  0.
         13    1    3    3    0    0 -0.27376967194E+02 -0.18626089130E+03 -0.54299004238E+03  0.57470062127E+03  0.00000000000E+00 0.  1.
          1    1    3    3  501    0  0.25652925619E+02  0.20317139526E+03 -0.40928730862E+03  0.45766012438E+03  0.00000000000E+00 0.  1.
         21    1    1    2  502  501  0.17240415757E+01 -0.16910503960E+02  0.17233993733E+01  0.17085302717E+02  0.00000000000E+00 0.  1.
<mgrwt>
<rscale>  1 0.30000000E+03</rscale>
<asrwt>0</asrwt>
<pdfrwt beam="1">  1        1 0.17980419E+00 0.30000000E+03</pdfrwt>
<pdfrwt beam="2">0</pdfrwt>
<totfact> 0.12802341E+01</totfact>
</mgrwt>
</event>
<event>
 6    1  0.1929825E-004  0.3000000E+03  0.7818608E-02  0.1093470E+00
          1   -1    0    0  502    0  0.00000000000E+00  0.00000000000E+00  0.34865520076E+02  0.34865520076E+02  0.00000000000E+00 0.  1.
         13   -1    0    0    0    0 -0.00000000000E+00 -0.00000000000E+00 -0.10000000000E+04  0.10000000000E+04  0.00000000000E+00 0.  1.
    9000005    2    1    2  501    0  0.21644224518E+02 -0.27065393318E+01 -0.95256957734E+03  0.10096926262E+04  0.33408771585E+03 0.  0.
         13    1    3    3    0    0 -0.76842689100E+02  0.98626867004E+02 -0.15231714490E+03  0.19705981425E+03  0.00000000000E+00 0.  1.
          3    1    3    3  501    0  0.98486913619E+02 -0.10133340634E+03 -0.80025243244E+03  0.81263281193E+03  0.00000000000E+00 0.  1.
         21    1    1    2  502  501 -0.21644224518E+02  0.27065393318E+01 -0.12564902584E+02  0.25172893896E+02  0.00000000000E+00 0.  1.
<mgrwt>
<rscale>  1 0.30000000E+03</rscale>
<asrwt>0</asrwt>
<pdfrwt beam="1">  1        1 0.12678398E+00 0.30000000E+03</pdfrwt>
<pdfrwt beam="2">0</pdfrwt>
<totfact> 0.23826863E+01</totfact>
</mgrwt>
</event>
<event>
 6    1  0.1929825E-004  0.3000000E+03  0.7818608E-02  0.1093470E+00
          1   -1    0    0  502    0  0.00000000000E+00  0.00000000000E+00  0.70103990256E+02  0.70103990256E+02  0.00000000000E+00 0.  1.
         13   -1    0    0    0    0 -0.00000000000E+00 -0.00000000000E+00 -0.10000000000E+04  0.10000000000E+04  0.00000000000E+00 0.  1.
    9000005    2    1    2  501    0  0.15605570723E+02  0.20366881873E+02 -0.97113249242E+03  0.10215366018E+04  0.31588030541E+03 0.  0.
         13    1    3    3    0    0 -0.89214373186E+02  0.13292395702E+03 -0.42468471010E+03  0.45385579838E+03  0.00000000000E+00 0.  1.
          1    1    3    3  501    0  0.10481994391E+03 -0.11255707515E+03 -0.54644778232E+03  0.56768080345E+03  0.00000000000E+00 0.  1.
         21    1    1    2  502  501 -0.15605570723E+02 -0.20366881873E+02  0.41236482674E+02  0.48567388422E+02  0.00000000000E+00 0. -1.
<mgrwt>
<rscale>  1 0.30000000E+03</rscale>
<asrwt>0</asrwt>
<pdfrwt beam="1">  1        1 0.25492414E+00 0.30000000E+03</pdfrwt>
<pdfrwt beam="2">0</pdfrwt>
<totfact> 0.56592289E+00</totfact>
</mgrwt>
</event>
<event>
 6    1  0.1929825E-004  0.3000000E+03  0.7818608E-02  0.1093470E+00
          1   -1    0    0  502    0  0.00000000000E+00  0.00000000000E+00  0.46286958039E+02  0.46286958039E+02  0.00000000000E+00 0.  1.
         13   -1    0    0    0    0 -0.00000000000E+00 -0.00000000000E+00 -0.10000000000E+04  0.10000000000E+04  0.00000000000E+00 0.  1.
    9000005    2    1    2  501    0 -0.57750091323E+02  0.17679691864E+02 -0.87114597048E+03  0.94398854239E+03  0.35856857324E+03 0.  0.
         13    1    3    3    0    0  0.77230169177E+02 -0.13705153620E+03 -0.34399974349E+03  0.37826372563E+03  0.00000000000E+00 0.  1.
          3    1    3    3  501    0 -0.13498026050E+03  0.15473122806E+03 -0.52714622699E+03  0.56572481675E+03  0.00000000000E+00 0.  1.
         21    1    1    2  502  501  0.57750091323E+02 -0.17679691864E+02 -0.82567071481E+02  0.10229841565E+03  0.00000000000E+00 0.  1.
<mgrwt>
<rscale>  1 0.30000000E+03</rscale>
<asrwt>0</asrwt>
<pdfrwt beam="1">  1        1 0.16831657E+00 0.30000000E+03</pdfrwt>
<pdfrwt beam="2">0</pdfrwt>
<totfact> 0.14560775E+01</totfact>
</mgrwt>
</event>
<event>
 6    1  0.1929825E-004  0.3000000E+03  0.7818608E-02  0.1093470E+00
          1   -1    0    0  502    0  0.00000000000E+00  0.00000000000E+00  0.27044300152E+02  0.27044300152E+02  0.00000000000E+00 0.  1.
         13   -1    0    0    0    0 -0.00000000000E+00 -0.00000000000E+00 -0.10000000000E+04  0.10000000000E+04  0.00000000000E+00 0.  1.
    9000005    2    1    2  501    0  0.87858188544E+01 -0.45765819701E+01 -0.96316040449E+03  0.10131129138E+04  0.31404088197E+03 0.  0.
         13    1    3    3    0    0 -0.10378701279E+03  0.52681511396E+02 -0.79141750727E+03  0.79993046977E+03  0.00000000000E+00 0.  1.
          1    1    3    3  501    0  0.11257283164E+03 -0.57258093366E+02 -0.17174289723E+03  0.21318244399E+03  0.00000000000E+00 0.  1.
         21    1    1    2  502  501 -0.87858188544E+01  0.45765819701E+01 -0.97952953558E+01  0.13931386384E+02  0.00000000000E+00 0. -1.
<mgrwt>
<rscale>  1 0.30000000E+03</rscale>
<asrwt>0</asrwt>
<pdfrwt beam="1">  1        1 0.98343117E-01 0.30000000E+03</pdfrwt>
<pdfrwt beam="2">0</pdfrwt>
<totfact> 0.35071156E+01</totfact>
</mgrwt>
</event>
<event>
 6    1  0.1929825E-004  0.3000000E+03  0.7818608E-02  0.1093470E+00
          1   -1    0    0  502    0  0.00000000000E+00  0.00000000000E+00  0.32809204533E+02  0.32809204533E+02  0.00000000000E+00 0.  1.
         13   -1    0    0    0    0 -0.00000000000E+00 -0.00000000000E+00 -0.10000000000E+04  0.10000000000E+04  0.00000000000E+00 0.  1.
    9000005    2    1    2  501    0  0.54536569477E+01  0.93148100846E+01 -0.94534578012E+03  0.10084429829E+04  0.35094457926E+03 0.  0.
         13    1    3    3    0    0  0.13083246764E+03  0.51659625258E+02 -0.16439862394E+03  0.21636256382E+03  0.00000000000E+00 0.  1.
          1    1    3    3  501    0 -0.12537881069E+03 -0.42344815173E+02 -0.78094715617E+03  0.79208041907E+03  0.00000000000E+00 0.  1.
         21    1    1    2  502  501 -0.54536569477E+01 -0.93148100846E+01 -0.21845015351E+02  0.24366221633E+02  0.00000000000E+00 0. -1.
<mgrwt>
<rscale>  1 0.30000000E+03</rscale>
<asrwt>0</asrwt>
<pdfrwt beam="1">  1        1 0.11930645E+00 0.30000000E+03</pdfrwt>
<pdfrwt beam="2">0</pdfrwt>
<totfact> 0.26232182E+01</totfact>
</mgrwt>
</event>
<event>
 6    1  0.1929825E-004  0.3000000E+03  0.7818608E-02  0.1093470E+00
          3   -1    0    0  502    0  0.00000000000E+00  0.00000000000E+00  0.35350115832E+02  0.35350115832E+02  0.00000000000E+00 0.  1.
         13   -1    0    0    0    0 -0.00000000000E+00 -0.00000000000E+00 -0.10000000000E+04  0.10000000000E+04  0.00000000000E+00 0.  1.
    9000005    2    1    2  501    0  0.20863120848E+02  0.89022710067E+01 -0.95349861755E+03  0.10100742185E+04  0.33252938651E+03 0.  0.
         13    1    3    3    0    0 -0.77002375700E+02 -0.10107144017E+03 -0.73945636987E+03  0.75029362574E+03  0.00000000000E+00 0.  1.
          3    1    3    3  501    0  0.97865496547E+02  0.10997371118E+03 -0.21404224768E+03  0.25978059273E+03  0.00000000000E+00 0.  1.
         21    1    1    2  502  501 -0.20863120848E+02 -0.89022710067E+01 -0.11151266617E+02  0.25275897368E+02  0.00000000000E+00 0. -1.
<mgrwt>
<rscale>  1 0.30000000E+03</rscale>
<asrwt>0</asrwt>
<pdfrwt beam="1">  1        3 0.12854615E+00 0.30000000E+03</pdfrwt>
<pdfrwt beam="2">0</pdfrwt>
<totfact> 0.18400278E+00</totfact>
</mgrwt>
</event>
<event>
 6    1  0.1929825E-004  0.3000000E+03  0.7818608E-02  0.1093470E+00
          3   -1    0    0  502    0  0.00000000000E+00  0.00000000000E+00  0.28516397613E+02  0.28516397613E+02  0.00000000000E+00 0.  1.
         13   -1    0    0    0    0 -0.00000000000E+00 -0.00000000000E+00 -0.10000000000E+04  0.10000000000E+04  0.00000000000E+00 0.  1.
    9000005    2    1    2  501    0 -0.97750553790E+01 -0.84510509355E+01 -0.92637053132E+03  0.98158920773E+03  0.32432705631E+03 0.  0.
         13    1    3    3    0    0 -0.15978362921E+03  0.84479674896E+01 -0.33493006670E+03  0.37118772326E+03  0.00000000000E+00 0.  1.
          1    1    3    3  501    0  0.15000857383E+03 -0.16899018425E+02 -0.59144046463E+03  0.61040148447E+03  0.00000000000E+00 0.  1.
         21    1    1    2  502  501  0.97750553790E+01  0.84510509355E+01 -0.45113071063E+02  0.46927189883E+02  0.00000000000E+00 0.  1.
<mgrwt>
<rscale>  1 0.30000000E+03</rscale>
<asrwt>0</asrwt>
<pdfrwt beam="1">  1        3 0.10369621E+00 0.30000000E+03</pdfrwt>
<pdfrwt beam="2">0</pdfrwt>
<totfact> 0.35552278E+00</totfact>
</mgrwt>
</event>
<event>
 6    1  0.1929825E-004  0.3000000E+03  0.7818608E-02  0.1093470E+00
          1   -1    0    0  502    0  0.00000000000E+00  0.00000000000E+00  0.43225705688E+02  0.43225705688E+02  0.00000000000E+00 0.  1.
         13   -1    0    0    0    0 -0.00000000000E+00 -0.00000000000E+00 -0.10000000000E+04  0.10000000000E+04  0.00000000000E+00 0.  1.
    9000005    2    1    2  501    0 -0.21363994241E+02 -0.57266287640E+02 -0.89436620383E+03  0.95587229873E+03  0.33176060190E+03 0.  0.
         13    1    3    3    0    0 -0.34122409093E+02  0.87558236556E+02 -0.65973336708E+02  0.11481839899E+03  0.00000000000E+00 0.  1.
          3    1    3    3  501    0  0.12758414853E+02 -0.14482452420E+03 -0.82839286712E+03  0.84105389973E+03  0.00000000000E+00 0.  1.
         21    1    1    2  502  501  0.21363994241E+02  0.57266287640E+02 -0.62408090482E+02  0.87353406960E+02  0.00000000000E+00 0. -1.
<mgrwt>
<rscale>  1 0.30000000E+03</rscale>
<asrwt>0</asrwt>
<pdfrwt beam="1">  1        1 0.15718472E+00 0.30000000E+03</pdfrwt>
<pdfrwt beam="2">0</pdfrwt>
<totfact> 0.16528263E+01</totfact>
</mgrwt>
</event>
<event>
 6    1  0.1929825E-004  0.3000000E+03  0.7818608E-02  0.1093470E+00
          1   -1    0    0  502    0  0.00000000000E+00  0.00000000000E+00  0.44060961124E+02  0.44060961124E+02  0.00000000000E+00 0.  1.
         13   -1    0    0    0    0 -0.00000000000E+00 -0.00000000000E+00 -0.10000000000E+04  0.10000000000E+04  0.00000000000E+00 0.  1.
    9000005    2    1    2  501    0  0.67767269433E+01  0.82107495314E+01 -0.97268510413E+03  0.10242172937E+04  0.32061099866E+03 0.  0.
         13    1    3    3    0    0  0.56895250256E+02  0.13197747702E+03 -0.24222179883E+03  0.28164964721E+03  0.00000000000E+00 0.  1.
          3    1    3    3  501    0 -0.50118523313E+02 -0.12376672749E+03 -0.73046330530E+03  0.74256764648E+03  0.00000000000E+00 0.  1.
         21    1    1    2  502  501 -0.67767269433E+01 -0.82107495314E+01  0.16746065251E+02  0.19843667436E+02  0.00000000000E+00 0.  1.
<mgrwt>
<rscale>  1 0.30000000E+03</rscale>
<asrwt>0</asrwt>
<pdfrwt beam="1">  1        1 0.16022201E+00 0.30000000E+03</pdfrwt>
<pdfrwt beam="2">0</pdfrwt>
<totfact> 0.15962465E+01</totfact>
</mgrwt>
</event>
<event>
 6    1  0.1929825E-004  0.3000000E+03  0.7818608E-02  0.1093470E+00
          1   -1    0    0  502    0  0.00000000000E+00  0.00000000000E+00  0.28238746910E+02  0.28238746910E+02  0.00000000000E+00 0.  1.
         13   -1    0    0    0    0 -0.00000000000E+00 -0.00000000000E+00 -0.10000000000E+04  0.10000000000E+04  0.00000000000E+00 0.  1.
    9000005    2    1    2  501    0 -0.45810748540E+01  0.38461985599E+02 -0.84910065231E+03  0.89960774922E+03  0.29465551772E+03 0.  0.
         13    1    3    3    0    0 -0.13387832320E+03  0.69704595885E+02 -0.31651483889E+03  0.35066191602E+03  0.00000000000E+00 0.  1.
          3    1    3    3  501    0  0.12929724835E+03 -0.31242610286E+02 -0.53258581342E+03  0.54894583319E+03  0.00000000000E+00 0.  1.
         21    1    1    2  502  501  0.45810748540E+01 -0.38461985599E+02 -0.12266060078E+03  0.12863099769E+03  0.00000000000E+00 0.  1.
<mgrwt>
<rscale>  1 0.30000000E+03</rscale>
<asrwt>0</asrwt>
<pdfrwt beam="1">  1        1 0.10268657E+00 0.30000000E+03</pdfrwt>
<pdfrwt beam="2">0</pdfrwt>
<totfact> 0.32920324E+01</totfact>
</mgrwt>
</event>
<event>
 6    1  0.1929825E-004  0.3000000E+03  0.7818608E-02  0.1093470E+00
          1   -1    0    0  502    0  0.00000000000E+00  0.00000000000E+00  0.25253077098E+02  0.25253077098E+02  0.00000000000E+00 0.  1.
         13   -1    0    0    0    0 -0.00000000000E+00 -0.00000000000E+00 -0.10000000000E+04  0.10000000000E+04  0.00000000000E+00 0.  1.
    9000005    2    1    2  501    0  0.62026728693E+01 -0.10361711232E+02 -0.94137785283E+03  0.98976599426E+03  0.30544823358E+03 0.  0.
         13    1    3    3    0    0 -0.11338196278E+03  0.55671181027E+02 -0.70937975876E+03  0.72053757155E+03  0.00000000000E+00 0.  1.
          3    1    3    3  501    0  0.11958463565E+03 -0.66032892259E+02 -0.23199809407E+03  0.26922842271E+03  0.00000000000E+00 0.  1.
         21    1    1    2  502  501 -0.62026728693E+01  0.10361711232E+02 -0.33369070075E+02  0.35487082834E+02  0.00000000000E+00 0.  1.
<mgrwt>
<rscale>  1 0.30000000E+03</rscale>
<asrwt>0</asrwt>
<pdfrwt beam="1">  1        1 0.91829565E-01 0.30000000E+03</pdfrwt>
<pdfrwt beam="2">0</pdfrwt>
<totfact> 0.38708362E+01</totfact>
</mgrwt>
</event>
<event>
 6    1  0.1929825E-004  0.3000000E+03  0.7818608E-02  0.1093470E+00
          1   -1    0    0  502    0  0.00000000000E+00  0.00000000000E+00  0.30179161956E+02  0.30179161956E+02  0.00000000000E+00 0.  1.
         13   -1    0    0    0    0 -0.00000000000E+00 -0.00000000000E+00 -0.10000000000E+04  0.10000000000E+04  0.00000000000E+00 0.  1.
    9000005    2    1    2  501    0 -0.10211923650E+02 -0.34975687831E+01 -0.96576184025E+03  0.10186469534E+04  0.32377332677E+03 0.  0.
         13    1    3    3    0    0  0.18374266972E+02  0.84044505645E+02 -0.90326284116E+03  0.90735045756E+03  0.00000000000E+00 0.  1.
          3    1    3    3  501    0 -0.28586190621E+02 -0.87542074428E+02 -0.62498999090E+02  0.11129649580E+03  0.00000000000E+00 0.  1.
         21    1    1    2  502  501  0.10211923650E+02  0.34975687831E+01 -0.40589977908E+01  0.11532208595E+02  0.00000000000E+00 0.  1.
<mgrwt>
<rscale>  1 0.30000000E+03</rscale>
<asrwt>0</asrwt>
<pdfrwt beam="1">  1        1 0.10974264E+00 0.30000000E+03</pdfrwt>
<pdfrwt beam="2">0</pdfrwt>
<totfact> 0.29814843E+01</totfact>
</mgrwt>
</event>
<event>
 6    1  0.1929825E-004  0.3000000E+03  0.7818608E-02  0.1093470E+00
          1   -1    0    0  502    0  0.00000000000E+00  0.00000000000E+00  0.32984690762E+02  0.32984690762E+02  0.00000000000E+00 0.  1.
         13   -1    0    0    0    0 -0.00000000000E+00 -0.00000000000E+00 -0.10000000000E+04  0.10000000000E+04  0.00000000000E+00 0.  1.
    9000005    2    1    2  501    0 -0.99986754577E+01 -0.25491576160E+01 -0.96742254758E+03  0.10226581445E+04  0.33138621450E+03 0.  0.
         13    1    3    3    0    0  0.23852249644E+02  0.60138436216E+02 -0.94607598094E+03  0.94828546495E+03  0.00000000000E+00 0.  1.
          1    1    3    3  501    0 -0.33850925102E+02 -0.62687593832E+02 -0.21346566638E+02  0.74372679513E+02  0.00000000000E+00 0.  1.
         21    1    1    2  502  501  0.99986754577E+01  0.25491576160E+01  0.40723833783E+00  0.10326546302E+02  0.00000000000E+00 0.  1.
<mgrwt>
<rscale>  1 0.30000000E+03</rscale>
<asrwt>0</asrwt>
<pdfrwt beam="1">  1        1 0.11994458E+00 0.30000000E+03</pdfrwt>
<pdfrwt beam="2">0</pdfrwt>
<totfact> 0.26014786E+01</totfact>
</mgrwt>
</event>
<event>
 6    1  0.1929825E-004  0.3000000E+03  0.7818608E-02  0.1093470E+00
          1   -1    0    0  502    0  0.00000000000E+00  0.00000000000E+00  0.41554478615E+02  0.41554478615E+02  0.00000000000E+00 0.  1.
         13   -1    0    0    0    0 -0.00000000000E+00 -0.00000000000E+00 -0.10000000000E+04  0.10000000000E+04  0.00000000000E+00 0.  1.
    9000005    2    1    2  501    0  0.24024619522E+00 -0.13722395724E+02 -0.96826313752E+03  0.10246800172E+04  0.33503324049E+03 0.  0.
         13    1    3    3    0    0  0.27272987909E+02  0.11554997099E+03 -0.12991494749E+03  0.17599291249E+03  0.00000000000E+00 0.  1.
          1    1    3    3  501    0 -0.27032741714E+02 -0.12927236671E+03 -0.83834819003E+03  0.84868710468E+03  0.00000000000E+00 0.  1.
         21    1    1    2  502  501 -0.24024619522E+00  0.13722395724E+02  0.98176161355E+01  0.16874461450E+02  0.00000000000E+00 0.  1.
<mgrwt>
<rscale>  1 0.30000000E+03</rscale>
<asrwt>0</asrwt>
<pdfrwt beam="1">  1        1 0.15110751E+00 0.30000000E+03</pdfrwt>
<pdfrwt beam="2">0</pdfrwt>
<totfact> 0.17733856E+01</totfact>
</mgrwt>
</event>
<event>
 6    1  0.1929825E-004  0.3000000E+03  0.7818608E-02  0.1093470E+00
          1   -1    0    0  502    0  0.00000000000E+00  0.00000000000E+00  0.38700384852E+02  0.38700384852E+02  0.00000000000E+00 0.  1.
         13   -1    0    0    0    0 -0.00000000000E+00 -0.00000000000E+00 -0.10000000000E+04  0.10000000000E+04  0.00000000000E+00 0.  1.
    9000005    2    1    2  501    0  0.20331584161E+01  0.61932355443E+02 -0.84028715073E+03  0.90274536682E+03  0.32407861893E+03 0.  0.
         13    1    3    3    0    0 -0.29360276162E+02  0.22919829719E+02 -0.85076977763E+03  0.85158473386E+03  0.00000000000E+00 0.  1.
          1    1    3    3  501    0  0.31393434579E+02  0.39012525724E+02  0.10482626903E+02  0.51160632959E+02  0.00000000000E+00 0.  1.
         21    1    1    2  502  501 -0.20331584161E+01 -0.61932355443E+02 -0.12101246442E+03  0.13595501803E+03  0.00000000000E+00 0.  1.
<mgrwt>
<rscale>  1 0.30000000E+03</rscale>
<asrwt>0</asrwt>
<pdfrwt beam="1">  1        1 0.14072897E+00 0.30000000E+03</pdfrwt>
<pdfrwt beam="2">0</pdfrwt>
<totfact> 0.20055150E+01</totfact>
</mgrwt>
</event>
<event>
 6    1  0.1929825E-004  0.3000000E+03  0.7818608E-02  0.1093470E+00
          1   -1    0    0  502    0  0.00000000000E+00  0.00000000000E+00  0.87026901081E+02  0.87026901081E+02  0.00000000000E+00 0.  1.
         13   -1    0    0    0    0 -0.00000000000E+00 -0.00000000000E+00 -0.10000000000E+04  0.10000000000E+04  0.00000000000E+00 0.  1.
    9000005    2    1    2  501    0 -0.90530563350E+02  0.16046763254E+03 -0.78368713213E+03  0.86194801446E+03  0.30796625557E+03 0.  0.
         13    1    3    3    0    0  0.48904411149E+01  0.18617930431E+03 -0.21374832440E+03  0.28350484290E+03  0.00000000000E+00 0.  1.
          1    1    3    3  501    0 -0.95421004464E+02 -0.25711671771E+02 -0.56993880774E+03  0.57844317156E+03  0.00000000000E+00 0.  1.
         21    1    1    2  502  501  0.90530563350E+02 -0.16046763254E+03 -0.12928596678E+03  0.22507888662E+03  0.00000000000E+00 0.  1.
<mgrwt>
<rscale>  1 0.30000000E+03</rscale>
<asrwt>0</asrwt>
<pdfrwt beam="1">  1        1 0.31646213E+00 0.30000000E+03</pdfrwt>
<pdfrwt beam="2">0</pdfrwt>
<totfact> 0.28970956E+00</totfact>
</mgrwt>
</event>
<event>
 6    1  0.1929825E-004  0.3000000E+03  0.7818608E-02  0.1093470E+00
          1   -1    0    0  502    0  0.00000000000E+00  0.00000000000E+00  0.30551617619E+02  0.30551617619E+02  0.00000000000E+00 0.  1.
         13   -1    0    0    0    0 -0.00000000000E+00 -0.00000000000E+00 -0.10000000000E+04  0.10000000000E+04  0.00000000000E+00 0.  1.
    9000005    2    1    2  501    0 -0.98231635955E+01 -0.13428347998E+01 -0.96549103232E+03  0.10198764891E+04  0.32844607151E+03 0.  0.
         13    1    3    3    0    0  0.15588518842E+03  0.26649678379E+02 -0.40689327246E+03  0.43654614017E+03  0.00000000000E+00 0.  1.
          1    1    3    3  501    0 -0.16570835201E+03 -0.27992513178E+02 -0.55859775986E+03  0.58333034898E+03  0.00000000000E+00 0.  1.
         21    1    1    2  502  501  0.98231635955E+01  0.13428347998E+01 -0.39573500656E+01  0.10675128471E+02  0.00000000000E+00 0.  1.
<mgrwt>
<rscale>  1 0.30000000E+03</rscale>
<asrwt>0</asrwt>
<pdfrwt beam="1">  1        1 0.11109703E+00 0.30000000E+03</pdfrwt>
<pdfrwt beam="2">0</pdfrwt>
<totfact> 0.29267068E+01</totfact>
</mgrwt>
</event>
<event>
 6    1  0.1929825E-004  0.3000000E+03  0.7818608E-02  0.1093470E+00
          1   -1    0    0  502    0  0.00000000000E+00  0.00000000000E+00  0.33808202072E+02  0.33808202072E+02  0.00000000000E+00 0.  1.
         13   -1    0    0    0    0 -0.00000000000E+00 -0.00000000000E+00 -0.10000000000E+04  0.10000000000E+04  0.00000000000E+00 0.  1.
    9000005    2    1    2  501    0  0.25325247293E+02  0.14723905543E+01 -0.95931002063E+03  0.10075233216E+04  0.30689410508E+03 0.  0.
         13    1    3    3    0    0 -0.12223764743E+03  0.73257927510E+02 -0.49290721329E+03  0.51309481317E+03  0.00000000000E+00 0.  1.
          1    1    3    3  501    0  0.14756289473E+03 -0.71785536955E+02 -0.46640280734E+03  0.49442850839E+03  0.00000000000E+00 0.  1.
         21    1    1    2  502  501 -0.25325247293E+02 -0.14723905543E+01 -0.68817772985E+01  0.26284880506E+02  0.00000000000E+00 0.  1.
<mgrwt>
<rscale>  1 0.30000000E+03</rscale>
<asrwt>0</asrwt>
<pdfrwt beam="1">  1        1 0.12293918E+00 0.30000000E+03</pdfrwt>
<pdfrwt beam="2">0</pdfrwt>
<totfact> 0.25026016E+01</totfact>
</mgrwt>
</event>
<event>
 6    1  0.1929825E-004  0.3000000E+03  0.7818608E-02  0.1093470E+00
          3   -1    0    0  502    0  0.00000000000E+00  0.00000000000E+00  0.42139638769E+02  0.42139638769E+02  0.00000000000E+00 0.  1.
         13   -1    0    0    0    0 -0.00000000000E+00 -0.00000000000E+00 -0.10000000000E+04  0.10000000000E+04  0.00000000000E+00 0.  1.
    9000005    2    1    2  501    0 -0.13141055919E+02 -0.96622110649E+00 -0.97335686556E+03  0.10217984839E+04  0.31060414212E+03 0.  0.
         13    1    3    3    0    0 -0.44881905027E+02  0.13594462461E+03 -0.69932744776E+03  0.71383065607E+03  0.00000000000E+00 0.  1.
          1    1    3    3  501    0  0.31740849108E+02 -0.13691084572E+03 -0.27402941780E+03  0.30796782786E+03  0.00000000000E+00 0.  1.
         21    1    1    2  502  501  0.13141055919E+02  0.96622110649E+00  0.15496504325E+02  0.20341154839E+02  0.00000000000E+00 0.  1.
<mgrwt>
<rscale>  1 0.30000000E+03</rscale>
<asrwt>0</asrwt>
<pdfrwt beam="1">  1        3 0.15323537E+00 0.30000000E+03</pdfrwt>
<pdfrwt beam="2">0</pdfrwt>
<totfact> 0.89163450E-01</totfact>
</mgrwt>
</event>
<event>
 6    1  0.1929825E-004  0.3000000E+03  0.7818608E-02  0.1093470E+00
          1   -1    0    0  502    0  0.00000000000E+00  0.00000000000E+00  0.34178805374E+02  0.34178805374E+02  0.00000000000E+00 0.  1.
         13   -1    0    0    0    0 -0.00000000000E+00 -0.00000000000E+00 -0.10000000000E+04  0.10000000000E+04  0.00000000000E+00 0.  1.
    9000005    2    1    2  501    0  0.10074258773E+02 -0.16274134739E+01 -0.97042072507E+03  0.10229852874E+04  0.32354037679E+03 0.  0.
         13    1    3    3    0    0 -0.72957055232E+02 -0.25412230227E+02 -0.91946240950E+03  0.92270235495E+03  0.00000000000E+00 0.  1.
          3    1    3    3  501    0  0.83031314005E+02  0.23784816753E+02 -0.50958315574E+02  0.10028293244E+03  0.00000000000E+00 0.  1.
         21    1    1    2  502  501 -0.10074258773E+02  0.16274134739E+01  0.45995304452E+01  0.11193517980E+02  0.00000000000E+00 0.  1.
<mgrwt>
<rscale>  1 0.30000000E+03</rscale>
<asrwt>0</asrwt>
<pdfrwt beam="1">  1        1 0.12428683E+00 0.30000000E+03</pdfrwt>
<pdfrwt beam="2">0</pdfrwt>
<totfact> 0.24597106E+01</totfact>
</mgrwt>
</event>
<event>
 6    1  0.1929825E-004  0.3000000E+03  0.7818608E-02  0.1093470E+00
          3   -1    0    0  502    0  0.00000000000E+00  0.00000000000E+00  0.30112293630E+02  0.30112293630E+02  0.00000000000E+00 0.  1.
         13   -1    0    0    0    0 -0.00000000000E+00 -0.00000000000E+00 -0.10000000000E+04  0.10000000000E+04  0.00000000000E+00 0.  1.
    9000005    2    1    2  501    0 -0.40102910558E+01 -0.13994480395E+02 -0.95243259340E+03  0.10073832619E+04  0.32784335194E+03 0.  0.
         13    1    3    3    0    0  0.87420476377E+02  0.77677591594E+02 -0.13015828205E+03  0.17497807380E+03  0.00000000000E+00 0.  1.
          3    1    3    3  501    0 -0.91430767433E+02 -0.91672071989E+02 -0.82227431135E+03  0.83240518807E+03  0.00000000000E+00 0.  1.
         21    1    1    2  502  501  0.40102910558E+01  0.13994480395E+02 -0.17455112969E+02  0.22729031758E+02  0.00000000000E+00 0. -1.
<mgrwt>
<rscale>  1 0.30000000E+03</rscale>
<asrwt>0</asrwt>
<pdfrwt beam="1">  1        3 0.10949948E+00 0.30000000E+03</pdfrwt>
<pdfrwt beam="2">0</pdfrwt>
<totfact> 0.30534651E+00</totfact>
</mgrwt>
</event>
<event>
 6    1  0.1929825E-004  0.3000000E+03  0.7818608E-02  0.1093470E+00
          1   -1    0    0  502    0  0.00000000000E+00  0.00000000000E+00  0.28710884808E+02  0.28710884808E+02  0.00000000000E+00 0.  1.
         13   -1    0    0    0    0 -0.00000000000E+00 -0.00000000000E+00 -0.10000000000E+04  0.10000000000E+04  0.00000000000E+00 0.  1.
    9000005    2    1    2  501    0 -0.10007896383E+02 -0.81232403958E+01 -0.96496683360E+03  0.10143541349E+04  0.31238946194E+03 0.  0.
         13    1    3    3    0    0  0.93386929245E+02 -0.72458912691E+01 -0.86657609809E+03  0.87162363166E+03  0.00000000000E+00 0.  1.
          1    1    3    3  501    0 -0.10339482563E+03 -0.87734912674E+00 -0.98390735515E+02  0.14273050320E+03  0.00000000000E+00 0.  1.
         21    1    1    2  502  501  0.10007896383E+02  0.81232403958E+01 -0.63222815868E+01  0.14356749946E+02  0.00000000000E+00 0.  1.
<mgrwt>
<rscale>  1 0.30000000E+03</rscale>
<asrwt>0</asrwt>
<pdfrwt beam="1">  1        1 0.10440344E+00 0.30000000E+03</pdfrwt>
<pdfrwt beam="2">0</pdfrwt>
<totfact> 0.32123161E+01</totfact>
</mgrwt>
</event>
<event>
 6    1  0.1929825E-004  0.3000000E+03  0.7818608E-02  0.1093470E+00
          1   -1    0    0  502    0  0.00000000000E+00  0.00000000000E+00  0.18983903332E+02  0.18983903332E+02  0.00000000000E+00 0.  1.
         13   -1    0    0    0    0 -0.00000000000E+00 -0.00000000000E+00 -0.10000000000E+04  0.10000000000E+04  0.00000000000E+00 0.  1.
    9000005    2    1    2  501    0  0.43508523117E+01 -0.10790906721E+02 -0.96717203849E+03  0.10008998902E+04  0.25737805774E+03 0.  0.
         13    1    3    3    0    0 -0.55925031146E+01  0.11580231607E+03 -0.63062296199E+03  0.64119168171E+03  0.00000000000E+00 0.  1.
          3    1    3    3  501    0  0.99433554262E+01 -0.12659322279E+03 -0.33654907650E+03  0.35970820851E+03  0.00000000000E+00 0.  1.
         21    1    1    2  502  501 -0.43508523117E+01  0.10790906721E+02 -0.13844058174E+02  0.18084013117E+02  0.00000000000E+00 0. -1.
<mgrwt>
<rscale>  1 0.30000000E+03</rscale>
<asrwt>0</asrwt>
<pdfrwt beam="1">  1        1 0.69032521E-01 0.30000000E+03</pdfrwt>
<pdfrwt beam="2">0</pdfrwt>
<totfact> 0.57458367E+01</totfact>
</mgrwt>
</event>
<event>
 6    1  0.1929825E-004  0.3000000E+03  0.7818608E-02  0.1093470E+00
          1   -1    0    0  502    0  0.00000000000E+00  0.00000000000E+00  0.33404725720E+02  0.33404725720E+02  0.00000000000E+00 0.  1.
         13   -1    0    0    0    0 -0.00000000000E+00 -0.00000000000E+00 -0.10000000000E+04  0.10000000000E+04  0.00000000000E+00 0.  1.
    9000005    2    1    2  501    0  0.30658744518E+02  0.13399921578E+02 -0.93844835888E+03  0.98968098663E+03  0.31251178616E+03 0.  0.
         13    1    3    3    0    0 -0.53941651366E+02  0.14606408270E+03 -0.51084373802E+03  0.53404657351E+03  0.00000000000E+00 0.  1.
          3    1    3    3  501    0  0.84600395883E+02 -0.13266416113E+03 -0.42760462087E+03  0.45563441312E+03  0.00000000000E+00 0.  1.
         21    1    1    2  502  501 -0.30658744518E+02 -0.13399921578E+02 -0.28146915397E+02  0.43723739091E+02  0.00000000000E+00 0. -1.
<mgrwt>
<rscale>  1 0.30000000E+03</rscale>
<asrwt>0</asrwt>
<pdfrwt beam="1">  1        1 0.12147199E+00 0.30000000E+03</pdfrwt>
<pdfrwt beam="2">0</pdfrwt>
<totfact> 0.25504132E+01</totfact>
</mgrwt>
</event>
<event>
 6    1  0.1929825E-004  0.3000000E+03  0.7818608E-02  0.1093470E+00
          1   -1    0    0  502    0  0.00000000000E+00  0.00000000000E+00  0.26665387521E+02  0.26665387521E+02  0.00000000000E+00 0.  1.
         13   -1    0    0    0    0 -0.00000000000E+00 -0.00000000000E+00 -0.10000000000E+04  0.10000000000E+04  0.00000000000E+00 0.  1.
    9000005    2    1    2  501    0 -0.10038920154E+02  0.32090962127E+01 -0.95600264727E+03  0.10063805352E+04  0.31424455730E+03 0.  0.
         13    1    3    3    0    0 -0.86517687171E+02 -0.11862619707E+03 -0.67401038004E+03  0.68981698821E+03  0.00000000000E+00 0.  1.
          3    1    3    3  501    0  0.76478767018E+02  0.12183529328E+03 -0.28199226723E+03  0.31656354697E+03  0.00000000000E+00 0.  1.
         21    1    1    2  502  501  0.10038920154E+02 -0.32090962127E+01 -0.17331965211E+02  0.20284852339E+02  0.00000000000E+00 0. -1.
<mgrwt>
<rscale>  1 0.30000000E+03</rscale>
<asrwt>0</asrwt>
<pdfrwt beam="1">  1        1 0.96965250E-01 0.30000000E+03</pdfrwt>
<pdfrwt beam="2">0</pdfrwt>
<totfact> 0.35796850E+01</totfact>
</mgrwt>
</event>
<event>
 6    1  0.1929825E-004  0.3000000E+03  0.7818608E-02  0.1093470E+00
          1   -1    0    0  502    0  0.00000000000E+00  0.00000000000E+00  0.34845903757E+02  0.34845903757E+02  0.00000000000E+00 0.  1.
         13   -1    0    0    0    0 -0.00000000000E+00 -0.00000000000E+00 -0.10000000000E+04  0.10000000000E+04  0.00000000000E+00 0.  1.
    9000005    2    1    2  501    0  0.71436523552E+01  0.16167314780E+02 -0.96533282788E+03  0.10171697678E+04  0.32008507336E+03 0.  0.
         13    1    3    3    0    0 -0.12534155973E+03  0.88678261351E+02 -0.64493235551E+03  0.66295707539E+03  0.00000000000E+00 0.  1.
          3    1    3    3  501    0  0.13248521208E+03 -0.72510946571E+02 -0.32040047237E+03  0.35421269244E+03  0.00000000000E+00 0.  1.
         21    1    1    2  502  501 -0.71436523552E+01 -0.16167314780E+02  0.17873163377E+00  0.17676135922E+02  0.00000000000E+00 0.  1.
<mgrwt>
<rscale>  1 0.30000000E+03</rscale>
<asrwt>0</asrwt>
<pdfrwt beam="1">  1        1 0.12671264E+00 0.30000000E+03</pdfrwt>
<pdfrwt beam="2">0</pdfrwt>
<totfact> 0.23848436E+01</totfact>
</mgrwt>
</event>
<event>
 6    1  0.1929825E-004  0.3000000E+03  0.7818608E-02  0.1093470E+00
          1   -1    0    0  502    0  0.00000000000E+00  0.00000000000E+00  0.28390766688E+02  0.28390766688E+02  0.00000000000E+00 0.  1.
         13   -1    0    0    0    0 -0.00000000000E+00 -0.00000000000E+00 -0.10000000000E+04  0.10000000000E+04  0.00000000000E+00 0.  1.
    9000005    2    1    2  501    0 -0.15900540113E+01 -0.12135755725E+02 -0.94647112978E+03  0.10004313481E+04  0.32389115133E+03 0.  0.
         13    1    3    3    0    0 -0.79733915854E+02 -0.24066741108E+01 -0.37656919854E+02  0.88211864455E+02  0.00000000000E+00 0.  1.
          1    1    3    3  501    0  0.78143861842E+02 -0.97290816144E+01 -0.90881420993E+03  0.91221948364E+03  0.00000000000E+00 0.  1.
         21    1    1    2  502  501  0.15900540113E+01  0.12135755725E+02 -0.25138103530E+02  0.27959418589E+02  0.00000000000E+00 0.  1.
<mgrwt>
<rscale>  1 0.30000000E+03</rscale>
<asrwt>0</asrwt>
<pdfrwt beam="1">  1        1 0.10323937E+00 0.30000000E+03</pdfrwt>
<pdfrwt beam="2">0</pdfrwt>
<totfact> 0.32660539E+01</totfact>
</mgrwt>
</event>
<event>
 6    1  0.1929825E-004  0.3000000E+03  0.7818608E-02  0.1093470E+00
          1   -1    0    0  502    0  0.00000000000E+00  0.00000000000E+00  0.36450480407E+02  0.36450480407E+02  0.00000000000E+00 0.  1.
         13   -1    0    0    0    0 -0.00000000000E+00 -0.00000000000E+00 -0.10000000000E+04  0.10000000000E+04  0.00000000000E+00 0.  1.
    9000005    2    1    2  501    0 -0.17650860365E+02 -0.11874925670E+02 -0.96364734602E+03  0.10151766396E+04  0.31861392851E+03 0.  0.
         13    1    3    3    0    0  0.12500656088E+03 -0.76424541910E+02 -0.62706779654E+03  0.64395758581E+03  0.00000000000E+00 0.  1.
          3    1    3    3  501    0 -0.14265742124E+03  0.64549616241E+02 -0.33657954948E+03  0.37121905382E+03  0.00000000000E+00 0.  1.
         21    1    1    2  502  501  0.17650860365E+02  0.11874925670E+02  0.97826424433E-01  0.21273840774E+02  0.00000000000E+00 0.  1.
<mgrwt>
<rscale>  1 0.30000000E+03</rscale>
<asrwt>0</asrwt>
<pdfrwt beam="1">  1        1 0.13254748E+00 0.30000000E+03</pdfrwt>
<pdfrwt beam="2">0</pdfrwt>
<totfact> 0.22164012E+01</totfact>
</mgrwt>
</event>
<event>
 6    1  0.1929825E-004  0.3000000E+03  0.7818608E-02  0.1093470E+00
          1   -1    0    0  502    0  0.00000000000E+00  0.00000000000E+00  0.72113974201E+02  0.72113974201E+02  0.00000000000E+00 0.  1.
         13   -1    0    0    0    0 -0.00000000000E+00 -0.00000000000E+00 -0.10000000000E+04  0.10000000000E+04  0.00000000000E+00 0.  1.
    9000005    2    1    2  501    0 -0.14347162827E+03 -0.50727666640E+02 -0.79415269780E+03  0.86952570381E+03  0.31974839779E+03 0.  0.
         13    1    3    3    0    0 -0.98067964473E+02  0.71356040971E+02 -0.84007588255E+02  0.14753401345E+03  0.00000000000E+00 0.  1.
          1    1    3    3  501    0 -0.45403663798E+02 -0.12208370761E+03 -0.71014510954E+03  0.72199169036E+03  0.00000000000E+00 0.  1.
         21    1    1    2  502  501  0.14347162827E+03  0.50727666640E+02 -0.13373332800E+03  0.20258827039E+03  0.00000000000E+00 0.  1.
<mgrwt>
<rscale>  1 0.30000000E+03</rscale>
<asrwt>0</asrwt>
<pdfrwt beam="1">  1        1 0.26223319E+00 0.30000000E+03</pdfrwt>
<pdfrwt beam="2">0</pdfrwt>
<totfact> 0.52303195E+00</totfact>
</mgrwt>
</event>
<event>
 6    1  0.1929825E-004  0.3000000E+03  0.7818608E-02  0.1093470E+00
          1   -1    0    0  502    0  0.00000000000E+00  0.00000000000E+00  0.53730852465E+02  0.53730852465E+02  0.00000000000E+00 0.  1.
         13   -1    0    0    0    0 -0.00000000000E+00 -0.00000000000E+00 -0.10000000000E+04  0.10000000000E+04  0.00000000000E+00 0.  1.
    9000005    2    1    2  501    0 -0.40002755577E+02 -0.36059793830E+02 -0.94807997526E+03  0.99984385698E+03  0.31294020145E+03 0.  0.
         13    1    3    3    0    0  0.69568081142E+02 -0.56727902067E+02 -0.83923803238E+03  0.84402502794E+03  0.00000000000E+00 0.  1.
          1    1    3    3  501    0 -0.10957083672E+03  0.20668108237E+02 -0.10884194287E+03  0.15581882905E+03  0.00000000000E+00 0.  1.
         21    1    1    2  502  501  0.40002755577E+02  0.36059793830E+02  0.18108277211E+01  0.53886995480E+02  0.00000000000E+00 0.  1.
<mgrwt>
<rscale>  1 0.30000000E+03</rscale>
<asrwt>0</asrwt>
<pdfrwt beam="1">  1        1 0.19538533E+00 0.30000000E+03</pdfrwt>
<pdfrwt beam="2">0</pdfrwt>
<totfact> 0.10774966E+01</totfact>
</mgrwt>
</event>
<event>
 6    1  0.1929825E-004  0.3000000E+03  0.7818608E-02  0.1093470E+00
          1   -1    0    0  502    0  0.00000000000E+00  0.00000000000E+00  0.29706583700E+02  0.29706583700E+02  0.00000000000E+00 0.  1.
         13   -1    0    0    0    0 -0.00000000000E+00 -0.00000000000E+00 -0.10000000000E+04  0.10000000000E+04  0.00000000000E+00 0.  1.
    9000005    2    1    2  501    0 -0.53303662519E+01  0.92966126095E+01 -0.93363264931E+03  0.99151166720E+03  0.33363246622E+03 0.  0.
         13    1    3    3    0    0  0.95171331712E+02 -0.92680783895E+02 -0.17620735422E+03  0.22067247623E+03  0.00000000000E+00 0.  1.
          3    1    3    3  501    0 -0.10050169796E+03  0.10197739650E+03 -0.75742529509E+03  0.77083919097E+03  0.00000000000E+00 0.  1.
         21    1    1    2  502  501  0.53303662519E+01 -0.92966126095E+01 -0.36660766990E+02  0.38194916504E+02  0.00000000000E+00 0.  1.
<mgrwt>
<rscale>  1 0.30000000E+03</rscale>
<asrwt>0</asrwt>
<pdfrwt beam="1">  1        1 0.10802417E+00 0.30000000E+03</pdfrwt>
<pdfrwt beam="2">0</pdfrwt>
<totfact> 0.30531084E+01</totfact>
</mgrwt>
</event>
<event>
 6    1  0.1929825E-004  0.3000000E+03  0.7818608E-02  0.1093470E+00
          1   -1    0    0  502    0  0.00000000000E+00  0.00000000000E+00  0.40582646904E+02  0.40582646904E+02  0.00000000000E+00 0.  1.
         13   -1    0    0    0    0 -0.00000000000E+00 -0.00000000000E+00 -0.10000000000E+04  0.10000000000E+04  0.00000000000E+00 0.  1.
    9000005    2    1    2  501    0 -0.11554198343E+02  0.76111219962E+02 -0.66781747238E+03  0.73899201752E+03  0.30692443407E+03 0.  0.
         13    1    3    3    0    0 -0.73614728100E+02 -0.28083866620E+02 -0.21884720785E+02  0.81772689581E+02  0.00000000000E+00 0.  1.
          3    1    3    3  501    0  0.62060529757E+02  0.10419508658E+03 -0.64593275160E+03  0.65721932793E+03  0.00000000000E+00 0.  1.
         21    1    1    2  502  501  0.11554198343E+02 -0.76111219962E+02 -0.29159988071E+03  0.30159062939E+03  0.00000000000E+00 0.  1.
<mgrwt>
<rscale>  1 0.30000000E+03</rscale>
<asrwt>0</asrwt>
<pdfrwt beam="1">  1        1 0.14757357E+00 0.30000000E+03</pdfrwt>
<pdfrwt beam="2">0</pdfrwt>
<totfact> 0.18484466E+01</totfact>
</mgrwt>
</event>
<event>
 6    1  0.1929825E-004  0.3000000E+03  0.7818608E-02  0.1093470E+00
          1   -1    0    0  502    0  0.00000000000E+00  0.00000000000E+00  0.42755886805E+02  0.42755886805E+02  0.00000000000E+00 0.  1.
         13   -1    0    0    0    0 -0.00000000000E+00 -0.00000000000E+00 -0.10000000000E+04  0.10000000000E+04  0.00000000000E+00 0.  1.
    9000005    2    1    2  501    0 -0.18346148114E+02 -0.60121483168E+02 -0.89265177378E+03  0.95262629011E+03  0.32667795379E+03 0.  0.
         13    1    3    3    0    0 -0.49045735577E+02 -0.63828708332E+02 -0.24808270843E+02  0.84232051429E+02  0.00000000000E+00 0.  1.
          3    1    3    3  501    0  0.30699587463E+02  0.37072251642E+01 -0.86784350294E+03  0.86839423868E+03  0.00000000000E+00 0.  1.
         21    1    1    2  502  501  0.18346148114E+02  0.60121483168E+02 -0.64592339415E+02  0.90129596693E+02  0.00000000000E+00 0.  1.
<mgrwt>
<rscale>  1 0.30000000E+03</rscale>
<asrwt>0</asrwt>
<pdfrwt beam="1">  1        1 0.15547628E+00 0.30000000E+03</pdfrwt>
<pdfrwt beam="2">0</pdfrwt>
<totfact> 0.16856929E+01</totfact>
</mgrwt>
</event>
<event>
 6    1  0.1929825E-004  0.3000000E+03  0.7818608E-02  0.1093470E+00
          1   -1    0    0  502    0  0.00000000000E+00  0.00000000000E+00  0.38439427517E+02  0.38439427517E+02  0.00000000000E+00 0.  1.
         13   -1    0    0    0    0 -0.00000000000E+00 -0.00000000000E+00 -0.10000000000E+04  0.10000000000E+04  0.00000000000E+00 0.  1.
    9000005    2    1    2  501    0  0.11989159366E+02 -0.18060118524E+01 -0.94531482506E+03  0.10181681195E+04  0.37802010447E+03 0.  0.
         13    1    3    3    0    0 -0.89567196745E+02 -0.23857253660E+02 -0.90005865468E+03  0.90481878470E+03  0.00000000000E+00 0.  1.
          3    1    3    3  501    0  0.10155635611E+03  0.22051241808E+02 -0.45256170378E+02  0.11334933475E+03  0.00000000000E+00 0.  1.
         21    1    1    2  502  501 -0.11989159366E+02  0.18060118524E+01 -0.16245747426E+02  0.20271308062E+02  0.00000000000E+00 0.  1.
<mgrwt>
<rscale>  1 0.30000000E+03</rscale>
<asrwt>0</asrwt>
<pdfrwt beam="1">  1        1 0.13978003E+00 0.30000000E+03</pdfrwt>
<pdfrwt beam="2">0</pdfrwt>
<totfact> 0.20286058E+01</totfact>
</mgrwt>
</event>
<event>
 6    1  0.1929825E-004  0.3000000E+03  0.7818608E-02  0.1093470E+00
          1   -1    0    0  502    0  0.00000000000E+00  0.00000000000E+00  0.38488694259E+02  0.38488694259E+02  0.00000000000E+00 0.  1.
         13   -1    0    0    0    0 -0.00000000000E+00 -0.00000000000E+00 -0.10000000000E+04  0.10000000000E+04  0.00000000000E+00 0.  1.
    9000005    2    1    2  501    0 -0.54063475685E+02 -0.24112594235E+02 -0.86256693897E+03  0.92318793833E+03  0.32365099823E+03 0.  0.
         13    1    3    3    0    0  0.71058396550E+02  0.11679424243E+03 -0.29459269054E+03  0.32476921669E+03  0.00000000000E+00 0.  1.
          1    1    3    3  501    0 -0.12512187223E+03 -0.14090683666E+03 -0.56797424843E+03  0.59841872164E+03  0.00000000000E+00 0.  1.
         21    1    1    2  502  501  0.54063475685E+02  0.24112594235E+02 -0.98944366767E+02  0.11530075593E+03  0.00000000000E+00 0.  1.
<mgrwt>
<rscale>  1 0.30000000E+03</rscale>
<asrwt>0</asrwt>
<pdfrwt beam="1">  1        1 0.13995918E+00 0.30000000E+03</pdfrwt>
<pdfrwt beam="2">0</pdfrwt>
<totfact> 0.20242206E+01</totfact>
</mgrwt>
</event>
<event>
 6    1  0.1929825E-004  0.3000000E+03  0.7818608E-02  0.1093470E+00
          1   -1    0    0  502    0  0.00000000000E+00  0.00000000000E+00  0.31674996744E+02  0.31674996744E+02  0.00000000000E+00 0.  1.
         13   -1    0    0    0    0 -0.00000000000E+00 -0.00000000000E+00 -0.10000000000E+04  0.10000000000E+04  0.00000000000E+00 0.  1.
    9000005    2    1    2  501    0 -0.84281977962E+01 -0.10954711748E+02 -0.97223556916E+03  0.10173107093E+04  0.29914551164E+03 0.  0.
         13    1    3    3    0    0  0.71091020160E+02 -0.13190891677E+03 -0.58556334655E+03  0.60443223631E+03  0.00000000000E+00 0.  1.
          3    1    3    3  501    0 -0.79519217956E+02  0.12095420502E+03 -0.38667222261E+03  0.41287847301E+03  0.00000000000E+00 0.  1.
         21    1    1    2  502  501  0.84281977962E+01  0.10954711748E+02  0.39105659001E+01  0.14364287425E+02  0.00000000000E+00 0.  1.
<mgrwt>
<rscale>  1 0.30000000E+03</rscale>
<asrwt>0</asrwt>
<pdfrwt beam="1">  1        1 0.11518205E+00 0.30000000E+03</pdfrwt>
<pdfrwt beam="2">0</pdfrwt>
<totfact> 0.27698804E+01</totfact>
</mgrwt>
</event>
<event>
 6    1  0.1929825E-004  0.3000000E+03  0.7818608E-02  0.1093470E+00
          1   -1    0    0  502    0  0.00000000000E+00  0.00000000000E+00  0.83836484130E+02  0.83836484130E+02  0.00000000000E+00 0.  1.
         13   -1    0    0    0    0 -0.00000000000E+00 -0.00000000000E+00 -0.10000000000E+04  0.10000000000E+04  0.00000000000E+00 0.  1.
    9000005    2    1    2  501    0  0.17516129665E+01  0.16023295243E+02 -0.97289276633E+03  0.10248617269E+04  0.32180958695E+03 0.  0.
         13    1    3    3    0    0  0.10463844108E+03  0.13006793259E+03 -0.45421828016E+03  0.48392263480E+03  0.00000000000E+00 0.  1.
          3    1    3    3  501    0 -0.10288682811E+03 -0.11404463735E+03 -0.51867448617E+03  0.54093909205E+03  0.00000000000E+00 0.  1.
         21    1    1    2  502  501 -0.17516129665E+01 -0.16023295243E+02  0.56729250457E+02  0.58974757277E+02  0.00000000000E+00 0.  1.
<mgrwt>
<rscale>  1 0.30000000E+03</rscale>
<asrwt>0</asrwt>
<pdfrwt beam="1">  1        1 0.30486059E+00 0.30000000E+03</pdfrwt>
<pdfrwt beam="2">0</pdfrwt>
<totfact> 0.32942955E+00</totfact>
</mgrwt>
</event>
<event>
 6    1  0.1929825E-004  0.3000000E+03  0.7818608E-02  0.1093470E+00
          1   -1    0    0  502    0  0.00000000000E+00  0.00000000000E+00  0.38910739889E+02  0.38910739889E+02  0.00000000000E+00 0.  1.
         13   -1    0    0    0    0 -0.00000000000E+00 -0.00000000000E+00 -0.10000000000E+04  0.10000000000E+04  0.00000000000E+00 0.  1.
    9000005    2    1    2  501    0  0.29504351665E+02 -0.98410378728E+01 -0.94837593189E+03  0.10053104198E+04  0.33206140883E+03 0.  0.
         13    1    3    3    0    0 -0.93364135554E+02 -0.13028285240E+03 -0.49968193438E+03  0.52475948680E+03  0.00000000000E+00 0.  1.
          3    1    3    3  501    0  0.12286848722E+03  0.12044181452E+03 -0.44869399751E+03  0.48055093304E+03  0.00000000000E+00 0.  1.
         21    1    1    2  502  501 -0.29504351665E+02  0.98410378728E+01 -0.12713328218E+02  0.33600320058E+02  0.00000000000E+00 0.  1.
<mgrwt>
<rscale>  1 0.30000000E+03</rscale>
<asrwt>0</asrwt>
<pdfrwt beam="1">  1        1 0.14149390E+00 0.30000000E+03</pdfrwt>
<pdfrwt beam="2">0</pdfrwt>
<totfact> 0.19871447E+01</totfact>
</mgrwt>
</event>
<event>
 6    1  0.1929825E-004  0.3000000E+03  0.7818608E-02  0.1093470E+00
          1   -1    0    0  502    0  0.00000000000E+00  0.00000000000E+00  0.28407799584E+02  0.28407799584E+02  0.00000000000E+00 0.  1.
         13   -1    0    0    0    0 -0.00000000000E+00 -0.00000000000E+00 -0.10000000000E+04  0.10000000000E+04  0.00000000000E+00 0.  1.
    9000005    2    1    2  501    0 -0.16376706970E+02 -0.69970630312E+01 -0.93778618591E+03  0.99019782655E+03  0.31738249763E+03 0.  0.
         13    1    3    3    0    0  0.10110142334E+03  0.20564051112E+02 -0.99712116256E+02  0.14348130236E+03  0.00000000000E+00 0.  1.
          3    1    3    3  501    0 -0.11747813031E+03 -0.27561114143E+02 -0.83807406966E+03  0.84671652419E+03  0.00000000000E+00 0.  1.
         21    1    1    2  502  501  0.16376706970E+02  0.69970630312E+01 -0.33806014505E+02  0.38209973030E+02  0.00000000000E+00 0.  1.
<mgrwt>
<rscale>  1 0.30000000E+03</rscale>
<asrwt>0</asrwt>
<pdfrwt beam="1">  1        1 0.10330131E+00 0.30000000E+03</pdfrwt>
<pdfrwt beam="2">0</pdfrwt>
<totfact> 0.32631618E+01</totfact>
</mgrwt>
</event>
<event>
 6    1  0.1929825E-004  0.3000000E+03  0.7818608E-02  0.1093470E+00
          1   -1    0    0  502    0  0.00000000000E+00  0.00000000000E+00  0.71841335969E+02  0.71841335969E+02  0.00000000000E+00 0.  1.
         13   -1    0    0    0    0 -0.00000000000E+00 -0.00000000000E+00 -0.10000000000E+04  0.10000000000E+04  0.00000000000E+00 0.  1.
    9000005    2    1    2  501    0  0.48653285557E+01  0.16520152863E+02 -0.97095592333E+03  0.10257090016E+04  0.33019231369E+03 0.  0.
         13    1    3    3    0    0  0.13129287635E+03  0.10651096452E+03 -0.60573775680E+03  0.62888841216E+03  0.00000000000E+00 0.  1.
          1    1    3    3  501    0 -0.12642754780E+03 -0.89990811660E+02 -0.36521816653E+03  0.39682058942E+03  0.00000000000E+00 0.  1.
         21    1    1    2  502  501 -0.48653285557E+01 -0.16520152863E+02  0.42797259295E+02  0.46132334384E+02  0.00000000000E+00 0.  1.
<mgrwt>
<rscale>  1 0.30000000E+03</rscale>
<asrwt>0</asrwt>
<pdfrwt beam="1">  1        1 0.26124177E+00 0.30000000E+03</pdfrwt>
<pdfrwt beam="2">0</pdfrwt>
<totfact> 0.52868044E+00</totfact>
</mgrwt>
</event>
<event>
 6    1  0.1929825E-004  0.3000000E+03  0.7818608E-02  0.1093470E+00
          1   -1    0    0  502    0  0.00000000000E+00  0.00000000000E+00  0.34526813748E+02  0.34526813748E+02  0.00000000000E+00 0.  1.
         13   -1    0    0    0    0 -0.00000000000E+00 -0.00000000000E+00 -0.10000000000E+04  0.10000000000E+04  0.00000000000E+00 0.  1.
    9000005    2    1    2  501    0  0.57110497970E+00 -0.12432161663E+02 -0.95786480136E+03  0.10199400963E+04  0.35016844176E+03 0.  0.
         13    1    3    3    0    0 -0.15079503899E+03 -0.60435151813E+02 -0.68711815005E+03  0.70606154370E+03  0.00000000000E+00 0.  1.
          1    1    3    3  501    0  0.15136614397E+03  0.48002990150E+02 -0.27074665131E+03  0.31387855262E+03  0.00000000000E+00 0.  1.
         21    1    1    2  502  501 -0.57110497970E+00  0.12432161663E+02 -0.76083848923E+01  0.14586717423E+02  0.00000000000E+00 0. -1.
<mgrwt>
<rscale>  1 0.30000000E+03</rscale>
<asrwt>0</asrwt>
<pdfrwt beam="1">  1        1 0.12555231E+00 0.30000000E+03</pdfrwt>
<pdfrwt beam="2">0</pdfrwt>
<totfact> 0.24202876E+01</totfact>
</mgrwt>
</event>
<event>
 6    1  0.1929825E-004  0.3000000E+03  0.7818608E-02  0.1093470E+00
          1   -1    0    0  502    0  0.00000000000E+00  0.00000000000E+00  0.32368888589E+02  0.32368888589E+02  0.00000000000E+00 0.  1.
         13   -1    0    0    0    0 -0.00000000000E+00 -0.00000000000E+00 -0.10000000000E+04  0.10000000000E+04  0.00000000000E+00 0.  1.
    9000005    2    1    2  501    0  0.61773209017E+01  0.27338228356E+02 -0.91552822184E+03  0.97320598531E+03  0.32886536277E+03 0.  0.
         13    1    3    3    0    0 -0.12977546456E+03 -0.79648351301E+02 -0.34700019118E+03  0.37893886544E+03  0.00000000000E+00 0.  1.
          3    1    3    3  501    0  0.13595278546E+03  0.10698657966E+03 -0.56852803066E+03  0.59426711986E+03  0.00000000000E+00 0.  1.
         21    1    1    2  502  501 -0.61773209017E+01 -0.27338228356E+02 -0.52102889570E+02  0.59162903282E+02  0.00000000000E+00 0. -1.
<mgrwt>
<rscale>  1 0.30000000E+03</rscale>
<asrwt>0</asrwt>
<pdfrwt beam="1">  1        1 0.11770530E+00 0.30000000E+03</pdfrwt>
<pdfrwt beam="2">0</pdfrwt>
<totfact> 0.26788587E+01</totfact>
</mgrwt>
</event>
<event>
 6    1  0.1929825E-004  0.3000000E+03  0.7818608E-02  0.1093470E+00
          1   -1    0    0  502    0  0.00000000000E+00  0.00000000000E+00  0.52083305622E+02  0.52083305622E+02  0.00000000000E+00 0.  1.
         13   -1    0    0    0    0 -0.00000000000E+00 -0.00000000000E+00 -0.10000000000E+04  0.10000000000E+04  0.00000000000E+00 0.  1.
    9000005    2    1    2  501    0 -0.98036673537E+01  0.30669111625E+01 -0.97381146924E+03  0.10242255024E+04  0.31721220690E+03 0.  0.
         13    1    3    3    0    0  0.48529532598E+02 -0.10031922599E+03 -0.12628010974E+03  0.16842128355E+03  0.00000000000E+00 0.  1.
          1    1    3    3  501    0 -0.58333199951E+02  0.10338613716E+03 -0.84753135950E+03  0.85580421880E+03  0.00000000000E+00 0.  1.
         21    1    1    2  502  501  0.98036673537E+01 -0.30669111625E+01  0.25894774864E+02  0.27857803268E+02  0.00000000000E+00 0.  1.
<mgrwt>
<rscale>  1 0.30000000E+03</rscale>
<asrwt>0</asrwt>
<pdfrwt beam="1">  1        1 0.18939424E+00 0.30000000E+03</pdfrwt>
<pdfrwt beam="2">0</pdfrwt>
<totfact> 0.11510802E+01</totfact>
</mgrwt>
</event>
<event>
 6    1  0.1929825E-004  0.3000000E+03  0.7818608E-02  0.1093470E+00
          1   -1    0    0  502    0  0.00000000000E+00  0.00000000000E+00  0.34371446107E+02  0.34371446107E+02  0.00000000000E+00 0.  1.
         13   -1    0    0    0    0 -0.00000000000E+00 -0.00000000000E+00 -0.10000000000E+04  0.10000000000E+04  0.00000000000E+00 0.  1.
    9000005    2    1    2  501    0  0.52274893854E+01 -0.16059480596E+02 -0.96044617652E+03  0.10167053600E+04  0.33308812278E+03 0.  0.
         13    1    3    3    0    0  0.72246670994E+02  0.12834176065E+03 -0.26406917611E+03  0.30236355397E+03  0.00000000000E+00 0.  1.
          1    1    3    3  501    0 -0.67019181608E+02 -0.14440124124E+03 -0.69637700041E+03  0.71434180606E+03  0.00000000000E+00 0.  1.
         21    1    1    2  502  501 -0.52274893854E+01  0.16059480596E+02 -0.51823773682E+01  0.17666086083E+02  0.00000000000E+00 0.  1.
<mgrwt>
<rscale>  1 0.30000000E+03</rscale>
<asrwt>0</asrwt>
<pdfrwt beam="1">  1        1 0.12498734E+00 0.30000000E+03</pdfrwt>
<pdfrwt beam="2">0</pdfrwt>
<totfact> 0.24377883E+01</totfact>
</mgrwt>
</event>
<event>
 6    1  0.1929825E-004  0.3000000E+03  0.7818608E-02  0.1093470E+00
          1   -1    0    0  502    0  0.00000000000E+00  0.00000000000E+00  0.35187574066E+02  0.35187574066E+02  0.00000000000E+00 0.  1.
         13   -1    0    0    0    0 -0.00000000000E+00 -0.00000000000E+00 -0.10000000000E+04  0.10000000000E+04  0.00000000000E+00 0.  1.
    9000005    2    1    2  501    0  0.77900636785E+01 -0.26853769653E+02 -0.95212517008E+03  0.10044829083E+04  0.31884441911E+03 0.  0.
         13    1    3    3    0    0  0.13751674015E+03  0.40608605827E+02 -0.68608414717E+03  0.70090753291E+03  0.00000000000E+00 0.  1.
          3    1    3    3  501    0 -0.12972667647E+03 -0.67462375479E+02 -0.26604102291E+03  0.30357537542E+03  0.00000000000E+00 0.  1.
         21    1    1    2  502  501 -0.77900636785E+01  0.26853769653E+02 -0.12687255858E+02  0.30704665735E+02  0.00000000000E+00 0. -1.
<mgrwt>
<rscale>  1 0.30000000E+03</rscale>
<asrwt>0</asrwt>
<pdfrwt beam="1">  1        1 0.12795508E+00 0.30000000E+03</pdfrwt>
<pdfrwt beam="2">0</pdfrwt>
<totfact> 0.23476237E+01</totfact>
</mgrwt>
</event>
<event>
 6    1  0.1929825E-004  0.3000000E+03  0.7818608E-02  0.1093470E+00
          1   -1    0    0  502    0  0.00000000000E+00  0.00000000000E+00  0.36361578368E+02  0.36361578368E+02  0.00000000000E+00 0.  1.
         13   -1    0    0    0    0 -0.00000000000E+00 -0.00000000000E+00 -0.10000000000E+04  0.10000000000E+04  0.00000000000E+00 0.  1.
    9000005    2    1    2  501    0 -0.18590034703E+02 -0.33696454478E+02 -0.93491192760E+03  0.98833812687E+03  0.31823089136E+03 0.  0.
         13    1    3    3    0    0  0.25546868726E+01 -0.16287757831E+03 -0.31357616159E+03  0.35336332727E+03  0.00000000000E+00 0.  1.
          3    1    3    3  501    0 -0.21144721575E+02  0.12918112383E+03 -0.62133576601E+03  0.63497479960E+03  0.00000000000E+00 0.  1.
         21    1    1    2  502  501  0.18590034703E+02  0.33696454478E+02 -0.28726494030E+02  0.48023451499E+02  0.00000000000E+00 0.  1.
<mgrwt>
<rscale>  1 0.30000000E+03</rscale>
<asrwt>0</asrwt>
<pdfrwt beam="1">  1        1 0.13222420E+00 0.30000000E+03</pdfrwt>
<pdfrwt beam="2">0</pdfrwt>
<totfact> 0.22253204E+01</totfact>
</mgrwt>
</event>
<event>
 6    1  0.1929825E-004  0.3000000E+03  0.7818608E-02  0.1093470E+00
          1   -1    0    0  502    0  0.00000000000E+00  0.00000000000E+00  0.25909196719E+02  0.25909196719E+02  0.00000000000E+00 0.  1.
         13   -1    0    0    0    0 -0.00000000000E+00 -0.00000000000E+00 -0.10000000000E+04  0.10000000000E+04  0.00000000000E+00 0.  1.
    9000005    2    1    2  501    0  0.48015586851E+01  0.10086287627E+02 -0.97889160502E+03  0.10137504196E+04  0.26331796498E+03 0.  0.
         13    1    3    3    0    0  0.79455818758E+02 -0.31865501236E+02 -0.10410830432E+03  0.13478566812E+03  0.00000000000E+00 0.  1.
          3    1    3    3  501    0 -0.74654260073E+02  0.41951788862E+02 -0.87478330070E+03  0.87896475147E+03  0.00000000000E+00 0.  1.
         21    1    1    2  502  501 -0.48015586851E+01 -0.10086287627E+02  0.48008017389E+01  0.12158777127E+02  0.00000000000E+00 0.  1.
<mgrwt>
<rscale>  1 0.30000000E+03</rscale>
<asrwt>0</asrwt>
<pdfrwt beam="1">  1        1 0.94215459E-01 0.30000000E+03</pdfrwt>
<pdfrwt beam="2">0</pdfrwt>
<totfact> 0.37313387E+01</totfact>
</mgrwt>
</event>
<event>
 6    1  0.1929825E-004  0.3000000E+03  0.7818608E-02  0.1093470E+00
          1   -1    0    0  502    0  0.00000000000E+00  0.00000000000E+00  0.42099191307E+02  0.42099191307E+02  0.00000000000E+00 0.  1.
         13   -1    0    0    0    0 -0.00000000000E+00 -0.00000000000E+00 -0.10000000000E+04  0.10000000000E+04  0.00000000000E+00 0.  1.
    9000005    2    1    2  501    0  0.31120417721E+02  0.44942044220E+02 -0.89201485467E+03  0.95648828853E+03  0.34086812317E+03 0.  0.
         13    1    3    3    0    0  0.14610036338E+02 -0.11078233627E+03 -0.10262970672E+03  0.15172025538E+03  0.00000000000E+00 0.  1.
          3    1    3    3  501    0  0.16510381382E+02  0.15572438049E+03 -0.78938514795E+03  0.80476803315E+03  0.00000000000E+00 0.  1.
         21    1    1    2  502  501 -0.31120417721E+02 -0.44942044220E+02 -0.65885954020E+02  0.85610902781E+02  0.00000000000E+00 0. -1.
<mgrwt>
<rscale>  1 0.30000000E+03</rscale>
<asrwt>0</asrwt>
<pdfrwt beam="1">  1        1 0.15308829E+00 0.30000000E+03</pdfrwt>
<pdfrwt beam="2">0</pdfrwt>
<totfact> 0.17329564E+01</totfact>
</mgrwt>
</event>
<event>
 6    1  0.1929825E-004  0.3000000E+03  0.7818608E-02  0.1093470E+00
          1   -1    0    0  502    0  0.00000000000E+00  0.00000000000E+00  0.35039221993E+02  0.35039221993E+02  0.00000000000E+00 0.  1.
         13   -1    0    0    0    0 -0.00000000000E+00 -0.00000000000E+00 -0.10000000000E+04  0.10000000000E+04  0.00000000000E+00 0.  1.
    9000005    2    1    2  501    0  0.10271247136E+02 -0.31559057108E+02 -0.93988947794E+03  0.99344544012E+03  0.32006271128E+03 0.  0.
         13    1    3    3    0    0 -0.41207441808E+01  0.43718408299E+01 -0.95266618444E+03  0.95268512768E+03  0.00000000000E+00 0.  1.
          1    1    3    3  501    0  0.14391991317E+02 -0.35930897938E+02  0.12776706507E+02  0.40760312436E+02  0.00000000000E+00 0.  1.
         21    1    1    2  502  501 -0.10271247136E+02  0.31559057108E+02 -0.25071300070E+02  0.41593781873E+02  0.00000000000E+00 0. -1.
<mgrwt>
<rscale>  1 0.30000000E+03</rscale>
<asrwt>0</asrwt>
<pdfrwt beam="1">  1        1 0.12741562E+00 0.30000000E+03</pdfrwt>
<pdfrwt beam="2">0</pdfrwt>
<totfact> 0.23636923E+01</totfact>
</mgrwt>
</event>
<event>
 6    1  0.1929825E-004  0.3000000E+03  0.7818608E-02  0.1093470E+00
          1   -1    0    0  502    0  0.00000000000E+00  0.00000000000E+00  0.43358135830E+02  0.43358135830E+02  0.00000000000E+00 0.  1.
         13   -1    0    0    0    0 -0.00000000000E+00 -0.00000000000E+00 -0.10000000000E+04  0.10000000000E+04  0.00000000000E+00 0.  1.
    9000005    2    1    2  501    0 -0.82165972422E+01  0.28259823039E+02 -0.96528556290E+03  0.10126849619E+04  0.30477612133E+03 0.  0.
         13    1    3    3    0    0 -0.68318257929E+02  0.12635700745E+03 -0.25101872129E+03  0.28921251034E+03  0.00000000000E+00 0.  1.
          3    1    3    3  501    0  0.60101660687E+02 -0.98097184413E+02 -0.71426684161E+03  0.72347245160E+03  0.00000000000E+00 0.  1.
         21    1    1    2  502  501  0.82165972422E+01 -0.28259823039E+02  0.86436987328E+01  0.30673173885E+02  0.00000000000E+00 0. -1.
<mgrwt>
<rscale>  1 0.30000000E+03</rscale>
<asrwt>0</asrwt>
<pdfrwt beam="1">  1        1 0.15766628E+00 0.30000000E+03</pdfrwt>
<pdfrwt beam="2">0</pdfrwt>
<totfact> 0.16436999E+01</totfact>
</mgrwt>
</event>
<event>
 6    1  0.1929825E-004  0.3000000E+03  0.7818608E-02  0.1093470E+00
          1   -1    0    0  502    0  0.00000000000E+00  0.00000000000E+00  0.36129507522E+02  0.36129507522E+02  0.00000000000E+00 0.  1.
         13   -1    0    0    0    0 -0.00000000000E+00 -0.00000000000E+00 -0.10000000000E+04  0.10000000000E+04  0.00000000000E+00 0.  1.
    9000005    2    1    2  501    0  0.32202864443E+00  0.12683069243E+02 -0.96979409400E+03  0.10221276147E+04  0.32261945387E+03 0.  0.
         13    1    3    3    0    0 -0.11449740305E+03  0.11566636709E+03 -0.59450480555E+03  0.61638001882E+03  0.00000000000E+00 0.  1.
          1    1    3    3  501    0  0.11481943169E+03 -0.10298329785E+03 -0.37528928845E+03  0.40574759587E+03  0.00000000000E+00 0.  1.
         21    1    1    2  502  501 -0.32202864443E+00 -0.12683069243E+02  0.59236015203E+01  0.14001892830E+02  0.00000000000E+00 0.  1.
<mgrwt>
<rscale>  1 0.30000000E+03</rscale>
<asrwt>0</asrwt>
<pdfrwt beam="1">  1        1 0.13138030E+00 0.30000000E+03</pdfrwt>
<pdfrwt beam="2">0</pdfrwt>
<totfact> 0.22488262E+01</totfact>
</mgrwt>
</event>
<event>
 6    1  0.1929825E-004  0.3000000E+03  0.7818608E-02  0.1093470E+00
          1   -1    0    0  502    0  0.00000000000E+00  0.00000000000E+00  0.36416266411E+02  0.36416266411E+02  0.00000000000E+00 0.  1.
         13   -1    0    0    0    0 -0.00000000000E+00 -0.00000000000E+00 -0.10000000000E+04  0.10000000000E+04  0.00000000000E+00 0.  1.
    9000005    2    1    2  501    0 -0.13041777989E+02 -0.33485854684E+01 -0.96773126334E+03  0.10223271571E+04  0.32934437468E+03 0.  0.
         13    1    3    3    0    0  0.32047017046E+02 -0.15576535292E+03 -0.61865354197E+03  0.63876604595E+03  0.00000000000E+00 0.  1.
          1    1    3    3  501    0 -0.45088795035E+02  0.15241676745E+03 -0.34907772137E+03  0.38356111116E+03  0.00000000000E+00 0.  1.
         21    1    1    2  502  501  0.13041777989E+02  0.33485854684E+01  0.41475297499E+01  0.14089109297E+02  0.00000000000E+00 0. -1.
<mgrwt>
<rscale>  1 0.30000000E+03</rscale>
<asrwt>0</asrwt>
<pdfrwt beam="1">  1        1 0.13242307E+00 0.30000000E+03</pdfrwt>
<pdfrwt beam="2">0</pdfrwt>
<totfact> 0.22198281E+01</totfact>
</mgrwt>
</event>
<event>
 6    1  0.1929825E-004  0.3000000E+03  0.7818608E-02  0.1093470E+00
          1   -1    0    0  502    0  0.00000000000E+00  0.00000000000E+00  0.72646235483E+02  0.72646235483E+02  0.00000000000E+00 0.  1.
         13   -1    0    0    0    0 -0.00000000000E+00 -0.00000000000E+00 -0.10000000000E+04  0.10000000000E+04  0.00000000000E+00 0.  1.
    9000005    2    1    2  501    0 -0.13445807457E+02  0.13728121412E+02 -0.97181054738E+03  0.10242142564E+04  0.32284648355E+03 0.  0.
         13    1    3    3    0    0 -0.61920518975E+02 -0.14487765818E+03 -0.46861493018E+03  0.49439219179E+03  0.00000000000E+00 0.  1.
          3    1    3    3  501    0  0.48474711519E+02  0.15860577959E+03 -0.50319561720E+03  0.52982206461E+03  0.00000000000E+00 0.  1.
         21    1    1    2  502  501  0.13445807457E+02 -0.13728121412E+02  0.44456782866E+02  0.48431979089E+02  0.00000000000E+00 0.  1.
<mgrwt>
<rscale>  1 0.30000000E+03</rscale>
<asrwt>0</asrwt>
<pdfrwt beam="1">  1        1 0.26416869E+00 0.30000000E+03</pdfrwt>
<pdfrwt beam="2">0</pdfrwt>
<totfact> 0.51216626E+00</totfact>
</mgrwt>
</event>
<event>
 6    1  0.1929825E-004  0.3000000E+03  0.7818608E-02  0.1093470E+00
          1   -1    0    0  502    0  0.00000000000E+00  0.00000000000E+00  0.29355613303E+02  0.29355613303E+02  0.00000000000E+00 0.  1.
         13   -1    0    0    0    0 -0.00000000000E+00 -0.00000000000E+00 -0.10000000000E+04  0.10000000000E+04  0.00000000000E+00 0.  1.
    9000005    2    1    2  501    0  0.12092189042E+02 -0.44519066114E+01 -0.94765623717E+03  0.10030023303E+04  0.32832193067E+03 0.  0.
         13    1    3    3    0    0  0.13691438225E+03 -0.91091720277E+02 -0.35599830876E+03  0.39214543911E+03  0.00000000000E+00 0.  1.
          3    1    3    3  501    0 -0.12482219320E+03  0.86639813665E+02 -0.59165792840E+03  0.61085689116E+03  0.00000000000E+00 0.  1.
         21    1    1    2  502  501 -0.12092189042E+02  0.44519066114E+01 -0.22988149528E+02  0.26353283040E+02  0.00000000000E+00 0. -1.
<mgrwt>
<rscale>  1 0.30000000E+03</rscale>
<asrwt>0</asrwt>
<pdfrwt beam="1">  1        1 0.10674791E+00 0.30000000E+03</pdfrwt>
<pdfrwt beam="2">0</pdfrwt>
<totfact> 0.31079040E+01</totfact>
</mgrwt>
</event>
<event>
 6    1  0.1929825E-004  0.3000000E+03  0.7818608E-02  0.1093470E+00
          1   -1    0    0  502    0  0.00000000000E+00  0.00000000000E+00  0.27359759921E+02  0.27359759921E+02  0.00000000000E+00 0.  1.
         13   -1    0    0    0    0 -0.00000000000E+00 -0.00000000000E+00 -0.10000000000E+04  0.10000000000E+04  0.00000000000E+00 0.  1.
    9000005    2    1    2  501    0 -0.39722484532E+01  0.94636720385E+01 -0.95825671269E+03  0.10096898503E+04  0.31798164494E+03 0.  0.
         13    1    3    3    0    0  0.13817687383E+03 -0.70388971018E+02 -0.45991994893E+03  0.48535947001E+03  0.00000000000E+00 0.  1.
          1    1    3    3  501    0 -0.14214912229E+03  0.79852643056E+02 -0.49833676376E+03  0.52433038028E+03  0.00000000000E+00 0.  1.
         21    1    1    2  502  501  0.39722484532E+01 -0.94636720385E+01 -0.14383527391E+02  0.17669909633E+02  0.00000000000E+00 0. -1.
<mgrwt>
<rscale>  1 0.30000000E+03</rscale>
<asrwt>0</asrwt>
<pdfrwt beam="1">  1        1 0.99490246E-01 0.30000000E+03</pdfrwt>
<pdfrwt beam="2">0</pdfrwt>
<totfact> 0.34483457E+01</totfact>
</mgrwt>
</event>
<event>
 6    1  0.1929825E-004  0.3000000E+03  0.7818608E-02  0.1093470E+00
          3   -1    0    0  502    0  0.00000000000E+00  0.00000000000E+00  0.12969189821E+02  0.12969189821E+02  0.00000000000E+00 0.  1.
         13   -1    0    0    0    0 -0.00000000000E+00 -0.00000000000E+00 -0.10000000000E+04  0.10000000000E+04  0.00000000000E+00 0.  1.
    9000005    2    1    2  501    0 -0.40272181676E+01  0.13095626286E+02 -0.96474371243E+03  0.98680760271E+03  0.20705337521E+03 0.  0.
         13    1    3    3    0    0 -0.22176430744E+01 -0.39556184891E+02 -0.90989045177E+03  0.91075257009E+03  0.00000000000E+00 0.  1.
          1    1    3    3  501    0 -0.18095750932E+01  0.52651811177E+02 -0.54853260662E+02  0.76055032625E+02  0.00000000000E+00 0.  1.
         21    1    1    2  502  501  0.40272181676E+01 -0.13095626286E+02 -0.22287097749E+02  0.26161587109E+02  0.00000000000E+00 0.  1.
<mgrwt>
<rscale>  1 0.30000000E+03</rscale>
<asrwt>0</asrwt>
<pdfrwt beam="1">  1        3 0.47160790E-01 0.30000000E+03</pdfrwt>
<pdfrwt beam="2">0</pdfrwt>
<totfact> 0.19562097E+01</totfact>
</mgrwt>
</event>
<event>
 6    1  0.1929825E-004  0.3000000E+03  0.7818608E-02  0.1093470E+00
          1   -1    0    0  502    0  0.00000000000E+00  0.00000000000E+00  0.48099715101E+02  0.48099715101E+02  0.00000000000E+00 0.  1.
         13   -1    0    0    0    0 -0.00000000000E+00 -0.00000000000E+00 -0.10000000000E+04  0.10000000000E+04  0.00000000000E+00 0.  1.
    9000005    2    1    2  501    0 -0.87108579802E+01  0.73550694028E+01 -0.97233856794E+03  0.10246967344E+04  0.32315805832E+03 0.  0.
         13    1    3    3    0    0  0.74810560826E+02 -0.13351010296E+03 -0.57294411894E+03  0.59303164421E+03  0.00000000000E+00 0.  1.
          1    1    3    3  501    0 -0.83521418806E+02  0.14086517236E+03 -0.39939444900E+03  0.43166509018E+03  0.00000000000E+00 0.  1.
         21    1    1    2  502  501  0.87108579802E+01 -0.73550694028E+01  0.20438283043E+02  0.23402980717E+02  0.00000000000E+00 0.  1.
<mgrwt>
<rscale>  1 0.30000000E+03</rscale>
<asrwt>0</asrwt>
<pdfrwt beam="1">  1        1 0.17490842E+00 0.30000000E+03</pdfrwt>
<pdfrwt beam="2">0</pdfrwt>
<totfact> 0.13521698E+01</totfact>
</mgrwt>
</event>
<event>
 6    1  0.1929825E-004  0.3000000E+03  0.7818608E-02  0.1093470E+00
          1   -1    0    0  502    0  0.00000000000E+00  0.00000000000E+00  0.29177723113E+02  0.29177723113E+02  0.00000000000E+00 0.  1.
         13   -1    0    0    0    0 -0.00000000000E+00 -0.00000000000E+00 -0.10000000000E+04  0.10000000000E+04  0.00000000000E+00 0.  1.
    9000005    2    1    2  501    0 -0.14073417358E+02 -0.52881310297E+00 -0.94596280314E+03  0.10006061611E+04  0.32583542477E+03 0.  0.
         13    1    3    3    0    0 -0.10243557887E+03 -0.13137290992E+03 -0.53600129434E+03  0.56129250557E+03  0.00000000000E+00 0.  1.
          3    1    3    3  501    0  0.88362161508E+02  0.13084409681E+03 -0.40996150880E+03  0.43931365555E+03  0.00000000000E+00 0.  1.
         21    1    1    2  502  501  0.14073417358E+02  0.52881310297E+00 -0.24859473750E+02  0.28571561990E+02  0.00000000000E+00 0. -1.
<mgrwt>
<rscale>  1 0.30000000E+03</rscale>
<asrwt>0</asrwt>
<pdfrwt beam="1">  1        1 0.10610104E+00 0.30000000E+03</pdfrwt>
<pdfrwt beam="2">0</pdfrwt>
<totfact> 0.31362179E+01</totfact>
</mgrwt>
</event>
<event>
 6    1  0.1929825E-004  0.3000000E+03  0.7818608E-02  0.1093470E+00
          1   -1    0    0  502    0  0.00000000000E+00  0.00000000000E+00  0.26965946340E+02  0.26965946340E+02  0.00000000000E+00 0.  1.
         13   -1    0    0    0    0 -0.00000000000E+00 -0.00000000000E+00 -0.10000000000E+04  0.10000000000E+04  0.00000000000E+00 0.  1.
    9000005    2    1    2  501    0  0.31593458594E+01 -0.81808862263E+01 -0.93606011174E+03  0.98896619967E+03  0.31901207334E+03 0.  0.
         13    1    3    3    0    0  0.10936512262E+03 -0.12132952965E+03 -0.51034673616E+03  0.53585014316E+03  0.00000000000E+00 0.  1.
          3    1    3    3  501    0 -0.10620577676E+03  0.11314864342E+03 -0.42571337557E+03  0.45311605651E+03  0.00000000000E+00 0.  1.
         21    1    1    2  502  501 -0.31593458594E+01  0.81808862263E+01 -0.36973941923E+02  0.37999746671E+02  0.00000000000E+00 0. -1.
<mgrwt>
<rscale>  1 0.30000000E+03</rscale>
<asrwt>0</asrwt>
<pdfrwt beam="1">  1        1 0.98058193E-01 0.30000000E+03</pdfrwt>
<pdfrwt beam="2">0</pdfrwt>
<totfact> 0.35219422E+01</totfact>
</mgrwt>
</event>
<event>
 6    1  0.1929825E-004  0.3000000E+03  0.7818608E-02  0.1093470E+00
          1   -1    0    0  502    0  0.00000000000E+00  0.00000000000E+00  0.28085903955E+02  0.28085903955E+02  0.00000000000E+00 0.  1.
         13   -1    0    0    0    0 -0.00000000000E+00 -0.00000000000E+00 -0.10000000000E+04  0.10000000000E+04  0.00000000000E+00 0.  1.
    9000005    2    1    2  501    0  0.35152822693E+01 -0.72392606940E+01 -0.95367739216E+03  0.10081524779E+04  0.32681200455E+03 0.  0.
         13    1    3    3    0    0 -0.15310672728E+03  0.48496815470E+02 -0.45868133414E+03  0.48598577894E+03  0.00000000000E+00 0.  1.
          1    1    3    3  501    0  0.15662200955E+03 -0.55736076164E+02 -0.49499605803E+03  0.52216669898E+03  0.00000000000E+00 0.  1.
         21    1    1    2  502  501 -0.35152822693E+01  0.72392606940E+01 -0.18236703883E+02  0.19933426031E+02  0.00000000000E+00 0.  1.
<mgrwt>
<rscale>  1 0.30000000E+03</rscale>
<asrwt>0</asrwt>
<pdfrwt beam="1">  1        1 0.10213078E+00 0.30000000E+03</pdfrwt>
<pdfrwt beam="2">0</pdfrwt>
<totfact> 0.33184568E+01</totfact>
</mgrwt>
</event>
<event>
 6    1  0.1929825E-004  0.3000000E+03  0.7818608E-02  0.1093470E+00
          1   -1    0    0  502    0  0.00000000000E+00  0.00000000000E+00  0.31474696678E+02  0.31474696678E+02  0.00000000000E+00 0.  1.
         13   -1    0    0    0    0 -0.00000000000E+00 -0.00000000000E+00 -0.10000000000E+04  0.10000000000E+04  0.00000000000E+00 0.  1.
    9000005    2    1    2  501    0  0.14113421893E+02 -0.13741789350E+02 -0.90060922246E+03  0.96075963823E+03  0.33402707287E+03 0.  0.
         13    1    3    3    0    0  0.15773881450E+03  0.24908890166E+02 -0.27772831186E+03  0.32036697960E+03  0.00000000000E+00 0.  1.
          1    1    3    3  501    0 -0.14362539261E+03 -0.38650679516E+02 -0.62288091061E+03  0.64039265863E+03  0.00000000000E+00 0.  1.
         21    1    1    2  502  501 -0.14113421893E+02  0.13741789350E+02 -0.67916080858E+02  0.70715058447E+02  0.00000000000E+00 0. -1.
<mgrwt>
<rscale>  1 0.30000000E+03</rscale>
<asrwt>0</asrwt>
<pdfrwt beam="1">  1        1 0.11445368E+00 0.30000000E+03</pdfrwt>
<pdfrwt beam="2">0</pdfrwt>
<totfact> 0.27969553E+01</totfact>
</mgrwt>
</event>
<event>
 6    1  0.1929825E-004  0.3000000E+03  0.7818608E-02  0.1093470E+00
          1   -1    0    0  502    0  0.00000000000E+00  0.00000000000E+00  0.58258897089E+02  0.58258897089E+02  0.00000000000E+00 0.  1.
         13   -1    0    0    0    0 -0.00000000000E+00 -0.00000000000E+00 -0.10000000000E+04  0.10000000000E+04  0.00000000000E+00 0.  1.
    9000005    2    1    2  501    0  0.33030264029E+01  0.94345641328E+01 -0.98378355552E+03  0.10150444457E+04  0.24977033801E+03 0.  0.
         13    1    3    3    0    0  0.44735471715E+02 -0.57104320444E+02 -0.80484704594E+02  0.10835106606E+03  0.00000000000E+00 0.  1.
          3    1    3    3  501    0 -0.41432445312E+02  0.66538884576E+02 -0.90329885092E+03  0.90669337968E+03  0.00000000000E+00 0.  1.
         21    1    1    2  502  501 -0.33030264029E+01 -0.94345641328E+01  0.42042452606E+02  0.43214451344E+02  0.00000000000E+00 0.  1.
<mgrwt>
<rscale>  1 0.30000000E+03</rscale>
<asrwt>0</asrwt>
<pdfrwt beam="1">  1        1 0.21185098E+00 0.30000000E+03</pdfrwt>
<pdfrwt beam="2">0</pdfrwt>
<totfact> 0.90027672E+00</totfact>
</mgrwt>
</event>
<event>
 6    1  0.1929825E-004  0.3000000E+03  0.7818608E-02  0.1093470E+00
          1   -1    0    0  502    0  0.00000000000E+00  0.00000000000E+00  0.29500607398E+02  0.29500607398E+02  0.00000000000E+00 0.  1.
         13   -1    0    0    0    0 -0.00000000000E+00 -0.00000000000E+00 -0.10000000000E+04  0.10000000000E+04  0.00000000000E+00 0.  1.
    9000005    2    1    2  501    0  0.28987417856E+00  0.94366549272E+01 -0.95492782499E+03  0.10112904948E+04  0.33276445037E+03 0.  0.
         13    1    3    3    0    0  0.97021048739E+02 -0.20122146790E+02 -0.71740684105E+02  0.12233033330E+03  0.00000000000E+00 0.  1.
          1    1    3    3  501    0 -0.96731174561E+02  0.29558801717E+02 -0.88318714088E+03  0.88896016149E+03  0.00000000000E+00 0.  1.
         21    1    1    2  502  501 -0.28987417856E+00 -0.94366549272E+01 -0.15571567615E+02  0.18210112609E+02  0.00000000000E+00 0. -1.
<mgrwt>
<rscale>  1 0.30000000E+03</rscale>
<asrwt>0</asrwt>
<pdfrwt beam="1">  1        1 0.10727516E+00 0.30000000E+03</pdfrwt>
<pdfrwt beam="2">0</pdfrwt>
<totfact> 0.30850970E+01</totfact>
</mgrwt>
</event>
<event>
 6    1  0.1929825E-004  0.3000000E+03  0.7818608E-02  0.1093470E+00
          1   -1    0    0  502    0  0.00000000000E+00  0.00000000000E+00  0.84498901528E+02  0.84498901528E+02  0.00000000000E+00 0.  1.
         13   -1    0    0    0    0 -0.00000000000E+00 -0.00000000000E+00 -0.10000000000E+04  0.10000000000E+04  0.00000000000E+00 0.  1.
    9000005    2    1    2  501    0  0.96688513853E+01  0.99492373660E+02 -0.92075785311E+03  0.98439968788E+03  0.33354984984E+03 0.  0.
         13    1    3    3    0    0  0.80977440954E+02 -0.90529965693E+02 -0.18616813449E+03  0.22228719021E+03  0.00000000000E+00 0.  1.
          1    1    3    3  501    0 -0.71308589569E+02  0.19002233935E+03 -0.73458971862E+03  0.76211249767E+03  0.00000000000E+00 0.  1.
         21    1    1    2  502  501 -0.96688513853E+01 -0.99492373660E+02  0.52567546405E+01  0.10009921365E+03  0.00000000000E+00 0.  1.
<mgrwt>
<rscale>  1 0.30000000E+03</rscale>
<asrwt>0</asrwt>
<pdfrwt beam="1">  1        1 0.30726938E+00 0.30000000E+03</pdfrwt>
<pdfrwt beam="2">0</pdfrwt>
<totfact> 0.32081331E+00</totfact>
</mgrwt>
</event>
<event>
 6    1  0.1929825E-004  0.3000000E+03  0.7818608E-02  0.1093470E+00
          1   -1    0    0  502    0  0.00000000000E+00  0.00000000000E+00  0.39870672745E+02  0.39870672745E+02  0.00000000000E+00 0.  1.
         13   -1    0    0    0    0 -0.00000000000E+00 -0.00000000000E+00 -0.10000000000E+04  0.10000000000E+04  0.00000000000E+00 0.  1.
    9000005    2    1    2  501    0  0.13850787120E+02 -0.41730527304E+02 -0.92001023120E+03  0.98034905414E+03  0.33575610379E+03 0.  0.
         13    1    3    3    0    0 -0.13313396555E+03 -0.73438322843E+02 -0.24150011429E+03  0.28537719819E+03  0.00000000000E+00 0.  1.
          3    1    3    3  501    0  0.14698475267E+03  0.31707795538E+02 -0.67851011691E+03  0.69497185595E+03  0.00000000000E+00 0.  1.
         21    1    1    2  502  501 -0.13850787120E+02  0.41730527304E+02 -0.40119096058E+02  0.59521618606E+02  0.00000000000E+00 0. -1.
<mgrwt>
<rscale>  1 0.30000000E+03</rscale>
<asrwt>0</asrwt>
<pdfrwt beam="1">  1        1 0.14498457E+00 0.30000000E+03</pdfrwt>
<pdfrwt beam="2">0</pdfrwt>
<totfact> 0.19059689E+01</totfact>
</mgrwt>
</event>
<event>
 6    1  0.1929825E-004  0.3000000E+03  0.7818608E-02  0.1093470E+00
          1   -1    0    0  502    0  0.00000000000E+00  0.00000000000E+00  0.32059118302E+02  0.32059118302E+02  0.00000000000E+00 0.  1.
         13   -1    0    0    0    0 -0.00000000000E+00 -0.00000000000E+00 -0.10000000000E+04  0.10000000000E+04  0.00000000000E+00 0.  1.
    9000005    2    1    2  501    0  0.53728018368E+01 -0.84279111508E+01 -0.95529601195E+03  0.10159411340E+04  0.34560963628E+03 0.  0.
         13    1    3    3    0    0 -0.16727901402E+03 -0.35361335552E+02 -0.46487381762E+03  0.49531844190E+03  0.00000000000E+00 0.  1.
          1    1    3    3  501    0  0.17265181585E+03  0.26933424401E+02 -0.49042219434E+03  0.52062269213E+03  0.00000000000E+00 0.  1.
         21    1    1    2  502  501 -0.53728018368E+01  0.84279111508E+01 -0.12644869745E+02  0.16117984266E+02  0.00000000000E+00 0.  1.
<mgrwt>
<rscale>  1 0.30000000E+03</rscale>
<asrwt>0</asrwt>
<pdfrwt beam="1">  1        1 0.11657886E+00 0.30000000E+03</pdfrwt>
<pdfrwt beam="2">0</pdfrwt>
<totfact> 0.27189734E+01</totfact>
</mgrwt>
</event>
<event>
 6    1  0.1929825E-004  0.3000000E+03  0.7818608E-02  0.1093470E+00
          1   -1    0    0  502    0  0.00000000000E+00  0.00000000000E+00  0.56411795648E+02  0.56411795648E+02  0.00000000000E+00 0.  1.
         13   -1    0    0    0    0 -0.00000000000E+00 -0.00000000000E+00 -0.10000000000E+04  0.10000000000E+04  0.00000000000E+00 0.  1.
    9000005    2    1    2  501    0  0.18812033756E+01 -0.71187240869E+02 -0.75872267601E+03  0.85830468886E+03  0.39491224044E+03 0.  0.
         13    1    3    3    0    0  0.24927123837E+02  0.14291202010E+02  0.42995762780E+02  0.51713011657E+02  0.00000000000E+00 0.  1.
          1    1    3    3  501    0 -0.23045920462E+02 -0.85478442879E+02 -0.80171843879E+03  0.80659167721E+03  0.00000000000E+00 0.  1.
         21    1    1    2  502  501 -0.18812033756E+01  0.71187240869E+02 -0.18486552834E+03  0.19810710679E+03  0.00000000000E+00 0.  1.
<mgrwt>
<rscale>  1 0.30000000E+03</rscale>
<asrwt>0</asrwt>
<pdfrwt beam="1">  1        1 0.20513423E+00 0.30000000E+03</pdfrwt>
<pdfrwt beam="2">0</pdfrwt>
<totfact> 0.96845799E+00</totfact>
</mgrwt>
</event>
<event>
 6    1  0.1929825E-004  0.3000000E+03  0.7818608E-02  0.1093470E+00
          1   -1    0    0  502    0  0.00000000000E+00  0.00000000000E+00  0.26437222948E+02  0.26437222948E+02  0.00000000000E+00 0.  1.
         13   -1    0    0    0    0 -0.00000000000E+00 -0.00000000000E+00 -0.10000000000E+04  0.10000000000E+04  0.00000000000E+00 0.  1.
    9000005    2    1    2  501    0  0.89110047050E+01  0.76925000569E+00 -0.95988137958E+03  0.10100916307E+04  0.31437691028E+03 0.  0.
         13    1    3    3    0    0  0.57178364515E+02 -0.42897021171E+02 -0.29326081208E+02  0.77262790741E+02  0.00000000000E+00 0.  1.
          3    1    3    3  501    0 -0.48267359810E+02  0.43666271177E+02 -0.93055529837E+03  0.93282883992E+03  0.00000000000E+00 0.  1.
         21    1    1    2  502  501 -0.89110047050E+01 -0.76925000569E+00 -0.13681397476E+02  0.16345592290E+02  0.00000000000E+00 0.  1.
<mgrwt>
<rscale>  1 0.30000000E+03</rscale>
<asrwt>0</asrwt>
<pdfrwt beam="1">  1        1 0.96135559E-01 0.30000000E+03</pdfrwt>
<pdfrwt beam="2">0</pdfrwt>
<totfact> 0.36244622E+01</totfact>
</mgrwt>
</event>
<event>
 6    1  0.1929825E-004  0.3000000E+03  0.7818608E-02  0.1093470E+00
          1   -1    0    0  502    0  0.00000000000E+00  0.00000000000E+00  0.50448490572E+02  0.50448490572E+02  0.00000000000E+00 0.  1.
         13   -1    0    0    0    0 -0.00000000000E+00 -0.00000000000E+00 -0.10000000000E+04  0.10000000000E+04  0.00000000000E+00 0.  1.
    9000005    2    1    2  501    0 -0.75468488913E+02  0.58060411908E+02 -0.83507115269E+03  0.90154497708E+03  0.32614875656E+03 0.  0.
         13    1    3    3    0    0 -0.52386935312E+02 -0.12623593568E+03 -0.21959446334E+03  0.25865349558E+03  0.00000000000E+00 0.  1.
          3    1    3    3  501    0 -0.23081553601E+02  0.18429634759E+03 -0.61547668935E+03  0.64289148150E+03  0.00000000000E+00 0.  1.
         21    1    1    2  502  501  0.75468488913E+02 -0.58060411908E+02 -0.11448035674E+03  0.14890351349E+03  0.00000000000E+00 0.  1.
<mgrwt>
<rscale>  1 0.30000000E+03</rscale>
<asrwt>0</asrwt>
<pdfrwt beam="1">  1        1 0.18344944E+00 0.30000000E+03</pdfrwt>
<pdfrwt beam="2">0</pdfrwt>
<totfact> 0.12293875E+01</totfact>
</mgrwt>
</event>
<event>
 6    1  0.1929825E-004  0.3000000E+03  0.7818608E-02  0.1093470E+00
          1   -1    0    0  502    0  0.00000000000E+00  0.00000000000E+00  0.30154730964E+02  0.30154730964E+02  0.00000000000E+00 0.  1.
         13   -1    0    0    0    0 -0.00000000000E+00 -0.00000000000E+00 -0.10000000000E+04  0.10000000000E+04  0.00000000000E+00 0.  1.
    9000005    2    1    2  501    0 -0.13889543285E+02  0.18662896687E+02 -0.92298355831E+03  0.97783606262E+03  0.32206131919E+03 0.  0.
         13    1    3    3    0    0  0.72620298717E+02 -0.28987305209E+02 -0.37247041304E+02  0.86610124899E+02  0.00000000000E+00 0.  1.
          1    1    3    3  501    0 -0.86509842002E+02  0.47650201896E+02 -0.88573651701E+03  0.89122593772E+03  0.00000000000E+00 0.  1.
         21    1    1    2  502  501  0.13889543285E+02 -0.18662896687E+02 -0.46861710722E+02  0.52318668343E+02  0.00000000000E+00 0. -1.
<mgrwt>
<rscale>  1 0.30000000E+03</rscale>
<asrwt>0</asrwt>
<pdfrwt beam="1">  1        1 0.10965380E+00 0.30000000E+03</pdfrwt>
<pdfrwt beam="2">0</pdfrwt>
<totfact> 0.29851281E+01</totfact>
</mgrwt>
</event>
<event>
 6    1  0.1929825E-004  0.3000000E+03  0.7818608E-02  0.1093470E+00
          3   -1    0    0  502    0  0.00000000000E+00  0.00000000000E+00  0.44074528939E+02  0.44074528939E+02  0.00000000000E+00 0.  1.
         13   -1    0    0    0    0 -0.00000000000E+00 -0.00000000000E+00 -0.10000000000E+04  0.10000000000E+04  0.00000000000E+00 0.  1.
    9000005    2    1    2  501    0 -0.20447289408E+02  0.28629733401E+01 -0.96891267227E+03  0.10196828161E+04  0.31707253223E+03 0.  0.
         13    1    3    3    0    0 -0.16589320890E+03 -0.14357631373E+02 -0.60239431467E+03  0.62498448676E+03  0.00000000000E+00 0.  1.
          1    1    3    3  501    0  0.14544591950E+03  0.17220604713E+02 -0.36651835759E+03  0.39469832933E+03  0.00000000000E+00 0.  1.
         21    1    1    2  502  501  0.20447289408E+02 -0.28629733401E+01  0.12987201206E+02  0.24391712847E+02  0.00000000000E+00 0.  1.
<mgrwt>
<rscale>  1 0.30000000E+03</rscale>
<asrwt>0</asrwt>
<pdfrwt beam="1">  1        3 0.16027135E+00 0.30000000E+03</pdfrwt>
<pdfrwt beam="2">0</pdfrwt>
<totfact> 0.70149292E-01</totfact>
</mgrwt>
</event>
<event>
 6    1  0.1929825E-004  0.3000000E+03  0.7818608E-02  0.1093470E+00
          1   -1    0    0  502    0  0.00000000000E+00  0.00000000000E+00  0.57743242970E+02  0.57743242970E+02  0.00000000000E+00 0.  1.
         13   -1    0    0    0    0 -0.00000000000E+00 -0.00000000000E+00 -0.10000000000E+04  0.10000000000E+04  0.00000000000E+00 0.  1.
    9000005    2    1    2  501    0  0.39851677376E+01  0.98507637760E+01 -0.97407051143E+03  0.10242017153E+04  0.31632716177E+03 0.  0.
         13    1    3    3    0    0 -0.15300115566E+03  0.60504336657E+01 -0.37905945138E+03  0.40881784337E+03  0.00000000000E+00 0.  1.
          1    1    3    3  501    0  0.15698632340E+03  0.38003301103E+01 -0.59501106006E+03  0.61538387193E+03  0.00000000000E+00 0.  1.
         21    1    1    2  502  501 -0.39851677376E+01 -0.98507637760E+01  0.31813754404E+02  0.33541527666E+02  0.00000000000E+00 0.  1.
<mgrwt>
<rscale>  1 0.30000000E+03</rscale>
<asrwt>0</asrwt>
<pdfrwt beam="1">  1        1 0.20997587E+00 0.30000000E+03</pdfrwt>
<pdfrwt beam="2">0</pdfrwt>
<totfact> 0.91877204E+00</totfact>
</mgrwt>
</event>
<event>
 6    1  0.1929825E-004  0.3000000E+03  0.7818608E-02  0.1093470E+00
          1   -1    0    0  502    0  0.00000000000E+00  0.00000000000E+00  0.34768080640E+02  0.34768080640E+02  0.00000000000E+00 0.  1.
         13   -1    0    0    0    0 -0.00000000000E+00 -0.00000000000E+00 -0.10000000000E+04  0.10000000000E+04  0.00000000000E+00 0.  1.
    9000005    2    1    2  501    0  0.56949934080E+01 -0.13941594545E+02 -0.96689974933E+03  0.10196160951E+04  0.32325694915E+03 0.  0.
         13    1    3    3    0    0 -0.11146511011E+03 -0.19994091749E+02 -0.12140985626E+03  0.16602586447E+03  0.00000000000E+00 0.  1.
          3    1    3    3  501    0  0.11716010352E+03  0.60524972035E+01 -0.84548989307E+03  0.85359023065E+03  0.00000000000E+00 0.  1.
         21    1    1    2  502  501 -0.56949934080E+01  0.13941594545E+02  0.16678299668E+01  0.15151985519E+02  0.00000000000E+00 0.  1.
<mgrwt>
<rscale>  1 0.30000000E+03</rscale>
<asrwt>0</asrwt>
<pdfrwt beam="1">  1        1 0.12642965E+00 0.30000000E+03</pdfrwt>
<pdfrwt beam="2">0</pdfrwt>
<totfact> 0.23934267E+01</totfact>
</mgrwt>
</event>
<event>
 6    1  0.1929825E-004  0.3000000E+03  0.7818608E-02  0.1093470E+00
          1   -1    0    0  502    0  0.00000000000E+00  0.00000000000E+00  0.40276218035E+02  0.40276218035E+02  0.00000000000E+00 0.  1.
         13   -1    0    0    0    0 -0.00000000000E+00 -0.00000000000E+00 -0.10000000000E+04  0.10000000000E+04  0.00000000000E+00 0.  1.
    9000005    2    1    2  501    0  0.18955105286E+02  0.59161180561E+02 -0.86290465013E+03  0.92524019936E+03  0.32803300140E+03 0.  0.
         13    1    3    3    0    0  0.91119154185E+02  0.14851243749E+03 -0.27017772126E+03  0.32148817305E+03  0.00000000000E+00 0.  1.
          1    1    3    3  501    0 -0.72164048899E+02 -0.89351256930E+02 -0.59272692887E+03  0.60375202631E+03  0.00000000000E+00 0.  1.
         21    1    1    2  502  501 -0.18955105286E+02 -0.59161180561E+02 -0.96819131839E+02  0.11503601867E+03  0.00000000000E+00 0.  1.
<mgrwt>
<rscale>  1 0.30000000E+03</rscale>
<asrwt>0</asrwt>
<pdfrwt beam="1">  1        1 0.14645928E+00 0.30000000E+03</pdfrwt>
<pdfrwt beam="2">0</pdfrwt>
<totfact> 0.18729328E+01</totfact>
</mgrwt>
</event>
<event>
 6    1  0.1929825E-004  0.3000000E+03  0.7818608E-02  0.1093470E+00
          1   -1    0    0  502    0  0.00000000000E+00  0.00000000000E+00  0.33944369309E+02  0.33944369309E+02  0.00000000000E+00 0.  1.
         13   -1    0    0    0    0 -0.00000000000E+00 -0.00000000000E+00 -0.10000000000E+04  0.10000000000E+04  0.00000000000E+00 0.  1.
    9000005    2    1    2  501    0  0.10203072396E+02  0.24037901065E+01 -0.96987619296E+03  0.10227874168E+04  0.32453719263E+03 0.  0.
         13    1    3    3    0    0 -0.12000647518E+03 -0.82661724095E+02 -0.66207716940E+03  0.67792381059E+03  0.00000000000E+00 0.  1.
          3    1    3    3  501    0  0.13020954758E+03  0.85065514201E+02 -0.30779902356E+03  0.34486360621E+03  0.00000000000E+00 0.  1.
         21    1    1    2  502  501 -0.10203072396E+02 -0.24037901065E+01  0.38205622712E+01  0.11156952508E+02  0.00000000000E+00 0.  1.
<mgrwt>
<rscale>  1 0.30000000E+03</rscale>
<asrwt>0</asrwt>
<pdfrwt beam="1">  1        1 0.12343433E+00 0.30000000E+03</pdfrwt>
<pdfrwt beam="2">0</pdfrwt>
<totfact> 0.24867307E+01</totfact>
</mgrwt>
</event>
<event>
 6    1  0.1929825E-004  0.3000000E+03  0.7818608E-02  0.1093470E+00
          1   -1    0    0  502    0  0.00000000000E+00  0.00000000000E+00  0.48715297520E+02  0.48715297520E+02  0.00000000000E+00 0.  1.
         13   -1    0    0    0    0 -0.00000000000E+00 -0.00000000000E+00 -0.10000000000E+04  0.10000000000E+04  0.00000000000E+00 0.  1.
    9000005    2    1    2  501    0  0.10821123941E+02 -0.10157413324E+02 -0.94609684443E+03  0.10329932226E+04  0.41443393819E+03 0.  0.
         13    1    3    3    0    0  0.20576082349E+03 -0.57913049261E+02 -0.50549091292E+03  0.54882829811E+03  0.00000000000E+00 0.  1.
          1    1    3    3  501    0 -0.19493969955E+03  0.47755635937E+02 -0.44060593151E+03  0.48416492449E+03  0.00000000000E+00 0.  1.
         21    1    1    2  502  501 -0.10821123941E+02  0.10157413324E+02 -0.51878580497E+01  0.15722074924E+02  0.00000000000E+00 0.  1.
<mgrwt>
<rscale>  1 0.30000000E+03</rscale>
<asrwt>0</asrwt>
<pdfrwt beam="1">  1        1 0.17714691E+00 0.30000000E+03</pdfrwt>
<pdfrwt beam="2">0</pdfrwt>
<totfact> 0.13187489E+01</totfact>
</mgrwt>
</event>
<event>
 6    1  0.1929825E-004  0.3000000E+03  0.7818608E-02  0.1093470E+00
          1   -1    0    0  502    0  0.00000000000E+00  0.00000000000E+00  0.32375817869E+02  0.32375817869E+02  0.00000000000E+00 0.  1.
         13   -1    0    0    0    0 -0.00000000000E+00 -0.00000000000E+00 -0.10000000000E+04  0.10000000000E+04  0.00000000000E+00 0.  1.
    9000005    2    1    2  501    0 -0.10726457595E+02  0.85454374175E+00 -0.96565900483E+03  0.10214373966E+04  0.33274803452E+03 0.  0.
         13    1    3    3    0    0  0.73620243570E+02 -0.11556626185E+03 -0.74892659589E+03  0.76135835660E+03  0.00000000000E+00 0.  1.
          3    1    3    3  501    0 -0.84346701165E+02  0.11642080559E+03 -0.21673240894E+03  0.26007904002E+03  0.00000000000E+00 0.  1.
         21    1    1    2  502  501  0.10726457595E+02 -0.85454374175E+00 -0.19651773036E+01  0.10938421247E+02  0.00000000000E+00 0. -1.
<mgrwt>
<rscale>  1 0.30000000E+03</rscale>
<asrwt>0</asrwt>
<pdfrwt beam="1">  1        1 0.11773050E+00 0.30000000E+03</pdfrwt>
<pdfrwt beam="2">0</pdfrwt>
<totfact> 0.26779707E+01</totfact>
</mgrwt>
</event>
<event>
 6    1  0.1929825E-004  0.3000000E+03  0.7818608E-02  0.1093470E+00
          1   -1    0    0  502    0  0.00000000000E+00  0.00000000000E+00  0.35986434700E+02  0.35986434700E+02  0.00000000000E+00 0.  1.
         13   -1    0    0    0    0 -0.00000000000E+00 -0.00000000000E+00 -0.10000000000E+04  0.10000000000E+04  0.00000000000E+00 0.  1.
    9000005    2    1    2  501    0 -0.64516971364E+01  0.13842917846E+02 -0.96689107598E+03  0.10204451723E+04  0.32587842215E+03 0.  0.
         13    1    3    3    0    0 -0.72043078103E+02  0.10086193438E+03 -0.85616759728E+03  0.86509322593E+03  0.00000000000E+00 0.  1.
          1    1    3    3  501    0  0.65591380967E+02 -0.87019016534E+02 -0.11072347869E+03  0.15535194633E+03  0.00000000000E+00 0.  1.
         21    1    1    2  502  501  0.64516971364E+01 -0.13842917846E+02  0.28775106772E+01  0.15541262437E+02  0.00000000000E+00 0.  1.
<mgrwt>
<rscale>  1 0.30000000E+03</rscale>
<asrwt>0</asrwt>
<pdfrwt beam="1">  1        1 0.13086004E+00 0.30000000E+03</pdfrwt>
<pdfrwt beam="2">0</pdfrwt>
<totfact> 0.22634799E+01</totfact>
</mgrwt>
</event>
<event>
 6    1  0.1929825E-004  0.3000000E+03  0.7818608E-02  0.1093470E+00
          1   -1    0    0  502    0  0.00000000000E+00  0.00000000000E+00  0.37832265390E+02  0.37832265390E+02  0.00000000000E+00 0.  1.
         13   -1    0    0    0    0 -0.00000000000E+00 -0.00000000000E+00 -0.10000000000E+04  0.10000000000E+04  0.00000000000E+00 0.  1.
    9000005    2    1    2  501    0 -0.20930605216E+02  0.37490425927E+02 -0.98093370639E+03  0.99097307240E+03  0.13398907274E+03 0.  0.
         13    1    3    3    0    0 -0.22492898236E+02  0.79069960221E+02 -0.84034215546E+03  0.84435355588E+03  0.00000000000E+00 0.  1.
          3    1    3    3  501    0  0.15622930200E+01 -0.41579534293E+02 -0.14059155093E+03  0.14661951652E+03  0.00000000000E+00 0.  1.
         21    1    1    2  502  501  0.20930605216E+02 -0.37490425927E+02  0.18765971781E+02  0.46859192991E+02  0.00000000000E+00 0.  1.
<mgrwt>
<rscale>  1 0.30000000E+03</rscale>
<asrwt>0</asrwt>
<pdfrwt beam="1">  1        1 0.13757216E+00 0.30000000E+03</pdfrwt>
<pdfrwt beam="2">0</pdfrwt>
<totfact> 0.20836579E+01</totfact>
</mgrwt>
</event>
<event>
 6    1  0.1929825E-004  0.3000000E+03  0.7818608E-02  0.1093470E+00
          1   -1    0    0  502    0  0.00000000000E+00  0.00000000000E+00  0.52514896880E+02  0.52514896880E+02  0.00000000000E+00 0.  1.
         13   -1    0    0    0    0 -0.00000000000E+00 -0.00000000000E+00 -0.10000000000E+04  0.10000000000E+04  0.00000000000E+00 0.  1.
    9000005    2    1    2  501    0 -0.18500915045E+02  0.17478664774E+02 -0.96740066015E+03  0.10201974559E+04  0.32294120856E+03 0.  0.
         13    1    3    3    0    0 -0.32736275516E+02  0.12922110817E+03 -0.83842383419E+03  0.84895481875E+03  0.00000000000E+00 0.  1.
          3    1    3    3  501    0  0.14235360472E+02 -0.11174244340E+03 -0.12897682596E+03  0.17124263715E+03  0.00000000000E+00 0.  1.
         21    1    1    2  502  501  0.18500915045E+02 -0.17478664774E+02  0.19915557029E+02  0.32317440981E+02  0.00000000000E+00 0.  1.
<mgrwt>
<rscale>  1 0.30000000E+03</rscale>
<asrwt>0</asrwt>
<pdfrwt beam="1">  1        1 0.19096366E+00 0.30000000E+03</pdfrwt>
<pdfrwt beam="2">0</pdfrwt>
<totfact> 0.11312919E+01</totfact>
</mgrwt>
</event>
<event>
 6    1  0.1929825E-004  0.3000000E+03  0.7818608E-02  0.1093470E+00
          1   -1    0    0  502    0  0.00000000000E+00  0.00000000000E+00  0.33326353095E+02  0.33326353095E+02  0.00000000000E+00 0.  1.
         13   -1    0    0    0    0 -0.00000000000E+00 -0.00000000000E+00 -0.10000000000E+04  0.10000000000E+04  0.00000000000E+00 0.  1.
    9000005    2    1    2  501    0  0.44369118557E+01 -0.13189103983E+02 -0.96717414720E+03  0.10194019446E+04  0.32180872433E+03 0.  0.
         13    1    3    3    0    0 -0.13427357152E+02 -0.16663779394E+03 -0.47580957759E+03  0.50432450111E+03  0.00000000000E+00 0.  1.
          3    1    3    3  501    0  0.17864269007E+02  0.15344868996E+03 -0.49136456960E+03  0.51507744351E+03  0.00000000000E+00 0.  1.
         21    1    1    2  502  501 -0.44369118557E+01  0.13189103983E+02  0.50050029070E+00  0.13924408470E+02  0.00000000000E+00 0. -1.
<mgrwt>
<rscale>  1 0.30000000E+03</rscale>
<asrwt>0</asrwt>
<pdfrwt beam="1">  1        1 0.12118699E+00 0.30000000E+03</pdfrwt>
<pdfrwt beam="2">0</pdfrwt>
<totfact> 0.25598395E+01</totfact>
</mgrwt>
</event>
<event>
 6    1  0.1929825E-004  0.3000000E+03  0.7818608E-02  0.1093470E+00
          1   -1    0    0  502    0  0.00000000000E+00  0.00000000000E+00  0.33437390950E+02  0.33437390950E+02  0.00000000000E+00 0.  1.
         13   -1    0    0    0    0 -0.00000000000E+00 -0.00000000000E+00 -0.10000000000E+04  0.10000000000E+04  0.00000000000E+00 0.  1.
    9000005    2    1    2  501    0  0.12106603697E+02  0.42983260346E+00 -0.96773732202E+03  0.10212663368E+04  0.32607154368E+03 0.  0.
         13    1    3    3    0    0 -0.15406179060E+03 -0.43139613133E+00 -0.56416263728E+03  0.58482023112E+03  0.00000000000E+00 0.  1.
          3    1    3    3  501    0  0.16616839430E+03  0.86122873479E+00 -0.40357468474E+03  0.43644610566E+03  0.00000000000E+00 0.  1.
         21    1    1    2  502  501 -0.12106603697E+02 -0.42983260346E+00  0.11747129679E+01  0.12171054174E+02  0.00000000000E+00 0.  1.
<mgrwt>
<rscale>  1 0.30000000E+03</rscale>
<asrwt>0</asrwt>
<pdfrwt beam="1">  1        1 0.12159077E+00 0.30000000E+03</pdfrwt>
<pdfrwt beam="2">0</pdfrwt>
<totfact> 0.25464979E+01</totfact>
</mgrwt>
</event>
<event>
 6    1  0.1929825E-004  0.3000000E+03  0.7818608E-02  0.1093470E+00
          1   -1    0    0  502    0  0.00000000000E+00  0.00000000000E+00  0.33366199126E+02  0.33366199126E+02  0.00000000000E+00 0.  1.
         13   -1    0    0    0    0 -0.00000000000E+00 -0.00000000000E+00 -0.10000000000E+04  0.10000000000E+04  0.00000000000E+00 0.  1.
    9000005    2    1    2  501    0  0.92920600586E+01 -0.15912886150E+02 -0.95313256825E+03  0.10105222588E+04  0.33519245309E+03 0.  0.
         13    1    3    3    0    0  0.13543313460E+03 -0.87907621764E+02 -0.29242595801E+03  0.33404015451E+03  0.00000000000E+00 0.  1.
          3    1    3    3  501    0 -0.12614107454E+03  0.71994735614E+02 -0.66070661025E+03  0.67648210432E+03  0.00000000000E+00 0.  1.
         21    1    1    2  502  501 -0.92920600586E+01  0.15912886150E+02 -0.13501232620E+02  0.22843940291E+02  0.00000000000E+00 0.  1.
<mgrwt>
<rscale>  1 0.30000000E+03</rscale>
<asrwt>0</asrwt>
<pdfrwt beam="1">  1        1 0.12133189E+00 0.30000000E+03</pdfrwt>
<pdfrwt beam="2">0</pdfrwt>
<totfact> 0.25550412E+01</totfact>
</mgrwt>
</event>
<event>
 6    1  0.1929825E-004  0.3000000E+03  0.7818608E-02  0.1093470E+00
          1   -1    0    0  502    0  0.00000000000E+00  0.00000000000E+00  0.26847030446E+02  0.26847030446E+02  0.00000000000E+00 0.  1.
         13   -1    0    0    0    0 -0.00000000000E+00 -0.00000000000E+00 -0.10000000000E+04  0.10000000000E+04  0.00000000000E+00 0.  1.
    9000005    2    1    2  501    0  0.79394918905E+01  0.87279998288E+01 -0.97023106083E+03  0.10146917409E+04  0.29683632564E+03 0.  0.
         13    1    3    3    0    0  0.13614220989E+03 -0.45487333770E+02 -0.33618421503E+03  0.36554565417E+03  0.00000000000E+00 0.  1.
          3    1    3    3  501    0 -0.12820271800E+03  0.54215333599E+02 -0.63404684580E+03  0.64914608677E+03  0.00000000000E+00 0.  1.
         21    1    1    2  502  501 -0.79394918905E+01 -0.87279998288E+01 -0.29219087273E+01  0.12155289511E+02  0.00000000000E+00 0.  1.
<mgrwt>
<rscale>  1 0.30000000E+03</rscale>
<asrwt>0</asrwt>
<pdfrwt beam="1">  1        1 0.97625771E-01 0.30000000E+03</pdfrwt>
<pdfrwt beam="2">0</pdfrwt>
<totfact> 0.35446220E+01</totfact>
</mgrwt>
</event>
<event>
 6    1  0.1929825E-004  0.3000000E+03  0.7818608E-02  0.1093470E+00
          1   -1    0    0  502    0  0.00000000000E+00  0.00000000000E+00  0.72173972846E+02  0.72173972846E+02  0.00000000000E+00 0.  1.
         13   -1    0    0    0    0 -0.00000000000E+00 -0.00000000000E+00 -0.10000000000E+04  0.10000000000E+04  0.00000000000E+00 0.  1.
    9000005    2    1    2  501    0  0.42426291579E+02 -0.39294336193E+02 -0.95559478572E+03  0.10080246235E+04  0.31560768674E+03 0.  0.
         13    1    3    3    0    0  0.10161079297E+03 -0.14650508638E+03 -0.72865843473E+03  0.75015438950E+03  0.00000000000E+00 0.  1.
          3    1    3    3  501    0 -0.59184501390E+02  0.10721075019E+03 -0.22693635099E+03  0.25787023396E+03  0.00000000000E+00 0.  1.
         21    1    1    2  502  501 -0.42426291579E+02  0.39294336193E+02  0.27768758568E+02  0.64149349385E+02  0.00000000000E+00 0.  1.
<mgrwt>
<rscale>  1 0.30000000E+03</rscale>
<asrwt>0</asrwt>
<pdfrwt beam="1">  1        1 0.26245136E+00 0.30000000E+03</pdfrwt>
<pdfrwt beam="2">0</pdfrwt>
<totfact> 0.52179632E+00</totfact>
</mgrwt>
</event>
<event>
 6    1  0.1929825E-004  0.3000000E+03  0.7818608E-02  0.1093470E+00
          1   -1    0    0  502    0  0.00000000000E+00  0.00000000000E+00  0.39160854897E+02  0.39160854897E+02  0.00000000000E+00 0.  1.
         13   -1    0    0    0    0 -0.00000000000E+00 -0.00000000000E+00 -0.10000000000E+04  0.10000000000E+04  0.00000000000E+00 0.  1.
    9000005    2    1    2  501    0 -0.94885785016E+01  0.48505903939E+01 -0.97060062136E+03  0.10247092886E+04  0.32840523540E+03 0.  0.
         13    1    3    3    0    0  0.99168398105E+02 -0.58177438428E+02 -0.12502201247E+03  0.16985137364E+03  0.00000000000E+00 0.  1.
          1    1    3    3  501    0 -0.10865697661E+03  0.63028028822E+02 -0.84557860890E+03  0.85485791498E+03  0.00000000000E+00 0.  1.
         21    1    1    2  502  501  0.94885785016E+01 -0.48505903939E+01  0.97614762602E+01  0.14451566279E+02  0.00000000000E+00 0. -1.
<mgrwt>
<rscale>  1 0.30000000E+03</rscale>
<asrwt>0</asrwt>
<pdfrwt beam="1">  1        1 0.14240341E+00 0.30000000E+03</pdfrwt>
<pdfrwt beam="2">0</pdfrwt>
<totfact> 0.19655791E+01</totfact>
</mgrwt>
</event>
<event>
 6    1  0.1929825E-004  0.3000000E+03  0.7818608E-02  0.1093470E+00
          3   -1    0    0  502    0  0.00000000000E+00  0.00000000000E+00  0.30422431063E+02  0.30422431063E+02  0.00000000000E+00 0.  1.
         13   -1    0    0    0    0 -0.00000000000E+00 -0.00000000000E+00 -0.10000000000E+04  0.10000000000E+04  0.00000000000E+00 0.  1.
    9000005    2    1    2  501    0 -0.14603857766E+02 -0.24581722017E+02 -0.90546778003E+03  0.96022557392E+03  0.31834528176E+03 0.  0.
         13    1    3    3    0    0 -0.69063475461E+02 -0.15282612939E+03 -0.35844436438E+03  0.39573722572E+03  0.00000000000E+00 0.  1.
          3    1    3    3  501    0  0.54459617696E+02  0.12824440737E+03 -0.54702341565E+03  0.56448834820E+03  0.00000000000E+00 0.  1.
         21    1    1    2  502  501  0.14603857766E+02  0.24581722017E+02 -0.64109788908E+02  0.70196857143E+02  0.00000000000E+00 0. -1.
<mgrwt>
<rscale>  1 0.30000000E+03</rscale>
<asrwt>0</asrwt>
<pdfrwt beam="1">  1        3 0.11062726E+00 0.30000000E+03</pdfrwt>
<pdfrwt beam="2">0</pdfrwt>
<totfact> 0.29644046E+00</totfact>
</mgrwt>
</event>
<event>
 6    1  0.1929825E-004  0.3000000E+03  0.7818608E-02  0.1093470E+00
          1   -1    0    0  502    0  0.00000000000E+00  0.00000000000E+00  0.40154186988E+02  0.40154186988E+02  0.00000000000E+00 0.  1.
         13   -1    0    0    0    0 -0.00000000000E+00 -0.00000000000E+00 -0.10000000000E+04  0.10000000000E+04  0.00000000000E+00 0.  1.
    9000005    2    1    2  501    0  0.54593425248E+02 -0.21984682159E+02 -0.88721765158E+03  0.94667361059E+03  0.32491844421E+03 0.  0.
         13    1    3    3    0    0 -0.28573399838E+02 -0.10450975835E+03 -0.78115964325E+03  0.78863750672E+03  0.00000000000E+00 0.  1.
          3    1    3    3  501    0  0.83166825085E+02  0.82525076192E+02 -0.10605800833E+03  0.15803610387E+03  0.00000000000E+00 0.  1.
         21    1    1    2  502  501 -0.54593425248E+02  0.21984682159E+02 -0.72628161434E+02  0.93480576395E+02  0.00000000000E+00 0.  1.
<mgrwt>
<rscale>  1 0.30000000E+03</rscale>
<asrwt>0</asrwt>
<pdfrwt beam="1">  1        1 0.14601553E+00 0.30000000E+03</pdfrwt>
<pdfrwt beam="2">0</pdfrwt>
<totfact> 0.18827973E+01</totfact>
</mgrwt>
</event>
<event>
 6    1  0.1929825E-004  0.3000000E+03  0.7818608E-02  0.1093470E+00
          1   -1    0    0  502    0  0.00000000000E+00  0.00000000000E+00  0.32780382128E+02  0.32780382128E+02  0.00000000000E+00 0.  1.
         13   -1    0    0    0    0 -0.00000000000E+00 -0.00000000000E+00 -0.10000000000E+04  0.10000000000E+04  0.00000000000E+00 0.  1.
    9000005    2    1    2  501    0  0.11551368882E+02 -0.90289701832E+01 -0.96564304749E+03  0.10180344674E+04  0.32204460143E+03 0.  0.
         13    1    3    3    0    0  0.91938827312E+02  0.76058584688E+01 -0.63106250621E+02  0.11177207128E+03  0.00000000000E+00 0.  1.
          1    1    3    3  501    0 -0.80387458430E+02 -0.16634828652E+02 -0.90253679687E+03  0.90626239617E+03  0.00000000000E+00 0.  1.
         21    1    1    2  502  501 -0.11551368882E+02  0.90289701832E+01 -0.15765703773E+01  0.14745914681E+02  0.00000000000E+00 0. -1.
<mgrwt>
<rscale>  1 0.30000000E+03</rscale>
<asrwt>0</asrwt>
<pdfrwt beam="1">  1        1 0.11920164E+00 0.30000000E+03</pdfrwt>
<pdfrwt beam="2">0</pdfrwt>
<totfact> 0.26268122E+01</totfact>
</mgrwt>
</event>
<event>
 6    1  0.1929825E-004  0.3000000E+03  0.7818608E-02  0.1093470E+00
          1   -1    0    0  502    0  0.00000000000E+00  0.00000000000E+00  0.30094626901E+02  0.30094626901E+02  0.00000000000E+00 0.  1.
         13   -1    0    0    0    0 -0.00000000000E+00 -0.00000000000E+00 -0.10000000000E+04  0.10000000000E+04  0.00000000000E+00 0.  1.
    9000005    2    1    2  501    0 -0.18719966785E+02  0.95947631565E+01 -0.94403458114E+03  0.99675104412E+03  0.31916900996E+03 0.  0.
         13    1    3    3    0    0 -0.17176287063E+02 -0.14934117897E+03 -0.33257508906E+03  0.36497123508E+03  0.00000000000E+00 0.  1.
          1    1    3    3  501    0 -0.15436797215E+01  0.15893594213E+03 -0.61145949208E+03  0.63177980904E+03  0.00000000000E+00 0.  1.
         21    1    1    2  502  501  0.18719966785E+02 -0.95947631565E+01 -0.25870791957E+02  0.33343582785E+02  0.00000000000E+00 0.  1.
<mgrwt>
<rscale>  1 0.30000000E+03</rscale>
<asrwt>0</asrwt>
<pdfrwt beam="1">  1        1 0.10943524E+00 0.30000000E+03</pdfrwt>
<pdfrwt beam="2">0</pdfrwt>
<totfact> 0.29941193E+01</totfact>
</mgrwt>
</event>
<event>
 6    1  0.1929825E-004  0.3000000E+03  0.7818608E-02  0.1093470E+00
          1   -1    0    0  502    0  0.00000000000E+00  0.00000000000E+00  0.35987603075E+02  0.35987603075E+02  0.00000000000E+00 0.  1.
         13   -1    0    0    0    0 -0.00000000000E+00 -0.00000000000E+00 -0.10000000000E+04  0.10000000000E+04  0.00000000000E+00 0.  1.
    9000005    2    1    2  501    0 -0.11342405164E+02 -0.28401181862E+02 -0.93989734219E+03  0.99704131762E+03  0.33128401394E+03 0.  0.
         13    1    3    3    0    0  0.53680850225E+02 -0.18005041209E+01 -0.92329021648E+03  0.92485117687E+03  0.00000000000E+00 0.  1.
          1    1    3    3  501    0 -0.65023255389E+02 -0.26600677741E+02 -0.16607125711E+02  0.72190140754E+02  0.00000000000E+00 0.  1.
         21    1    1    2  502  501  0.11342405164E+02  0.28401181862E+02 -0.24115054731E+02  0.38946285455E+02  0.00000000000E+00 0.  1.
<mgrwt>
<rscale>  1 0.30000000E+03</rscale>
<asrwt>0</asrwt>
<pdfrwt beam="1">  1        1 0.13086429E+00 0.30000000E+03</pdfrwt>
<pdfrwt beam="2">0</pdfrwt>
<totfact> 0.22633598E+01</totfact>
</mgrwt>
</event>
<event>
 6    1  0.1929825E-004  0.3000000E+03  0.7818608E-02  0.1093470E+00
          1   -1    0    0  502    0  0.00000000000E+00  0.00000000000E+00  0.48971958311E+02  0.48971958311E+02  0.00000000000E+00 0.  1.
         13   -1    0    0    0    0 -0.00000000000E+00 -0.00000000000E+00 -0.10000000000E+04  0.10000000000E+04  0.00000000000E+00 0.  1.
    9000005    2    1    2  501    0  0.33976744550E+02  0.51095668265E+01 -0.95772772269E+03  0.10139660650E+04  0.33121633906E+03 0.  0.
         13    1    3    3    0    0 -0.86125341397E+02 -0.12757322726E+03 -0.43029686774E+03  0.45699879336E+03  0.00000000000E+00 0.  1.
          1    1    3    3  501    0  0.12010208595E+03  0.13268279408E+03 -0.52743085494E+03  0.55696727161E+03  0.00000000000E+00 0.  1.
         21    1    1    2  502  501 -0.33976744550E+02 -0.51095668265E+01  0.66996809968E+01  0.35005893345E+02  0.00000000000E+00 0. -1.
<mgrwt>
<rscale>  1 0.30000000E+03</rscale>
<asrwt>0</asrwt>
<pdfrwt beam="1">  1        1 0.17808022E+00 0.30000000E+03</pdfrwt>
<pdfrwt beam="2">0</pdfrwt>
<totfact> 0.13050796E+01</totfact>
</mgrwt>
</event>
<event>
 6    1  0.1929825E-004  0.3000000E+03  0.7818608E-02  0.1093470E+00
          1   -1    0    0  502    0  0.00000000000E+00  0.00000000000E+00  0.29197226557E+02  0.29197226557E+02  0.00000000000E+00 0.  1.
         13   -1    0    0    0    0 -0.00000000000E+00 -0.00000000000E+00 -0.10000000000E+04  0.10000000000E+04  0.00000000000E+00 0.  1.
    9000005    2    1    2  501    0  0.11033545672E+02 -0.30272918499E+01 -0.95573350213E+03  0.10102766937E+04  0.32726375768E+03 0.  0.
         13    1    3    3    0    0 -0.59750386623E+02  0.66696927942E+02 -0.88203833024E+03  0.88657216566E+03  0.00000000000E+00 0.  1.
          1    1    3    3  501    0  0.70783932295E+02 -0.69724219792E+02 -0.73695171888E+02  0.12370452804E+03  0.00000000000E+00 0.  1.
         21    1    1    2  502  501 -0.11033545672E+02  0.30272918499E+01 -0.15069271313E+02  0.18920532866E+02  0.00000000000E+00 0. -1.
<mgrwt>
<rscale>  1 0.30000000E+03</rscale>
<asrwt>0</asrwt>
<pdfrwt beam="1">  1        1 0.10617196E+00 0.30000000E+03</pdfrwt>
<pdfrwt beam="2">0</pdfrwt>
<totfact> 0.31330955E+01</totfact>
</mgrwt>
</event>
<event>
 6    1  0.1929825E-004  0.3000000E+03  0.7818608E-02  0.1093470E+00
          1   -1    0    0  502    0  0.00000000000E+00  0.00000000000E+00  0.28830795070E+02  0.28830795070E+02  0.00000000000E+00 0.  1.
         13   -1    0    0    0    0 -0.00000000000E+00 -0.00000000000E+00 -0.10000000000E+04  0.10000000000E+04  0.00000000000E+00 0.  1.
    9000005    2    1    2  501    0 -0.11244168491E+02 -0.45988510704E+01 -0.95349497792E+03  0.10073841390E+04  0.32484234612E+03 0.  0.
         13    1    3    3    0    0 -0.12093796181E+03 -0.10419199041E+03 -0.65460383250E+03  0.67378641942E+03  0.00000000000E+00 0.  1.
          3    1    3    3  501    0  0.10969379332E+03  0.99593139338E+02 -0.29889114542E+03  0.33359771957E+03  0.00000000000E+00 0.  1.
         21    1    1    2  502  501  0.11244168491E+02  0.45988510704E+01 -0.17674227011E+02  0.21446656072E+02  0.00000000000E+00 0. -1.
<mgrwt>
<rscale>  1 0.30000000E+03</rscale>
<asrwt>0</asrwt>
<pdfrwt beam="1">  1        1 0.10483948E+00 0.30000000E+03</pdfrwt>
<pdfrwt beam="2">0</pdfrwt>
<totfact> 0.31925171E+01</totfact>
</mgrwt>
</event>
<event>
 6    1  0.1929825E-004  0.3000000E+03  0.7818608E-02  0.1093470E+00
          1   -1    0    0  502    0  0.00000000000E+00  0.00000000000E+00  0.43589218363E+02  0.43589218363E+02  0.00000000000E+00 0.  1.
         13   -1    0    0    0    0 -0.00000000000E+00 -0.00000000000E+00 -0.10000000000E+04  0.10000000000E+04  0.00000000000E+00 0.  1.
    9000005    2    1    2  501    0 -0.25472261743E+02 -0.12421105418E+02 -0.95887682843E+03  0.10151427535E+04  0.33206462903E+03 0.  0.
         13    1    3    3    0    0 -0.10766513400E+02  0.15306103355E+03 -0.31800645881E+03  0.35308880703E+03  0.00000000000E+00 0.  1.
          1    1    3    3  501    0 -0.14705748344E+02 -0.16548213897E+03 -0.64087036961E+03  0.66205394644E+03  0.00000000000E+00 0.  1.
         21    1    1    2  502  501  0.25472261743E+02  0.12421105418E+02  0.24660467903E+01  0.28446464893E+02  0.00000000000E+00 0. -1.
<mgrwt>
<rscale>  1 0.30000000E+03</rscale>
<asrwt>0</asrwt>
<pdfrwt beam="1">  1        1 0.15850658E+00 0.30000000E+03</pdfrwt>
<pdfrwt beam="2">0</pdfrwt>
<totfact> 0.16279172E+01</totfact>
</mgrwt>
</event>
<event>
 6    1  0.1929825E-004  0.3000000E+03  0.7818608E-02  0.1093470E+00
          1   -1    0    0  502    0  0.00000000000E+00  0.00000000000E+00  0.29364975100E+02  0.29364975100E+02  0.00000000000E+00 0.  1.
         13   -1    0    0    0    0 -0.00000000000E+00 -0.00000000000E+00 -0.10000000000E+04  0.10000000000E+04  0.00000000000E+00 0.  1.
    9000005    2    1    2  501    0 -0.12347755355E+02 -0.12951442971E+01 -0.93730470904E+03  0.99379737164E+03  0.33005901566E+03 0.  0.
         13    1    3    3    0    0  0.51645688836E+02 -0.58795077745E+02 -0.89411542133E+03  0.89753357876E+03  0.00000000000E+00 0.  1.
          1    1    3    3  501    0 -0.63993444191E+02  0.57499933448E+02 -0.43189287715E+02  0.96263792878E+02  0.00000000000E+00 0.  1.
         21    1    1    2  502  501  0.12347755355E+02  0.12951442971E+01 -0.33330315857E+02  0.35567603465E+02  0.00000000000E+00 0. -1.
<mgrwt>
<rscale>  1 0.30000000E+03</rscale>
<asrwt>0</asrwt>
<pdfrwt beam="1">  1        1 0.10678195E+00 0.30000000E+03</pdfrwt>
<pdfrwt beam="2">0</pdfrwt>
<totfact> 0.31064241E+01</totfact>
</mgrwt>
</event>
<event>
 6    1  0.1929825E-004  0.3000000E+03  0.7818608E-02  0.1093470E+00
          1   -1    0    0  502    0  0.00000000000E+00  0.00000000000E+00  0.36380304164E+02  0.36380304164E+02  0.00000000000E+00 0.  1.
         13   -1    0    0    0    0 -0.00000000000E+00 -0.00000000000E+00 -0.10000000000E+04  0.10000000000E+04  0.00000000000E+00 0.  1.
    9000005    2    1    2  501    0  0.17474103777E+02  0.22323385042E+02 -0.93335406314E+03  0.99491120308E+03  0.34335814684E+03 0.  0.
         13    1    3    3    0    0  0.56816672956E+02 -0.55715548605E+02 -0.89656328522E+03  0.90008781854E+03  0.00000000000E+00 0.  1.
          1    1    3    3  501    0 -0.39342569180E+02  0.78038933647E+02 -0.36790777919E+02  0.94823384533E+02  0.00000000000E+00 0.  1.
         21    1    1    2  502  501 -0.17474103777E+02 -0.22323385042E+02 -0.30265632696E+02  0.41469101087E+02  0.00000000000E+00 0.  1.
<mgrwt>
<rscale>  1 0.30000000E+03</rscale>
<asrwt>0</asrwt>
<pdfrwt beam="1">  1        1 0.13229229E+00 0.30000000E+03</pdfrwt>
<pdfrwt beam="2">0</pdfrwt>
<totfact> 0.22234377E+01</totfact>
</mgrwt>
</event>
<event>
 6    1  0.1929825E-004  0.3000000E+03  0.7818608E-02  0.1093470E+00
          1   -1    0    0  502    0  0.00000000000E+00  0.00000000000E+00  0.56256351647E+02  0.56256351647E+02  0.00000000000E+00 0.  1.
         13   -1    0    0    0    0 -0.00000000000E+00 -0.00000000000E+00 -0.10000000000E+04  0.10000000000E+04  0.00000000000E+00 0.  1.
    9000005    2    1    2  501    0 -0.11961996640E+02 -0.23570241672E+02 -0.96801356637E+03  0.10203721688E+04  0.32157495642E+03 0.  0.
         13    1    3    3    0    0  0.71288715930E+02  0.15022464026E+02 -0.90757719619E+03  0.91049663508E+03  0.00000000000E+00 0.  1.
          3    1    3    3  501    0 -0.83250712571E+02 -0.38592705698E+02 -0.60436370174E+02  0.10987553375E+03  0.00000000000E+00 0.  1.
         21    1    1    2  502  501  0.11961996640E+02  0.23570241672E+02  0.24269918014E+02  0.35884182818E+02  0.00000000000E+00 0.  1.
<mgrwt>
<rscale>  1 0.30000000E+03</rscale>
<asrwt>0</asrwt>
<pdfrwt beam="1">  1        1 0.20456898E+00 0.30000000E+03</pdfrwt>
<pdfrwt beam="2">0</pdfrwt>
<totfact> 0.97444724E+00</totfact>
</mgrwt>
</event>
<event>
 6    1  0.1929825E-004  0.3000000E+03  0.7818608E-02  0.1093470E+00
          3   -1    0    0  502    0  0.00000000000E+00  0.00000000000E+00  0.29466009326E+02  0.29466009326E+02  0.00000000000E+00 0.  1.
         13   -1    0    0    0    0 -0.00000000000E+00 -0.00000000000E+00 -0.10000000000E+04  0.10000000000E+04  0.00000000000E+00 0.  1.
    9000005    2    1    2  501    0 -0.13642136114E+02 -0.92739853928E+01 -0.88839705765E+03  0.94568898116E+03  0.32373786055E+03 0.  0.
         13    1    3    3    0    0 -0.42372423107E+02  0.40622478260E+02 -0.88612532362E+03  0.88806739448E+03  0.00000000000E+00 0.  1.
          1    1    3    3  501    0  0.28730286992E+02 -0.49896463653E+02 -0.22717340349E+01  0.57621586678E+02  0.00000000000E+00 0.  1.
         21    1    1    2  502  501  0.13642136114E+02  0.92739853928E+01 -0.82136933020E+02  0.83777028169E+02  0.00000000000E+00 0. -1.
<mgrwt>
<rscale>  1 0.30000000E+03</rscale>
<asrwt>0</asrwt>
<pdfrwt beam="1">  1        3 0.10714935E+00 0.30000000E+03</pdfrwt>
<pdfrwt beam="2">0</pdfrwt>
<totfact> 0.32475859E+00</totfact>
</mgrwt>
</event>
<event>
 6    1  0.1929825E-004  0.3000000E+03  0.7818608E-02  0.1093470E+00
          1   -1    0    0  502    0  0.00000000000E+00  0.00000000000E+00  0.59978167069E+02  0.59978167069E+02  0.00000000000E+00 0.  1.
         13   -1    0    0    0    0 -0.00000000000E+00 -0.00000000000E+00 -0.10000000000E+04  0.10000000000E+04  0.00000000000E+00 0.  1.
    9000005    2    1    2  501    0 -0.13068946223E+03  0.27811655196E+02 -0.78111223396E+03  0.85235956398E+03  0.31389055508E+03 0.  0.
         13    1    3    3    0    0 -0.13939469364E+03  0.10698427463E+03 -0.74403497350E+03  0.76450281715E+03  0.00000000000E+00 0.  1.
          1    1    3    3  501    0  0.87052314133E+01 -0.79172619431E+02 -0.37077260458E+02  0.87856746836E+02  0.00000000000E+00 0.  1.
         21    1    1    2  502  501  0.13068946223E+03 -0.27811655196E+02 -0.15890959897E+03  0.20761860309E+03  0.00000000000E+00 0.  1.
<mgrwt>
<rscale>  1 0.30000000E+03</rscale>
<asrwt>0</asrwt>
<pdfrwt beam="1">  1        1 0.21810289E+00 0.30000000E+03</pdfrwt>
<pdfrwt beam="2">0</pdfrwt>
<totfact> 0.84138963E+00</totfact>
</mgrwt>
</event>
<event>
 6    1  0.1929825E-004  0.3000000E+03  0.7818608E-02  0.1093470E+00
          1   -1    0    0  502    0  0.00000000000E+00  0.00000000000E+00  0.23047559633E+02  0.23047559633E+02  0.00000000000E+00 0.  1.
         13   -1    0    0    0    0 -0.00000000000E+00 -0.00000000000E+00 -0.10000000000E+04  0.10000000000E+04  0.00000000000E+00 0.  1.
    9000005    2    1    2  501    0  0.33547134095E+01 -0.10104033182E+02 -0.96859376658E+03  0.10095119394E+04  0.28430111760E+03 0.  0.
         13    1    3    3    0    0  0.11427747503E+02 -0.34545145787E+02 -0.98048367615E+03  0.98115860069E+03  0.00000000000E+00 0.  1.
          3    1    3    3  501    0 -0.80730340931E+01  0.24441112604E+02  0.11889909564E+02  0.28353338679E+02  0.00000000000E+00 0.  1.
         21    1    1    2  502  501 -0.33547134095E+01  0.10104033182E+02 -0.83586737833E+01  0.13535620267E+02  0.00000000000E+00 0.  1.
<mgrwt>
<rscale>  1 0.30000000E+03</rscale>
<asrwt>0</asrwt>
<pdfrwt beam="1">  1        1 0.83809484E-01 0.30000000E+03</pdfrwt>
<pdfrwt beam="2">0</pdfrwt>
<totfact> 0.44028081E+01</totfact>
</mgrwt>
</event>
<event>
 6    1  0.1929825E-004  0.3000000E+03  0.7818608E-02  0.1093470E+00
          1   -1    0    0  502    0  0.00000000000E+00  0.00000000000E+00  0.38153714478E+02  0.38153714478E+02  0.00000000000E+00 0.  1.
         13   -1    0    0    0    0 -0.00000000000E+00 -0.00000000000E+00 -0.10000000000E+04  0.10000000000E+04  0.00000000000E+00 0.  1.
    9000005    2    1    2  501    0  0.14599084917E+02 -0.97864651872E+01 -0.96743697957E+03  0.10197101779E+04  0.32181614210E+03 0.  0.
         13    1    3    3    0    0  0.90627268877E+02  0.11775405485E+03 -0.28614400346E+03  0.32242473542E+03  0.00000000000E+00 0.  1.
          1    1    3    3  501    0 -0.76028183960E+02 -0.12754052003E+03 -0.68129297611E+03  0.69728544249E+03  0.00000000000E+00 0.  1.
         21    1    1    2  502  501 -0.14599084917E+02  0.97864651872E+01  0.55906940464E+01  0.18443536569E+02  0.00000000000E+00 0.  1.
<mgrwt>
<rscale>  1 0.30000000E+03</rscale>
<asrwt>0</asrwt>
<pdfrwt beam="1">  1        1 0.13874107E+00 0.30000000E+03</pdfrwt>
<pdfrwt beam="2">0</pdfrwt>
<totfact> 0.20542772E+01</totfact>
</mgrwt>
</event>
<event>
 6    1  0.1929825E-004  0.3000000E+03  0.7818608E-02  0.1093470E+00
          1   -1    0    0  502    0  0.00000000000E+00  0.00000000000E+00  0.30210835418E+02  0.30210835418E+02  0.00000000000E+00 0.  1.
         13   -1    0    0    0    0 -0.00000000000E+00 -0.00000000000E+00 -0.10000000000E+04  0.10000000000E+04  0.00000000000E+00 0.  1.
    9000005    2    1    2  501    0  0.12218305132E+02  0.68388198617E+01 -0.96174456877E+03  0.10140624002E+04  0.32120691081E+03 0.  0.
         13    1    3    3    0    0  0.86203260570E+02  0.10916233406E+03 -0.78274862466E+03  0.79501121169E+03  0.00000000000E+00 0.  1.
          1    1    3    3  501    0 -0.73984955439E+02 -0.10232351420E+03 -0.17899594411E+03  0.21905118853E+03  0.00000000000E+00 0.  1.
         21    1    1    2  502  501 -0.12218305132E+02 -0.68388198617E+01 -0.80445958116E+01  0.16148435192E+02  0.00000000000E+00 0.  1.
<mgrwt>
<rscale>  1 0.30000000E+03</rscale>
<asrwt>0</asrwt>
<pdfrwt beam="1">  1        1 0.10985781E+00 0.30000000E+03</pdfrwt>
<pdfrwt beam="2">0</pdfrwt>
<totfact> 0.29767697E+01</totfact>
</mgrwt>
</event>
<event>
 6    1  0.1929825E-004  0.3000000E+03  0.7818608E-02  0.1093470E+00
          1   -1    0    0  502    0  0.00000000000E+00  0.00000000000E+00  0.31990251607E+02  0.31990251607E+02  0.00000000000E+00 0.  1.
         13   -1    0    0    0    0 -0.00000000000E+00 -0.00000000000E+00 -0.10000000000E+04  0.10000000000E+04  0.00000000000E+00 0.  1.
    9000005    2    1    2  501    0 -0.20958565520E+02  0.61584754883E+01 -0.95252702636E+03  0.10052152078E+04  0.32042579448E+03 0.  0.
         13    1    3    3    0    0 -0.49205007644E+02  0.15840015185E+03 -0.51955452278E+03  0.54538852484E+03  0.00000000000E+00 0.  1.
          1    1    3    3  501    0  0.28246442124E+02 -0.15224167636E+03 -0.43297250359E+03  0.45982668297E+03  0.00000000000E+00 0.  1.
         21    1    1    2  502  501  0.20958565520E+02 -0.61584754883E+01 -0.15482722029E+02  0.26775043799E+02  0.00000000000E+00 0.  1.
<mgrwt>
<rscale>  1 0.30000000E+03</rscale>
<asrwt>0</asrwt>
<pdfrwt beam="1">  1        1 0.11632843E+00 0.30000000E+03</pdfrwt>
<pdfrwt beam="2">0</pdfrwt>
<totfact> 0.27280040E+01</totfact>
</mgrwt>
</event>
<event>
 6    1  0.1929825E-004  0.3000000E+03  0.7818608E-02  0.1093470E+00
          1   -1    0    0  502    0  0.00000000000E+00  0.00000000000E+00  0.29279482974E+02  0.29279482974E+02  0.00000000000E+00 0.  1.
         13   -1    0    0    0    0 -0.00000000000E+00 -0.00000000000E+00 -0.10000000000E+04  0.10000000000E+04  0.00000000000E+00 0.  1.
    9000005    2    1    2  501    0  0.12654516807E+02  0.83838475488E+01 -0.95845460148E+03  0.10097633773E+04  0.31742153267E+03 0.  0.
         13    1    3    3    0    0  0.38704646925E+02  0.14961991240E+03 -0.66924234097E+03  0.68685477273E+03  0.00000000000E+00 0.  1.
          3    1    3    3  501    0 -0.26050130118E+02 -0.14123606485E+03 -0.28921226052E+03  0.32290860460E+03  0.00000000000E+00 0.  1.
         21    1    1    2  502  501 -0.12654516807E+02 -0.83838475488E+01 -0.12265915542E+02  0.19516105642E+02  0.00000000000E+00 0. -1.
<mgrwt>
<rscale>  1 0.30000000E+03</rscale>
<asrwt>0</asrwt>
<pdfrwt beam="1">  1        1 0.10647107E+00 0.30000000E+03</pdfrwt>
<pdfrwt beam="2">0</pdfrwt>
<totfact> 0.31199760E+01</totfact>
</mgrwt>
</event>
<event>
 6    1  0.1929825E-004  0.3000000E+03  0.7818608E-02  0.1093470E+00
          1   -1    0    0  502    0  0.00000000000E+00  0.00000000000E+00  0.33108125955E+02  0.33108125955E+02  0.00000000000E+00 0.  1.
         13   -1    0    0    0    0 -0.00000000000E+00 -0.00000000000E+00 -0.10000000000E+04  0.10000000000E+04  0.00000000000E+00 0.  1.
    9000005    2    1    2  501    0  0.42598175793E+01 -0.97589114956E+01 -0.96514815951E+03  0.10223181797E+04  0.33691261239E+03 0.  0.
         13    1    3    3    0    0  0.74987935958E+02  0.13481153982E+03 -0.29253541920E+03  0.33071787568E+03  0.00000000000E+00 0.  1.
          3    1    3    3  501    0 -0.70728118379E+02 -0.14457045132E+03 -0.67261274030E+03  0.69160030404E+03  0.00000000000E+00 0.  1.
         21    1    1    2  502  501 -0.42598175793E+01  0.97589114956E+01 -0.17437145373E+01  0.10789946236E+02  0.00000000000E+00 0.  1.
<mgrwt>
<rscale>  1 0.30000000E+03</rscale>
<asrwt>0</asrwt>
<pdfrwt beam="1">  1        1 0.12039344E+00 0.30000000E+03</pdfrwt>
<pdfrwt beam="2">0</pdfrwt>
<totfact> 0.25863317E+01</totfact>
</mgrwt>
</event>
<event>
 6    1  0.1929825E-004  0.3000000E+03  0.7818608E-02  0.1093470E+00
          1   -1    0    0  502    0  0.00000000000E+00  0.00000000000E+00  0.43505691879E+02  0.43505691879E+02  0.00000000000E+00 0.  1.
         13   -1    0    0    0    0 -0.00000000000E+00 -0.00000000000E+00 -0.10000000000E+04  0.10000000000E+04  0.00000000000E+00 0.  1.
    9000005    2    1    2  501    0  0.10429974383E+02  0.51308224037E+00 -0.96163492830E+03  0.10318663794E+04  0.37402866467E+03 0.  0.
         13    1    3    3    0    0  0.18601800532E+03  0.45682724293E+02 -0.53728161374E+03  0.57040436715E+03  0.00000000000E+00 0.  1.
          1    1    3    3  501    0 -0.17558803094E+03 -0.45169642052E+02 -0.42435331456E+03  0.46146201225E+03  0.00000000000E+00 0.  1.
         21    1    1    2  502  501 -0.10429974383E+02 -0.51308224037E+00  0.51406201811E+01  0.11639312473E+02  0.00000000000E+00 0.  1.
<mgrwt>
<rscale>  1 0.30000000E+03</rscale>
<asrwt>0</asrwt>
<pdfrwt beam="1">  1        1 0.15820285E+00 0.30000000E+03</pdfrwt>
<pdfrwt beam="2">0</pdfrwt>
<totfact> 0.16336013E+01</totfact>
</mgrwt>
</event>
<event>
 6    1  0.1929825E-004  0.3000000E+03  0.7818608E-02  0.1093470E+00
          1   -1    0    0  502    0  0.00000000000E+00  0.00000000000E+00  0.34902796475E+02  0.34902796475E+02  0.00000000000E+00 0.  1.
         13   -1    0    0    0    0 -0.00000000000E+00 -0.00000000000E+00 -0.10000000000E+04  0.10000000000E+04  0.00000000000E+00 0.  1.
    9000005    2    1    2  501    0  0.43060406207E+02 -0.71120874047E+01 -0.71608764012E+03  0.78209745033E+03  0.31143238932E+03 0.  0.
         13    1    3    3    0    0  0.15962530273E+03 -0.77753395566E+02 -0.38057306281E+03  0.41995438315E+03  0.00000000000E+00 0.  1.
          1    1    3    3  501    0 -0.11656489652E+03  0.70641308161E+02 -0.33551457731E+03  0.36214306718E+03  0.00000000000E+00 0.  1.
         21    1    1    2  502  501 -0.43060406207E+02  0.71120874047E+01 -0.24900956340E+03  0.25280534614E+03  0.00000000000E+00 0. -1.
<mgrwt>
<rscale>  1 0.30000000E+03</rscale>
<asrwt>0</asrwt>
<pdfrwt beam="1">  1        1 0.12691953E+00 0.30000000E+03</pdfrwt>
<pdfrwt beam="2">0</pdfrwt>
<totfact> 0.23785937E+01</totfact>
</mgrwt>
</event>
<event>
 6    1  0.1929825E-004  0.3000000E+03  0.7818608E-02  0.1093470E+00
          1   -1    0    0  502    0  0.00000000000E+00  0.00000000000E+00  0.28484940503E+02  0.28484940503E+02  0.00000000000E+00 0.  1.
         13   -1    0    0    0    0 -0.00000000000E+00 -0.00000000000E+00 -0.10000000000E+04  0.10000000000E+04  0.00000000000E+00 0.  1.
    9000005    2    1    2  501    0 -0.37440752255E+01 -0.23148090857E+02 -0.90872635239E+03  0.96146051249E+03  0.31316590068E+03 0.  0.
         13    1    3    3    0    0  0.11544567152E+03 -0.69324282501E+02 -0.72649410281E+03  0.73886889273E+03  0.00000000000E+00 0.  1.
          1    1    3    3  501    0 -0.11918974675E+03  0.46176191644E+02 -0.18223224957E+03  0.22259161977E+03  0.00000000000E+00 0.  1.
         21    1    1    2  502  501  0.37440752255E+01  0.23148090857E+02 -0.62788707108E+02  0.67024428009E+02  0.00000000000E+00 0.  1.
<mgrwt>
<rscale>  1 0.30000000E+03</rscale>
<asrwt>0</asrwt>
<pdfrwt beam="1">  1        1 0.10358182E+00 0.30000000E+03</pdfrwt>
<pdfrwt beam="2">0</pdfrwt>
<totfact> 0.32501102E+01</totfact>
</mgrwt>
</event>
<event>
 6    1  0.1929825E-004  0.3000000E+03  0.7818608E-02  0.1093470E+00
          1   -1    0    0  502    0  0.00000000000E+00  0.00000000000E+00  0.34655080740E+02  0.34655080740E+02  0.00000000000E+00 0.  1.
         13   -1    0    0    0    0 -0.00000000000E+00 -0.00000000000E+00 -0.10000000000E+04  0.10000000000E+04  0.00000000000E+00 0.  1.
    9000005    2    1    2  501    0 -0.15921267465E+02  0.90376014009E+01 -0.96218895036E+03  0.10160775369E+04  0.32599205471E+03 0.  0.
         13    1    3    3    0    0 -0.13024550633E+03 -0.60157244118E+02 -0.76196981617E+03  0.77535848914E+03  0.00000000000E+00 0.  1.
          1    1    3    3  501    0  0.11432423887E+03  0.69194845519E+02 -0.20021913419E+03  0.24071904772E+03  0.00000000000E+00 0.  1.
         21    1    1    2  502  501  0.15921267465E+02 -0.90376014009E+01 -0.31559689041E+01  0.18577543877E+02  0.00000000000E+00 0.  1.
<mgrwt>
<rscale>  1 0.30000000E+03</rscale>
<asrwt>0</asrwt>
<pdfrwt beam="1">  1        1 0.12601874E+00 0.30000000E+03</pdfrwt>
<pdfrwt beam="2">0</pdfrwt>
<totfact> 0.24059598E+01</totfact>
</mgrwt>
</event>
<event>
 6    1  0.1929825E-004  0.3000000E+03  0.7818608E-02  0.1093470E+00
          1   -1    0    0  502    0  0.00000000000E+00  0.00000000000E+00  0.36829827203E+02  0.36829827203E+02  0.00000000000E+00 0.  1.
         13   -1    0    0    0    0 -0.00000000000E+00 -0.00000000000E+00 -0.10000000000E+04  0.10000000000E+04  0.00000000000E+00 0.  1.
    9000005    2    1    2  501    0 -0.70890681351E+01 -0.18178708594E+02 -0.96404275252E+03  0.10172982700E+04  0.32424777722E+03 0.  0.
         13    1    3    3    0    0  0.72778179766E+02  0.13418173569E+03 -0.43726353090E+03  0.46314230761E+03  0.00000000000E+00 0.  1.
          3    1    3    3  501    0 -0.79867247901E+02 -0.15236044429E+03 -0.52677922162E+03  0.55415596234E+03  0.00000000000E+00 0.  1.
         21    1    1    2  502  501  0.70890681351E+01  0.18178708594E+02  0.87257972385E+00  0.19531557248E+02  0.00000000000E+00 0. -1.
<mgrwt>
<rscale>  1 0.30000000E+03</rscale>
<asrwt>0</asrwt>
<pdfrwt beam="1">  1        1 0.13392693E+00 0.30000000E+03</pdfrwt>
<pdfrwt beam="2">0</pdfrwt>
<totfact> 0.21788680E+01</totfact>
</mgrwt>
</event>
<event>
 6    1  0.1929825E-004  0.3000000E+03  0.7818608E-02  0.1093470E+00
          1   -1    0    0  502    0  0.00000000000E+00  0.00000000000E+00  0.61558492854E+02  0.61558492854E+02  0.00000000000E+00 0.  1.
         13   -1    0    0    0    0 -0.00000000000E+00 -0.00000000000E+00 -0.10000000000E+04  0.10000000000E+04  0.00000000000E+00 0.  1.
    9000005    2    1    2  501    0 -0.16145715563E+02  0.66429525524E+02 -0.63714981440E+03  0.75260825397E+03  0.39469701285E+03 0.  0.
         13    1    3    3    0    0  0.14953694720E+03  0.72108352773E+02 -0.52956769798E+03  0.55498005357E+03  0.00000000000E+00 0.  1.
          1    1    3    3  501    0 -0.16568266276E+03 -0.56788272493E+01 -0.10758211643E+03  0.19762820040E+03  0.00000000000E+00 0.  1.
         21    1    1    2  502  501  0.16145715563E+02 -0.66429525524E+02 -0.30129169274E+03  0.30895023889E+03  0.00000000000E+00 0.  1.
<mgrwt>
<rscale>  1 0.30000000E+03</rscale>
<asrwt>0</asrwt>
<pdfrwt beam="1">  1        1 0.22384954E+00 0.30000000E+03</pdfrwt>
<pdfrwt beam="2">0</pdfrwt>
<totfact> 0.79079030E+00</totfact>
</mgrwt>
</event>
<event>
 6    1  0.1929825E-004  0.3000000E+03  0.7818608E-02  0.1093470E+00
          3   -1    0    0  502    0  0.00000000000E+00  0.00000000000E+00  0.32204620767E+02  0.32204620767E+02  0.00000000000E+00 0.  1.
         13   -1    0    0    0    0 -0.00000000000E+00 -0.00000000000E+00 -0.10000000000E+04  0.10000000000E+04  0.00000000000E+00 0.  1.
    9000005    2    1    2  501    0 -0.13234712477E+01  0.20225233010E+02 -0.94192091855E+03  0.99933671329E+03  0.33323871038E+03 0.  0.
         13    1    3    3    0    0  0.19531469774E+02 -0.15409848386E+03 -0.37643978436E+03  0.40722810842E+03  0.00000000000E+00 0.  1.
          1    1    3    3  501    0 -0.20854941021E+02  0.17432371687E+03 -0.56548113419E+03  0.59210860487E+03  0.00000000000E+00 0.  1.
         21    1    1    2  502  501  0.13234712477E+01 -0.20225233010E+02 -0.25874460680E+02  0.32867907477E+02  0.00000000000E+00 0. -1.
<mgrwt>
<rscale>  1 0.30000000E+03</rscale>
<asrwt>0</asrwt>
<pdfrwt beam="1">  1        3 0.11710796E+00 0.30000000E+03</pdfrwt>
<pdfrwt beam="2">0</pdfrwt>
<totfact> 0.24982293E+00</totfact>
</mgrwt>
</event>
<event>
 6    1  0.1929825E-004  0.3000000E+03  0.7818608E-02  0.1093470E+00
          1   -1    0    0  502    0  0.00000000000E+00  0.00000000000E+00  0.30695011646E+02  0.30695011646E+02  0.00000000000E+00 0.  1.
         13   -1    0    0    0    0 -0.00000000000E+00 -0.00000000000E+00 -0.10000000000E+04  0.10000000000E+04  0.00000000000E+00 0.  1.
    9000005    2    1    2  501    0  0.23968910571E+02  0.81349171059E+01 -0.91915248140E+03  0.97451708445E+03  0.32280269248E+03 0.  0.
         13    1    3    3    0    0  0.48329083521E+02 -0.13004878136E+03 -0.21051022771E+03  0.25211692092E+03  0.00000000000E+00 0.  1.
          1    1    3    3  501    0 -0.24360172950E+02  0.13818369846E+03 -0.70864225369E+03  0.72240016353E+03  0.00000000000E+00 0.  1.
         21    1    1    2  502  501 -0.23968910571E+02 -0.81349171059E+01 -0.50152506957E+02  0.56177927199E+02  0.00000000000E+00 0.  1.
<mgrwt>
<rscale>  1 0.30000000E+03</rscale>
<asrwt>0</asrwt>
<pdfrwt beam="1">  1        1 0.11161846E+00 0.30000000E+03</pdfrwt>
<pdfrwt beam="2">0</pdfrwt>
<totfact> 0.29059972E+01</totfact>
</mgrwt>
</event>
<event>
 6    1  0.1929825E-004  0.3000000E+03  0.7818608E-02  0.1093470E+00
          1   -1    0    0  502    0  0.00000000000E+00  0.00000000000E+00  0.35241231493E+02  0.35241231493E+02  0.00000000000E+00 0.  1.
         13   -1    0    0    0    0 -0.00000000000E+00 -0.00000000000E+00 -0.10000000000E+04  0.10000000000E+04  0.00000000000E+00 0.  1.
    9000005    2    1    2  501    0 -0.16313637620E+02  0.13964164963E+02 -0.95878201099E+03  0.10129510026E+04  0.32610681734E+03 0.  0.
         13    1    3    3    0    0 -0.11387756054E+02  0.12812541839E+03 -0.83357164610E+03  0.84343790109E+03  0.00000000000E+00 0.  1.
          1    1    3    3  501    0 -0.49258815661E+01 -0.11416125342E+03 -0.12521036489E+03  0.16951310147E+03  0.00000000000E+00 0.  1.
         21    1    1    2  502  501  0.16313637620E+02 -0.13964164963E+02 -0.59767575219E+01  0.22290228935E+02  0.00000000000E+00 0.  1.
<mgrwt>
<rscale>  1 0.30000000E+03</rscale>
<asrwt>0</asrwt>
<pdfrwt beam="1">  1        1 0.12815020E+00 0.30000000E+03</pdfrwt>
<pdfrwt beam="2">0</pdfrwt>
<totfact> 0.23418465E+01</totfact>
</mgrwt>
</event>
<event>
 6    1  0.1929825E-004  0.3000000E+03  0.7818608E-02  0.1093470E+00
          1   -1    0    0  502    0  0.00000000000E+00  0.00000000000E+00  0.29655944990E+02  0.29655944990E+02  0.00000000000E+00 0.  1.
         13   -1    0    0    0    0 -0.00000000000E+00 -0.00000000000E+00 -0.10000000000E+04  0.10000000000E+04  0.00000000000E+00 0.  1.
    9000005    2    1    2  501    0 -0.17241220318E+02  0.41184373807E+01 -0.93011194307E+03  0.98569182285E+03  0.32583112464E+03 0.  0.
         13    1    3    3    0    0 -0.11117295529E+03 -0.15854885155E+02 -0.85871618910E+03  0.86602788454E+03  0.00000000000E+00 0.  1.
          1    1    3    3  501    0  0.93931734968E+02  0.19973322536E+02 -0.71395753967E+02  0.11966393831E+03  0.00000000000E+00 0.  1.
         21    1    1    2  502  501  0.17241220318E+02 -0.41184373807E+01 -0.40232111941E+02  0.43964122143E+02  0.00000000000E+00 0. -1.
<mgrwt>
<rscale>  1 0.30000000E+03</rscale>
<asrwt>0</asrwt>
<pdfrwt beam="1">  1        1 0.10784003E+00 0.30000000E+03</pdfrwt>
<pdfrwt beam="2">0</pdfrwt>
<totfact> 0.30609285E+01</totfact>
</mgrwt>
</event>
<event>
 6    1  0.1929825E-004  0.3000000E+03  0.7818608E-02  0.1093470E+00
          1   -1    0    0  502    0  0.00000000000E+00  0.00000000000E+00  0.51318595770E+02  0.51318595770E+02  0.00000000000E+00 0.  1.
         13   -1    0    0    0    0 -0.00000000000E+00 -0.00000000000E+00 -0.10000000000E+04  0.10000000000E+04  0.00000000000E+00 0.  1.
    9000005    2    1    2  501    0  0.33795515979E+02 -0.51849262714E+02 -0.92475067634E+03  0.98496226464E+03  0.33340120939E+03 0.  0.
         13    1    3    3    0    0  0.40909972598E+01  0.12958421759E+03 -0.20874725802E+03  0.24573201549E+03  0.00000000000E+00 0.  1.
          1    1    3    3  501    0  0.29704518719E+02 -0.18143348030E+03 -0.71600341832E+03  0.73923024914E+03  0.00000000000E+00 0.  1.
         21    1    1    2  502  501 -0.33795515979E+02  0.51849262714E+02 -0.23930727890E+02  0.66356331134E+02  0.00000000000E+00 0.  1.
<mgrwt>
<rscale>  1 0.30000000E+03</rscale>
<asrwt>0</asrwt>
<pdfrwt beam="1">  1        1 0.18661347E+00 0.30000000E+03</pdfrwt>
<pdfrwt beam="2">0</pdfrwt>
<totfact> 0.11870420E+01</totfact>
</mgrwt>
</event>
<event>
 6    1  0.1929825E-004  0.3000000E+03  0.7818608E-02  0.1093470E+00
          1   -1    0    0  502    0  0.00000000000E+00  0.00000000000E+00  0.50718323132E+02  0.50718323132E+02  0.00000000000E+00 0.  1.
         13   -1    0    0    0    0 -0.00000000000E+00 -0.00000000000E+00 -0.10000000000E+04  0.10000000000E+04  0.00000000000E+00 0.  1.
    9000005    2    1    2  501    0  0.69714575523E+02 -0.87330462437E+02 -0.74388059482E+03  0.81688860685E+03  0.31853088538E+03 0.  0.
         13    1    3    3    0    0  0.14835887427E+03 -0.76830972353E+02 -0.17293933977E+03  0.24046074342E+03  0.00000000000E+00 0.  1.
          3    1    3    3  501    0 -0.78644298746E+02 -0.10499490084E+02 -0.57094125505E+03  0.57642786343E+03  0.00000000000E+00 0.  1.
         21    1    1    2  502  501 -0.69714575523E+02  0.87330462437E+02 -0.20540108205E+03  0.23382971628E+03  0.00000000000E+00 0.  1.
<mgrwt>
<rscale>  1 0.30000000E+03</rscale>
<asrwt>0</asrwt>
<pdfrwt beam="1">  1        1 0.18443065E+00 0.30000000E+03</pdfrwt>
<pdfrwt beam="2">0</pdfrwt>
<totfact> 0.12160838E+01</totfact>
</mgrwt>
</event>
<event>
 6    1  0.1929825E-004  0.3000000E+03  0.7818608E-02  0.1093470E+00
          1   -1    0    0  502    0  0.00000000000E+00  0.00000000000E+00  0.39015973710E+02  0.39015973710E+02  0.00000000000E+00 0.  1.
         13   -1    0    0    0    0 -0.00000000000E+00 -0.00000000000E+00 -0.10000000000E+04  0.10000000000E+04  0.00000000000E+00 0.  1.
    9000005    2    1    2  501    0 -0.40689699674E+02 -0.34556660136E+02 -0.89698565105E+03  0.95567566862E+03  0.32539654421E+03 0.  0.
         13    1    3    3    0    0  0.88905906042E+02 -0.13265938704E+03 -0.34331098323E+03  0.37863597862E+03  0.00000000000E+00 0.  1.
          1    1    3    3  501    0 -0.12959560572E+03  0.98102726908E+02 -0.55367466782E+03  0.57703969000E+03  0.00000000000E+00 0.  1.
         21    1    1    2  502  501  0.40689699674E+02  0.34556660136E+02 -0.63998375239E+02  0.83340305090E+02  0.00000000000E+00 0.  1.
<mgrwt>
<rscale>  1 0.30000000E+03</rscale>
<asrwt>0</asrwt>
<pdfrwt beam="1">  1        1 0.14187657E+00 0.30000000E+03</pdfrwt>
<pdfrwt beam="2">0</pdfrwt>
<totfact> 0.19780348E+01</totfact>
</mgrwt>
</event>
<event>
 6    1  0.1929825E-004  0.3000000E+03  0.7818608E-02  0.1093470E+00
          1   -1    0    0  502    0  0.00000000000E+00  0.00000000000E+00  0.29272179853E+02  0.29272179853E+02  0.00000000000E+00 0.  1.
         13   -1    0    0    0    0 -0.00000000000E+00 -0.00000000000E+00 -0.10000000000E+04  0.10000000000E+04  0.00000000000E+00 0.  1.
    9000005    2    1    2  501    0 -0.53988802814E+01  0.11226167875E+02 -0.95415916860E+03  0.10085430948E+04  0.32647248011E+03 0.  0.
         13    1    3    3    0    0 -0.10208300742E+03 -0.12014442396E+03 -0.56496195352E+03  0.58654721203E+03  0.00000000000E+00 0.  1.
          1    1    3    3  501    0  0.96684127141E+02  0.13137059184E+03 -0.38919721508E+03  0.42199588276E+03  0.00000000000E+00 0.  1.
         21    1    1    2  502  501  0.53988802814E+01 -0.11226167875E+02 -0.16568651546E+02  0.20729085062E+02  0.00000000000E+00 0.  1.
<mgrwt>
<rscale>  1 0.30000000E+03</rscale>
<asrwt>0</asrwt>
<pdfrwt beam="1">  1        1 0.10644451E+00 0.30000000E+03</pdfrwt>
<pdfrwt beam="2">0</pdfrwt>
<totfact> 0.31211376E+01</totfact>
</mgrwt>
</event>
<event>
 6    1  0.1929825E-004  0.3000000E+03  0.7818608E-02  0.1093470E+00
          1   -1    0    0  502    0  0.00000000000E+00  0.00000000000E+00  0.34246233512E+02  0.34246233512E+02  0.00000000000E+00 0.  1.
         13   -1    0    0    0    0 -0.00000000000E+00 -0.00000000000E+00 -0.10000000000E+04  0.10000000000E+04  0.00000000000E+00 0.  1.
    9000005    2    1    2  501    0 -0.41341745021E+00 -0.16263430982E+02 -0.96724050729E+03  0.10179097559E+04  0.31673553982E+03 0.  0.
         13    1    3    3    0    0  0.67087907063E+02  0.10363565313E+03 -0.17712877337E+03  0.21590678134E+03  0.00000000000E+00 0.  1.
          3    1    3    3  501    0 -0.67501324513E+02 -0.11989908411E+03 -0.79011173393E+03  0.80200297460E+03  0.00000000000E+00 0.  1.
         21    1    1    2  502  501  0.41341745021E+00  0.16263430982E+02  0.14867408050E+01  0.16336477574E+02  0.00000000000E+00 0. -1.
<mgrwt>
<rscale>  1 0.30000000E+03</rscale>
<asrwt>0</asrwt>
<pdfrwt beam="1">  1        1 0.12453202E+00 0.30000000E+03</pdfrwt>
<pdfrwt beam="2">0</pdfrwt>
<totfact> 0.24520091E+01</totfact>
</mgrwt>
</event>
<event>
 6    1  0.1929825E-004  0.3000000E+03  0.7818608E-02  0.1093470E+00
          1   -1    0    0  502    0  0.00000000000E+00  0.00000000000E+00  0.42897099256E+02  0.42897099256E+02  0.00000000000E+00 0.  1.
         13   -1    0    0    0    0 -0.00000000000E+00 -0.00000000000E+00 -0.10000000000E+04  0.10000000000E+04  0.00000000000E+00 0.  1.
    9000005    2    1    2  501    0  0.21623206182E+02  0.29618451173E+02 -0.95077711936E+03  0.10056837790E+04  0.32569604991E+03 0.  0.
         13    1    3    3    0    0  0.97354331446E+02 -0.12179923824E+03 -0.39385850288E+03  0.42360056726E+03  0.00000000000E+00 0.  1.
          3    1    3    3  501    0 -0.75731125264E+02  0.15141768941E+03 -0.55691861647E+03  0.58208321173E+03  0.00000000000E+00 0.  1.
         21    1    1    2  502  501 -0.21623206182E+02 -0.29618451173E+02 -0.63257813891E+01  0.37213320272E+02  0.00000000000E+00 0.  1.
<mgrwt>
<rscale>  1 0.30000000E+03</rscale>
<asrwt>0</asrwt>
<pdfrwt beam="1">  1        1 0.15598978E+00 0.30000000E+03</pdfrwt>
<pdfrwt beam="2">0</pdfrwt>
<totfact> 0.16757330E+01</totfact>
</mgrwt>
</event>
<event>
 6    1  0.1929825E-004  0.3000000E+03  0.7818608E-02  0.1093470E+00
          1   -1    0    0  502    0  0.00000000000E+00  0.00000000000E+00  0.29000791668E+02  0.29000791668E+02  0.00000000000E+00 0.  1.
         13   -1    0    0    0    0 -0.00000000000E+00 -0.00000000000E+00 -0.10000000000E+04  0.10000000000E+04  0.00000000000E+00 0.  1.
    9000005    2    1    2  501    0  0.94469743263E+01  0.58333252707E+01 -0.95823188572E+03  0.10120810537E+04  0.32554022694E+03 0.  0.
         13    1    3    3    0    0 -0.12316787441E+03 -0.96598594006E+02 -0.51352058228E+03  0.53684728003E+03  0.00000000000E+00 0.  1.
          1    1    3    3  501    0  0.13261484873E+03  0.10243191928E+03 -0.44471130344E+03  0.47523377363E+03  0.00000000000E+00 0.  1.
         21    1    1    2  502  501 -0.94469743263E+01 -0.58333252707E+01 -0.12767322613E+02  0.16919738011E+02  0.00000000000E+00 0.  1.
<mgrwt>
<rscale>  1 0.30000000E+03</rscale>
<asrwt>0</asrwt>
<pdfrwt beam="1">  1        1 0.10545765E+00 0.30000000E+03</pdfrwt>
<pdfrwt beam="2">0</pdfrwt>
<totfact> 0.31647494E+01</totfact>
</mgrwt>
</event>
<event>
 6    1  0.1929825E-004  0.3000000E+03  0.7818608E-02  0.1093470E+00
          1   -1    0    0  502    0  0.00000000000E+00  0.00000000000E+00  0.56088769040E+02  0.56088769040E+02  0.00000000000E+00 0.  1.
         13   -1    0    0    0    0 -0.00000000000E+00 -0.00000000000E+00 -0.10000000000E+04  0.10000000000E+04  0.00000000000E+00 0.  1.
    9000005    2    1    2  501    0  0.10752303150E+02 -0.12325745345E+01 -0.97345266547E+03  0.10246272431E+04  0.31958373562E+03 0.  0.
         13    1    3    3    0    0 -0.12306216777E+02 -0.10935356664E+03 -0.85707469666E+03  0.86411034085E+03  0.00000000000E+00 0.  1.
          1    1    3    3  501    0  0.23058519927E+02  0.10812099211E+03 -0.11637796882E+03  0.16051690223E+03  0.00000000000E+00 0.  1.
         21    1    1    2  502  501 -0.10752303150E+02  0.12325745345E+01  0.29541434511E+02  0.31461525964E+02  0.00000000000E+00 0.  1.
<mgrwt>
<rscale>  1 0.30000000E+03</rscale>
<asrwt>0</asrwt>
<pdfrwt beam="1">  1        1 0.20395959E+00 0.30000000E+03</pdfrwt>
<pdfrwt beam="2">0</pdfrwt>
<totfact> 0.98094901E+00</totfact>
</mgrwt>
</event>
<event>
 6    1  0.1929825E-004  0.3000000E+03  0.7818608E-02  0.1093470E+00
          1   -1    0    0  502    0  0.00000000000E+00  0.00000000000E+00  0.52514394695E+02  0.52514394695E+02  0.00000000000E+00 0.  1.
         13   -1    0    0    0    0 -0.00000000000E+00 -0.00000000000E+00 -0.10000000000E+04  0.10000000000E+04  0.00000000000E+00 0.  1.
    9000005    2    1    2  501    0 -0.82633079158E+02  0.13069779700E+02 -0.88878508859E+03  0.95031461204E+03  0.32582185814E+03 0.  0.
         13    1    3    3    0    0 -0.36985983508E+02 -0.52447030325E+02 -0.86446312598E+03  0.86684205605E+03  0.00000000000E+00 0.  1.
          1    1    3    3  501    0 -0.45647095650E+02  0.65516810025E+02 -0.24321962610E+02  0.83472555983E+02  0.00000000000E+00 0.  1.
         21    1    1    2  502  501  0.82633079158E+02 -0.13069779700E+02 -0.58700516716E+02  0.10219978266E+03  0.00000000000E+00 0.  1.
<mgrwt>
<rscale>  1 0.30000000E+03</rscale>
<asrwt>0</asrwt>
<pdfrwt beam="1">  1        1 0.19096184E+00 0.30000000E+03</pdfrwt>
<pdfrwt beam="2">0</pdfrwt>
<totfact> 0.11313148E+01</totfact>
</mgrwt>
</event>
<event>
 6    1  0.1929825E-004  0.3000000E+03  0.7818608E-02  0.1093470E+00
          1   -1    0    0  502    0  0.00000000000E+00  0.00000000000E+00  0.19650353586E+02  0.19650353586E+02  0.00000000000E+00 0.  1.
         13   -1    0    0    0    0 -0.00000000000E+00 -0.00000000000E+00 -0.10000000000E+04  0.10000000000E+04  0.00000000000E+00 0.  1.
    9000005    2    1    2  501    0  0.18264531647E+02  0.30094529014E+01 -0.97908250880E+03  0.10010962284E+04  0.20796261586E+03 0.  0.
         13    1    3    3    0    0 -0.53664403657E+02 -0.81525402000E+02 -0.47931310649E+03  0.48914958187E+03  0.00000000000E+00 0.  1.
          1    1    3    3  501    0  0.71928935304E+02  0.84534854901E+02 -0.49976940231E+03  0.51194664655E+03  0.00000000000E+00 0.  1.
         21    1    1    2  502  501 -0.18264531647E+02 -0.30094529014E+01 -0.12671376165E+01  0.18554125169E+02  0.00000000000E+00 0.  1.
<mgrwt>
<rscale>  1 0.30000000E+03</rscale>
<asrwt>0</asrwt>
<pdfrwt beam="1">  1        1 0.71455982E-01 0.30000000E+03</pdfrwt>
<pdfrwt beam="2">0</pdfrwt>
<totfact> 0.54829098E+01</totfact>
</mgrwt>
</event>
<event>
 6    1  0.1929825E-004  0.3000000E+03  0.7818608E-02  0.1093470E+00
          1   -1    0    0  502    0  0.00000000000E+00  0.00000000000E+00  0.33133021083E+02  0.33133021083E+02  0.00000000000E+00 0.  1.
         13   -1    0    0    0    0 -0.00000000000E+00 -0.00000000000E+00 -0.10000000000E+04  0.10000000000E+04  0.00000000000E+00 0.  1.
    9000005    2    1    2  501    0 -0.19136980661E+02 -0.33301298049E+01 -0.95708631556E+03  0.10113850288E+04  0.32635585979E+03 0.  0.
         13    1    3    3    0    0 -0.27817035391E+02 -0.95731410044E+02 -0.75825983224E+02  0.12525122777E+03  0.00000000000E+00 0.  1.
          3    1    3    3  501    0  0.86800547308E+01  0.92401280239E+02 -0.88126033234E+03  0.88613380101E+03  0.00000000000E+00 0.  1.
         21    1    1    2  502  501  0.19136980661E+02  0.33301298049E+01 -0.97806633527E+01  0.21747992297E+02  0.00000000000E+00 0. -1.
<mgrwt>
<rscale>  1 0.30000000E+03</rscale>
<asrwt>0</asrwt>
<pdfrwt beam="1">  1        1 0.12048397E+00 0.30000000E+03</pdfrwt>
<pdfrwt beam="2">0</pdfrwt>
<totfact> 0.25832911E+01</totfact>
</mgrwt>
</event>
<event>
 6    1  0.1929825E-004  0.3000000E+03  0.7818608E-02  0.1093470E+00
          1   -1    0    0  502    0  0.00000000000E+00  0.00000000000E+00  0.52153068385E+02  0.52153068385E+02  0.00000000000E+00 0.  1.
         13   -1    0    0    0    0 -0.00000000000E+00 -0.00000000000E+00 -0.10000000000E+04  0.10000000000E+04  0.00000000000E+00 0.  1.
    9000005    2    1    2  501    0  0.63093479504E+01 -0.10272446164E+02 -0.97317802704E+03  0.10240996298E+04  0.31868361799E+03 0.  0.
         13    1    3    3    0    0  0.11780858766E+03  0.34958644681E+02 -0.82077321893E+03  0.82992147043E+03  0.00000000000E+00 0.  1.
          3    1    3    3  501    0 -0.11149923971E+03 -0.45231090845E+02 -0.15240480811E+03  0.19417815935E+03  0.00000000000E+00 0.  1.
         21    1    1    2  502  501 -0.63093479504E+01  0.10272446164E+02  0.25331095429E+02  0.28053438602E+02  0.00000000000E+00 0.  1.
<mgrwt>
<rscale>  1 0.30000000E+03</rscale>
<asrwt>0</asrwt>
<pdfrwt beam="1">  1        1 0.18964792E+00 0.30000000E+03</pdfrwt>
<pdfrwt beam="2">0</pdfrwt>
<totfact> 0.11478568E+01</totfact>
</mgrwt>
</event>
<event>
 6    1  0.1929825E-004  0.3000000E+03  0.7818608E-02  0.1093470E+00
          1   -1    0    0  502    0  0.00000000000E+00  0.00000000000E+00  0.29900495578E+02  0.29900495578E+02  0.00000000000E+00 0.  1.
         13   -1    0    0    0    0 -0.00000000000E+00 -0.00000000000E+00 -0.10000000000E+04  0.10000000000E+04  0.00000000000E+00 0.  1.
    9000005    2    1    2  501    0 -0.22173543599E+01  0.10280385326E+02 -0.96493512468E+03  0.10181841053E+04  0.32478989282E+03 0.  0.
         13    1    3    3    0    0  0.50051645798E+02  0.26790379350E+02 -0.96159350347E+03  0.96326785350E+03  0.00000000000E+00 0.  1.
          1    1    3    3  501    0 -0.52269000158E+02 -0.16509994024E+02 -0.33416212097E+01  0.54916251806E+02  0.00000000000E+00 0.  1.
         21    1    1    2  502  501  0.22173543599E+01 -0.10280385326E+02 -0.51643797406E+01  0.11716390268E+02  0.00000000000E+00 0.  1.
<mgrwt>
<rscale>  1 0.30000000E+03</rscale>
<asrwt>0</asrwt>
<pdfrwt beam="1">  1        1 0.10872930E+00 0.30000000E+03</pdfrwt>
<pdfrwt beam="2">0</pdfrwt>
<totfact> 0.30234253E+01</totfact>
</mgrwt>
</event>
<event>
 6    1  0.1929825E-004  0.3000000E+03  0.7818608E-02  0.1093470E+00
          1   -1    0    0  502    0  0.00000000000E+00  0.00000000000E+00  0.69271089828E+02  0.69271089828E+02  0.00000000000E+00 0.  1.
         13   -1    0    0    0    0 -0.00000000000E+00 -0.00000000000E+00 -0.10000000000E+04  0.10000000000E+04  0.00000000000E+00 0.  1.
    9000005    2    1    2  501    0  0.21578242612E+02 -0.70849965861E+02 -0.93709551743E+03  0.99493488126E+03  0.32597863572E+03 0.  0.
         13    1    3    3    0    0 -0.55293684451E+02 -0.17444885178E+03 -0.36295915157E+03  0.40648387316E+03  0.00000000000E+00 0.  1.
          1    1    3    3  501    0  0.76871927063E+02  0.10359888592E+03 -0.57413636586E+03  0.58845100810E+03  0.00000000000E+00 0.  1.
         21    1    1    2  502  501 -0.21578242612E+02  0.70849965861E+02  0.63666072534E+01  0.74336208570E+02  0.00000000000E+00 0.  1.
<mgrwt>
<rscale>  1 0.30000000E+03</rscale>
<asrwt>0</asrwt>
<pdfrwt beam="1">  1        1 0.25189540E+00 0.30000000E+03</pdfrwt>
<pdfrwt beam="2">0</pdfrwt>
<totfact> 0.58460746E+00</totfact>
</mgrwt>
</event>
<event>
 6    1  0.1929825E-004  0.3000000E+03  0.7818608E-02  0.1093470E+00
          1   -1    0    0  502    0  0.00000000000E+00  0.00000000000E+00  0.64854130602E+02  0.64854130602E+02  0.00000000000E+00 0.  1.
         13   -1    0    0    0    0 -0.00000000000E+00 -0.00000000000E+00 -0.10000000000E+04  0.10000000000E+04  0.00000000000E+00 0.  1.
    9000005    2    1    2  501    0  0.44270899719E+02  0.17874922707E+02 -0.94676437430E+03  0.10157174327E+04  0.36474607227E+03 0.  0.
         13    1    3    3    0    0  0.15349625579E+03  0.13610653155E+03 -0.48090771790E+03  0.52283680208E+03  0.00000000000E+00 0.  1.
          1    1    3    3  501    0 -0.10922535607E+03 -0.11823160884E+03 -0.46585665640E+03  0.49288063063E+03  0.00000000000E+00 0.  1.
         21    1    1    2  502  501 -0.44270899719E+02 -0.17874922707E+02  0.11618504905E+02  0.49136697894E+02  0.00000000000E+00 0.  1.
<mgrwt>
<rscale>  1 0.30000000E+03</rscale>
<asrwt>0</asrwt>
<pdfrwt beam="1">  1        1 0.23583370E+00 0.30000000E+03</pdfrwt>
<pdfrwt beam="2">0</pdfrwt>
<totfact> 0.69494549E+00</totfact>
</mgrwt>
</event>
<event>
 6    1  0.1929825E-004  0.3000000E+03  0.7818608E-02  0.1093470E+00
          1   -1    0    0  502    0  0.00000000000E+00  0.00000000000E+00  0.36287941569E+02  0.36287941569E+02  0.00000000000E+00 0.  1.
         13   -1    0    0    0    0 -0.00000000000E+00 -0.00000000000E+00 -0.10000000000E+04  0.10000000000E+04  0.00000000000E+00 0.  1.
    9000005    2    1    2  501    0 -0.31328213850E+02 -0.14387250481E+02 -0.94445259594E+03  0.99679899559E+03  0.31690547749E+03 0.  0.
         13    1    3    3    0    0  0.40227581432E+02  0.49264014486E+02 -0.18964566718E+02  0.66369090863E+02  0.00000000000E+00 0.  1.
          3    1    3    3  501    0 -0.71555795282E+02 -0.63651264966E+02 -0.92548802922E+03  0.93042990472E+03  0.00000000000E+00 0.  1.
         21    1    1    2  502  501  0.31328213850E+02  0.14387250481E+02 -0.19259462491E+02  0.39488945983E+02  0.00000000000E+00 0. -1.
<mgrwt>
<rscale>  1 0.30000000E+03</rscale>
<asrwt>0</asrwt>
<pdfrwt beam="1">  1        1 0.13195643E+00 0.30000000E+03</pdfrwt>
<pdfrwt beam="2">0</pdfrwt>
<totfact> 0.22327438E+01</totfact>
</mgrwt>
</event>
<event>
 6    1  0.1929825E-004  0.3000000E+03  0.7818608E-02  0.1093470E+00
          1   -1    0    0  502    0  0.00000000000E+00  0.00000000000E+00  0.18479591134E+02  0.18479591134E+02  0.00000000000E+00 0.  1.
         13   -1    0    0    0    0 -0.00000000000E+00 -0.00000000000E+00 -0.10000000000E+04  0.10000000000E+04  0.00000000000E+00 0.  1.
    9000005    2    1    2  501    0  0.13103041329E+02 -0.96515555390E+01 -0.98095388624E+03  0.10021957598E+04  0.20459953991E+03 0.  0.
         13    1    3    3    0    0  0.11769838641E+02  0.65343337353E+02 -0.83918468589E+03  0.84180711440E+03  0.00000000000E+00 0.  1.
          3    1    3    3  501    0  0.13332026874E+01 -0.74994892892E+02 -0.14176920035E+03  0.16038864535E+03  0.00000000000E+00 0.  1.
         21    1    1    2  502  501 -0.13103041329E+02  0.96515555390E+01 -0.56652262561E+00  0.16283831376E+02  0.00000000000E+00 0.  1.
<mgrwt>
<rscale>  1 0.30000000E+03</rscale>
<asrwt>0</asrwt>
<pdfrwt beam="1">  1        1 0.67198655E-01 0.30000000E+03</pdfrwt>
<pdfrwt beam="2">0</pdfrwt>
<totfact> 0.59588137E+01</totfact>
</mgrwt>
</event>
<event>
 6    1  0.1929825E-004  0.3000000E+03  0.7818608E-02  0.1093470E+00
          1   -1    0    0  502    0  0.00000000000E+00  0.00000000000E+00  0.26569650182E+02  0.26569650182E+02  0.00000000000E+00 0.  1.
         13   -1    0    0    0    0 -0.00000000000E+00 -0.00000000000E+00 -0.10000000000E+04  0.10000000000E+04  0.00000000000E+00 0.  1.
    9000005    2    1    2  501    0  0.11690818654E+02 -0.10701511810E+01 -0.94821191543E+03  0.99875257094E+03  0.31346936204E+03 0.  0.
         13    1    3    3    0    0 -0.92903974609E+02 -0.11867563645E+03 -0.55799579877E+03  0.57799166658E+03  0.00000000000E+00 0.  1.
          1    1    3    3  501    0  0.10459479326E+03  0.11760548527E+03 -0.39021611666E+03  0.42076090436E+03  0.00000000000E+00 0.  1.
         21    1    1    2  502  501 -0.11690818654E+02  0.10701511810E+01 -0.25218434390E+02  0.27817079240E+02  0.00000000000E+00 0.  1.
<mgrwt>
<rscale>  1 0.30000000E+03</rscale>
<asrwt>0</asrwt>
<pdfrwt beam="1">  1        1 0.96617113E-01 0.30000000E+03</pdfrwt>
<pdfrwt beam="2">0</pdfrwt>
<totfact> 0.35983728E+01</totfact>
</mgrwt>
</event>
<event>
 6    1  0.1929825E-004  0.3000000E+03  0.7818608E-02  0.1093470E+00
          1   -1    0    0  502    0  0.00000000000E+00  0.00000000000E+00  0.36534343854E+02  0.36534343854E+02  0.00000000000E+00 0.  1.
         13   -1    0    0    0    0 -0.00000000000E+00 -0.00000000000E+00 -0.10000000000E+04  0.10000000000E+04  0.00000000000E+00 0.  1.
    9000005    2    1    2  501    0  0.28985657101E+02  0.10645958383E+01 -0.95409744926E+03  0.10060537766E+04  0.31780647724E+03 0.  0.
         13    1    3    3    0    0  0.35827594056E+01  0.97470973285E+02 -0.79609534900E+02  0.12590117094E+03  0.00000000000E+00 0.  1.
          1    1    3    3  501    0  0.25402897696E+02 -0.96406377446E+02 -0.87448791436E+03  0.88015260562E+03  0.00000000000E+00 0.  1.
         21    1    1    2  502  501 -0.28985657101E+02 -0.10645958383E+01 -0.93682068863E+01  0.30480567287E+02  0.00000000000E+00 0. -1.
<mgrwt>
<rscale>  1 0.30000000E+03</rscale>
<asrwt>0</asrwt>
<pdfrwt beam="1">  1        1 0.13285244E+00 0.30000000E+03</pdfrwt>
<pdfrwt beam="2">0</pdfrwt>
<totfact> 0.22080306E+01</totfact>
</mgrwt>
</event>
<event>
 6    1  0.1929825E-004  0.3000000E+03  0.7818608E-02  0.1093470E+00
          1   -1    0    0  502    0  0.00000000000E+00  0.00000000000E+00  0.36307849283E+02  0.36307849283E+02  0.00000000000E+00 0.  1.
         13   -1    0    0    0    0 -0.00000000000E+00 -0.00000000000E+00 -0.10000000000E+04  0.10000000000E+04  0.00000000000E+00 0.  1.
    9000005    2    1    2  501    0 -0.22391509951E+00  0.11406662640E+02 -0.96877155784E+03  0.10238193559E+04  0.33099483397E+03 0.  0.
         13    1    3    3    0    0 -0.44223516110E+02  0.15829964478E+03 -0.35531690841E+03  0.39149023272E+03  0.00000000000E+00 0.  1.
          3    1    3    3  501    0  0.43999601010E+02 -0.14689298214E+03 -0.61345464943E+03  0.63232912316E+03  0.00000000000E+00 0.  1.
         21    1    1    2  502  501  0.22391509951E+00 -0.11406662640E+02  0.50794071260E+01  0.12488493396E+02  0.00000000000E+00 0.  1.
<mgrwt>
<rscale>  1 0.30000000E+03</rscale>
<asrwt>0</asrwt>
<pdfrwt beam="1">  1        1 0.13202882E+00 0.30000000E+03</pdfrwt>
<pdfrwt beam="2">0</pdfrwt>
<totfact> 0.22307337E+01</totfact>
</mgrwt>
</event>
<event>
 6    1  0.1929825E-004  0.3000000E+03  0.7818608E-02  0.1093470E+00
          1   -1    0    0  502    0  0.00000000000E+00  0.00000000000E+00  0.30092895926E+02  0.30092895926E+02  0.00000000000E+00 0.  1.
         13   -1    0    0    0    0 -0.00000000000E+00 -0.00000000000E+00 -0.10000000000E+04  0.10000000000E+04  0.00000000000E+00 0.  1.
    9000005    2    1    2  501    0 -0.16061893523E+02 -0.30496932315E+01 -0.94668572378E+03  0.10016936432E+04  0.32696943309E+03 0.  0.
         13    1    3    3    0    0 -0.12688579201E+02 -0.14226951959E+03 -0.73193583623E+03  0.74574237146E+03  0.00000000000E+00 0.  1.
          3    1    3    3  501    0 -0.33733143214E+01  0.13921982636E+03 -0.21474988756E+03  0.25595127174E+03  0.00000000000E+00 0.  1.
         21    1    1    2  502  501  0.16061893523E+02  0.30496932315E+01 -0.23221380293E+02  0.28399252720E+02  0.00000000000E+00 0. -1.
<mgrwt>
<rscale>  1 0.30000000E+03</rscale>
<asrwt>0</asrwt>
<pdfrwt beam="1">  1        1 0.10942894E+00 0.30000000E+03</pdfrwt>
<pdfrwt beam="2">0</pdfrwt>
<totfact> 0.29943789E+01</totfact>
</mgrwt>
</event>
<event>
 6    1  0.1929825E-004  0.3000000E+03  0.7818608E-02  0.1093470E+00
          1   -1    0    0  502    0  0.00000000000E+00  0.00000000000E+00  0.33828355550E+02  0.33828355550E+02  0.00000000000E+00 0.  1.
         13   -1    0    0    0    0 -0.00000000000E+00 -0.00000000000E+00 -0.10000000000E+04  0.10000000000E+04  0.00000000000E+00 0.  1.
    9000005    2    1    2  501    0  0.83700113472E+01  0.13827664828E+02 -0.95690647913E+03  0.10151976096E+04  0.33866637776E+03 0.  0.
         13    1    3    3    0    0 -0.78941236940E+02  0.14175772287E+03 -0.66765541366E+03  0.68708858400E+03  0.00000000000E+00 0.  1.
          3    1    3    3  501    0  0.87311248287E+02 -0.12793005805E+03 -0.28925106548E+03  0.32810902564E+03  0.00000000000E+00 0.  1.
         21    1    1    2  502  501 -0.83700113472E+01 -0.13827664828E+02 -0.92651653187E+01  0.18630745904E+02  0.00000000000E+00 0. -1.
<mgrwt>
<rscale>  1 0.30000000E+03</rscale>
<asrwt>0</asrwt>
<pdfrwt beam="1">  1        1 0.12301246E+00 0.30000000E+03</pdfrwt>
<pdfrwt beam="2">0</pdfrwt>
<totfact> 0.25002443E+01</totfact>
</mgrwt>
</event>
<event>
 6    1  0.1929825E-004  0.3000000E+03  0.7818608E-02  0.1093470E+00
          1   -1    0    0  502    0  0.00000000000E+00  0.00000000000E+00  0.43576209183E+02  0.43576209183E+02  0.00000000000E+00 0.  1.
         13   -1    0    0    0    0 -0.00000000000E+00 -0.00000000000E+00 -0.10000000000E+04  0.10000000000E+04  0.00000000000E+00 0.  1.
    9000005    2    1    2  501    0  0.43302849983E+02  0.31805930356E+02 -0.92416856828E+03  0.98090920508E+03  0.32435870882E+03 0.  0.
         13    1    3    3    0    0 -0.11812634374E+03 -0.28002268108E+02 -0.18017275801E+03  0.21725603061E+03  0.00000000000E+00 0.  1.
          3    1    3    3  501    0  0.16142919372E+03  0.59808198464E+02 -0.74399581026E+03  0.76365317447E+03  0.00000000000E+00 0.  1.
         21    1    1    2  502  501 -0.43302849983E+02 -0.31805930356E+02 -0.32255222538E+02  0.62667004105E+02  0.00000000000E+00 0.  1.
<mgrwt>
<rscale>  1 0.30000000E+03</rscale>
<asrwt>0</asrwt>
<pdfrwt beam="1">  1        1 0.15845928E+00 0.30000000E+03</pdfrwt>
<pdfrwt beam="2">0</pdfrwt>
<totfact> 0.16288010E+01</totfact>
</mgrwt>
</event>
<event>
 6    1  0.1929825E-004  0.3000000E+03  0.7818608E-02  0.1093470E+00
          1   -1    0    0  502    0  0.00000000000E+00  0.00000000000E+00  0.30018534188E+02  0.30018534188E+02  0.00000000000E+00 0.  1.
         13   -1    0    0    0    0 -0.00000000000E+00 -0.00000000000E+00 -0.10000000000E+04  0.10000000000E+04  0.00000000000E+00 0.  1.
    9000005    2    1    2  501    0 -0.78054510807E+01  0.14714407663E+02 -0.95271974941E+03  0.10060309184E+04  0.32271635989E+03 0.  0.
         13    1    3    3    0    0  0.44327577085E+02 -0.12112443654E+03 -0.72079581044E+03  0.73224494779E+03  0.00000000000E+00 0.  1.
          1    1    3    3  501    0 -0.52133028166E+02  0.13583884420E+03 -0.23192393897E+03  0.27378597058E+03  0.00000000000E+00 0.  1.
         21    1    1    2  502  501  0.78054510807E+01 -0.14714407663E+02 -0.17261716403E+02  0.23987615818E+02  0.00000000000E+00 0.  1.
<mgrwt>
<rscale>  1 0.30000000E+03</rscale>
<asrwt>0</asrwt>
<pdfrwt beam="1">  1        1 0.10915854E+00 0.30000000E+03</pdfrwt>
<pdfrwt beam="2">0</pdfrwt>
<totfact> 0.30055578E+01</totfact>
</mgrwt>
</event>
<event>
 6    1  0.1929825E-004  0.3000000E+03  0.7818608E-02  0.1093470E+00
          1   -1    0    0  502    0  0.00000000000E+00  0.00000000000E+00  0.90188764268E+02  0.90188764268E+02  0.00000000000E+00 0.  1.
         13   -1    0    0    0    0 -0.00000000000E+00 -0.00000000000E+00 -0.10000000000E+04  0.10000000000E+04  0.00000000000E+00 0.  1.
    9000005    2    1    2  501    0  0.49366344829E+02 -0.14546590327E+03 -0.85613152148E+03  0.92746545083E+03  0.32192175352E+03 0.  0.
         13    1    3    3    0    0 -0.89381624645E+02 -0.18143270375E+03 -0.38333418270E+03  0.43341896179E+03  0.00000000000E+00 0.  1.
          3    1    3    3  501    0  0.13874796947E+03  0.35966800484E+02 -0.47279733878E+03  0.49404648904E+03  0.00000000000E+00 0.  1.
         21    1    1    2  502  501 -0.49366344829E+02  0.14546590327E+03 -0.53679714250E+02  0.16272331344E+03  0.00000000000E+00 0.  1.
<mgrwt>
<rscale>  1 0.30000000E+03</rscale>
<asrwt>0</asrwt>
<pdfrwt beam="1">  1        1 0.32795983E+00 0.30000000E+03</pdfrwt>
<pdfrwt beam="2">0</pdfrwt>
<totfact> 0.25448883E+00</totfact>
</mgrwt>
</event>
<event>
 6    1  0.1929825E-004  0.3000000E+03  0.7818608E-02  0.1093470E+00
          1   -1    0    0  502    0  0.00000000000E+00  0.00000000000E+00  0.32382162313E+02  0.32382162313E+02  0.00000000000E+00 0.  1.
         13   -1    0    0    0    0 -0.00000000000E+00 -0.00000000000E+00 -0.10000000000E+04  0.10000000000E+04  0.00000000000E+00 0.  1.
    9000005    2    1    2  501    0 -0.98124350336E+01  0.14857295296E+02 -0.95701342712E+03  0.10116583444E+04  0.32750707326E+03 0.  0.
         13    1    3    3    0    0 -0.16212384284E+02 -0.60191341525E+01  0.24452312485E+02  0.29949740666E+02  0.00000000000E+00 0.  1.
          1    1    3    3  501    0  0.63999492500E+01  0.20876429448E+02 -0.98146573961E+03  0.98170860375E+03  0.00000000000E+00 0.  1.
         21    1    1    2  502  501  0.98124350336E+01 -0.14857295296E+02 -0.10604410567E+02  0.20723817898E+02  0.00000000000E+00 0. -1.
<mgrwt>
<rscale>  1 0.30000000E+03</rscale>
<asrwt>0</asrwt>
<pdfrwt beam="1">  1        1 0.11775357E+00 0.30000000E+03</pdfrwt>
<pdfrwt beam="2">0</pdfrwt>
<totfact> 0.26771580E+01</totfact>
</mgrwt>
</event>
<event>
 6    1  0.1929825E-004  0.3000000E+03  0.7818608E-02  0.1093470E+00
          1   -1    0    0  502    0  0.00000000000E+00  0.00000000000E+00  0.29208960922E+02  0.29208960922E+02  0.00000000000E+00 0.  1.
         13   -1    0    0    0    0 -0.00000000000E+00 -0.00000000000E+00 -0.10000000000E+04  0.10000000000E+04  0.00000000000E+00 0.  1.
    9000005    2    1    2  501    0 -0.85674240186E+01  0.11584804833E+02 -0.94627318473E+03  0.10007707184E+04  0.32542507918E+03 0.  0.
         13    1    3    3    0    0  0.14379985789E+03 -0.52530423946E+02 -0.35022986797E+03  0.38222873386E+03  0.00000000000E+00 0.  1.
          3    1    3    3  501    0 -0.15236728191E+03  0.64115228779E+02 -0.59604331676E+03  0.61854198452E+03  0.00000000000E+00 0.  1.
         21    1    1    2  502  501  0.85674240186E+01 -0.11584804833E+02 -0.24517854350E+02  0.28438242549E+02  0.00000000000E+00 0.  1.
<mgrwt>
<rscale>  1 0.30000000E+03</rscale>
<asrwt>0</asrwt>
<pdfrwt beam="1">  1        1 0.10621463E+00 0.30000000E+03</pdfrwt>
<pdfrwt beam="2">0</pdfrwt>
<totfact> 0.31312191E+01</totfact>
</mgrwt>
</event>
<event>
 6    1  0.1929825E-004  0.3000000E+03  0.7818608E-02  0.1093470E+00
          1   -1    0    0  502    0  0.00000000000E+00  0.00000000000E+00  0.41398804562E+02  0.41398804562E+02  0.00000000000E+00 0.  1.
         13   -1    0    0    0    0 -0.00000000000E+00 -0.00000000000E+00 -0.10000000000E+04  0.10000000000E+04  0.00000000000E+00 0.  1.
    9000005    2    1    2  501    0 -0.12534530327E+02 -0.20253792995E+02 -0.96242043666E+03  0.10172758449E+04  0.32867874444E+03 0.  0.
         13    1    3    3    0    0  0.69777051870E+02 -0.86427210251E+02 -0.10330097499E+03  0.15168912641E+03  0.00000000000E+00 0.  1.
          1    1    3    3  501    0 -0.82311582197E+02  0.66173417256E+02 -0.85911946168E+03  0.86558671845E+03  0.00000000000E+00 0.  1.
         21    1    1    2  502  501  0.12534530327E+02  0.20253792995E+02  0.38192412255E+01  0.24122959701E+02  0.00000000000E+00 0. -1.
<mgrwt>
<rscale>  1 0.30000000E+03</rscale>
<asrwt>0</asrwt>
<pdfrwt beam="1">  1        1 0.15054142E+00 0.30000000E+03</pdfrwt>
<pdfrwt beam="2">0</pdfrwt>
<totfact> 0.17851518E+01</totfact>
</mgrwt>
</event>
<event>
 6    1  0.1929825E-004  0.3000000E+03  0.7818608E-02  0.1093470E+00
          1   -1    0    0  502    0  0.00000000000E+00  0.00000000000E+00  0.27143140556E+02  0.27143140556E+02  0.00000000000E+00 0.  1.
         13   -1    0    0    0    0 -0.00000000000E+00 -0.00000000000E+00 -0.10000000000E+04  0.10000000000E+04  0.00000000000E+00 0.  1.
    9000005    2    1    2  501    0  0.40523201231E+01 -0.79394196211E+01 -0.95554381249E+03  0.10076701522E+04  0.31977445533E+03 0.  0.
         13    1    3    3    0    0 -0.76342006728E+02 -0.14297031020E+03 -0.51772914324E+03  0.54250537080E+03  0.00000000000E+00 0.  1.
          3    1    3    3  501    0  0.80394326851E+02  0.13503089058E+03 -0.43781466926E+03  0.46516478136E+03  0.00000000000E+00 0.  1.
         21    1    1    2  502  501 -0.40523201231E+01  0.79394196211E+01 -0.17313046949E+02  0.19472988393E+02  0.00000000000E+00 0. -1.
<mgrwt>
<rscale>  1 0.30000000E+03</rscale>
<asrwt>0</asrwt>
<pdfrwt beam="1">  1        1 0.98702537E-01 0.30000000E+03</pdfrwt>
<pdfrwt beam="2">0</pdfrwt>
<totfact> 0.34885437E+01</totfact>
</mgrwt>
</event>
<event>
 6    1  0.1929825E-004  0.3000000E+03  0.7818608E-02  0.1093470E+00
          1   -1    0    0  502    0  0.00000000000E+00  0.00000000000E+00  0.34049507220E+02  0.34049507220E+02  0.00000000000E+00 0.  1.
         13   -1    0    0    0    0 -0.00000000000E+00 -0.00000000000E+00 -0.10000000000E+04  0.10000000000E+04  0.00000000000E+00 0.  1.
    9000005    2    1    2  501    0 -0.91726728533E+01 -0.73305356463E+01 -0.96257901653E+03  0.10218330621E+04  0.34270478401E+03 0.  0.
         13    1    3    3    0    0  0.75472346529E-01 -0.13830107856E+03 -0.80467546666E+03  0.81647400489E+03  0.00000000000E+00 0.  1.
          1    1    3    3  501    0 -0.92481451998E+01  0.13097054291E+03 -0.15790354988E+03  0.20535905717E+03  0.00000000000E+00 0.  1.
         21    1    1    2  502  501  0.91726728533E+01  0.73305356463E+01 -0.33714762499E+01  0.12216445156E+02  0.00000000000E+00 0.  1.
<mgrwt>
<rscale>  1 0.30000000E+03</rscale>
<asrwt>0</asrwt>
<pdfrwt beam="1">  1        1 0.12381665E+00 0.30000000E+03</pdfrwt>
<pdfrwt beam="2">0</pdfrwt>
<totfact> 0.24745657E+01</totfact>
</mgrwt>
</event>
<event>
 6    1  0.1929825E-004  0.3000000E+03  0.7818608E-02  0.1093470E+00
          3   -1    0    0  502    0  0.00000000000E+00  0.00000000000E+00  0.32159133813E+02  0.32159133813E+02  0.00000000000E+00 0.  1.
         13   -1    0    0    0    0 -0.00000000000E+00 -0.00000000000E+00 -0.10000000000E+04  0.10000000000E+04  0.00000000000E+00 0.  1.
    9000005    2    1    2  501    0  0.12775954276E+02  0.61069397185E+01 -0.95463127980E+03  0.10127938842E+04  0.33797936588E+03 0.  0.
         13    1    3    3    0    0 -0.76871306069E+02 -0.11190008922E+03 -0.73761399279E+03  0.75000348668E+03  0.00000000000E+00 0.  1.
          3    1    3    3  501    0  0.89647260345E+02  0.11800702894E+03 -0.21701728701E+03  0.26279039751E+03  0.00000000000E+00 0.  1.
         21    1    1    2  502  501 -0.12775954276E+02 -0.61069397185E+01 -0.13209586386E+02  0.19365249621E+02  0.00000000000E+00 0. -1.
<mgrwt>
<rscale>  1 0.30000000E+03</rscale>
<asrwt>0</asrwt>
<pdfrwt beam="1">  1        3 0.11694255E+00 0.30000000E+03</pdfrwt>
<pdfrwt beam="2">0</pdfrwt>
<totfact> 0.25092346E+00</totfact>
</mgrwt>
</event>
<event>
 6    1  0.1929825E-004  0.3000000E+03  0.7818608E-02  0.1093470E+00
          1   -1    0    0  502    0  0.00000000000E+00  0.00000000000E+00  0.36613390298E+02  0.36613390298E+02  0.00000000000E+00 0.  1.
         13   -1    0    0    0    0 -0.00000000000E+00 -0.00000000000E+00 -0.10000000000E+04  0.10000000000E+04  0.00000000000E+00 0.  1.
    9000005    2    1    2  501    0 -0.33287722299E+01  0.94751243952E+01 -0.97127495149E+03  0.10238429305E+04  0.32369500501E+03 0.  0.
         13    1    3    3    0    0 -0.17813343334E+02  0.57597420281E+02 -0.98297447135E+01  0.61085202012E+02  0.00000000000E+00 0.  1.
          3    1    3    3  501    0  0.14484571104E+02 -0.48122295886E+02 -0.96144520678E+03  0.96275772850E+03  0.00000000000E+00 0.  1.
         21    1    1    2  502  501  0.33287722299E+01 -0.94751243952E+01  0.78883417885E+01  0.12770459782E+02  0.00000000000E+00 0. -1.
<mgrwt>
<rscale>  1 0.30000000E+03</rscale>
<asrwt>0</asrwt>
<pdfrwt beam="1">  1        1 0.13313988E+00 0.30000000E+03</pdfrwt>
<pdfrwt beam="2">0</pdfrwt>
<totfact> 0.22001789E+01</totfact>
</mgrwt>
</event>
<event>
 6    1  0.1929825E-004  0.3000000E+03  0.7818608E-02  0.1093470E+00
          1   -1    0    0  502    0  0.00000000000E+00  0.00000000000E+00  0.39409144571E+02  0.39409144571E+02  0.00000000000E+00 0.  1.
         13   -1    0    0    0    0 -0.00000000000E+00 -0.00000000000E+00 -0.10000000000E+04  0.10000000000E+04  0.00000000000E+00 0.  1.
    9000005    2    1    2  501    0 -0.30288885649E+02  0.15143338228E+02 -0.94145500821E+03  0.10005128988E+04  0.33695962798E+03 0.  0.
         13    1    3    3    0    0 -0.14192207931E+03 -0.44788217521E+02 -0.78599367642E+03  0.79995869918E+03  0.00000000000E+00 0.  1.
          3    1    3    3  501    0  0.11163319366E+03  0.59931555749E+02 -0.15546133179E+03  0.20055419962E+03  0.00000000000E+00 0.  1.
         21    1    1    2  502  501  0.30288885649E+02 -0.15143338228E+02 -0.19135847216E+02  0.38896245773E+02  0.00000000000E+00 0.  1.
<mgrwt>
<rscale>  1 0.30000000E+03</rscale>
<asrwt>0</asrwt>
<pdfrwt beam="1">  1        1 0.14330628E+00 0.30000000E+03</pdfrwt>
<pdfrwt beam="2">0</pdfrwt>
<totfact> 0.19444635E+01</totfact>
</mgrwt>
</event>
<event>
 6    1  0.1929825E-004  0.3000000E+03  0.7818608E-02  0.1093470E+00
          1   -1    0    0  502    0  0.00000000000E+00  0.00000000000E+00  0.32652976758E+02  0.32652976758E+02  0.00000000000E+00 0.  1.
         13   -1    0    0    0    0 -0.00000000000E+00 -0.00000000000E+00 -0.10000000000E+04  0.10000000000E+04  0.00000000000E+00 0.  1.
    9000005    2    1    2  501    0  0.16477426732E+02 -0.53095610830E+01 -0.94571920016E+03  0.10049499126E+04  0.33946991667E+03 0.  0.
         13    1    3    3    0    0 -0.73804612326E+02 -0.15023379911E+03 -0.41682285950E+03  0.44917547952E+03  0.00000000000E+00 0.  1.
          1    1    3    3  501    0  0.90282039058E+02  0.14492423803E+03 -0.52889634066E+03  0.55577443312E+03  0.00000000000E+00 0.  1.
         21    1    1    2  502  501 -0.16477426732E+02  0.53095610830E+01 -0.21627823085E+02  0.27703064126E+02  0.00000000000E+00 0.  1.
<mgrwt>
<rscale>  1 0.30000000E+03</rscale>
<asrwt>0</asrwt>
<pdfrwt beam="1">  1        1 0.11873835E+00 0.30000000E+03</pdfrwt>
<pdfrwt beam="2">0</pdfrwt>
<totfact> 0.26427787E+01</totfact>
</mgrwt>
</event>
<event>
 6    1  0.1929825E-004  0.3000000E+03  0.7818608E-02  0.1093470E+00
          1   -1    0    0  502    0  0.00000000000E+00  0.00000000000E+00  0.55131412465E+02  0.55131412465E+02  0.00000000000E+00 0.  1.
         13   -1    0    0    0    0 -0.00000000000E+00 -0.00000000000E+00 -0.10000000000E+04  0.10000000000E+04  0.00000000000E+00 0.  1.
    9000005    2    1    2  501    0 -0.33022997350E+02  0.87439426992E+02 -0.87886821609E+03  0.94071016978E+03  0.32216472576E+03 0.  0.
         13    1    3    3    0    0  0.58747853652E+02  0.24888491591E+02 -0.97718717141E+01  0.64546392611E+02  0.00000000000E+00 0.  1.
          3    1    3    3  501    0 -0.91770851001E+02  0.62550935401E+02 -0.86909634438E+03  0.87616377717E+03  0.00000000000E+00 0.  1.
         21    1    1    2  502  501  0.33022997350E+02 -0.87439426992E+02 -0.66000371444E+02  0.11442124268E+03  0.00000000000E+00 0.  1.
<mgrwt>
<rscale>  1 0.30000000E+03</rscale>
<asrwt>0</asrwt>
<pdfrwt beam="1">  1        1 0.20047829E+00 0.30000000E+03</pdfrwt>
<pdfrwt beam="2">0</pdfrwt>
<totfact> 0.10189937E+01</totfact>
</mgrwt>
</event>
<event>
 6    1  0.1929825E-004  0.3000000E+03  0.7818608E-02  0.1093470E+00
          3   -1    0    0  502    0  0.00000000000E+00  0.00000000000E+00  0.35617265805E+02  0.35617265805E+02  0.00000000000E+00 0.  1.
         13   -1    0    0    0    0 -0.00000000000E+00 -0.00000000000E+00 -0.10000000000E+04  0.10000000000E+04  0.00000000000E+00 0.  1.
    9000005    2    1    2  501    0 -0.30304021462E+01 -0.14140203921E+02 -0.96132150569E+03  0.10208355263E+04  0.34315740654E+03 0.  0.
         13    1    3    3    0    0 -0.22121390215E+02  0.99813207790E+02 -0.86325344523E+03  0.86928622620E+03  0.00000000000E+00 0.  1.
          3    1    3    3  501    0  0.19090988069E+02 -0.11395341171E+03 -0.98068060459E+02  0.15154930006E+03  0.00000000000E+00 0.  1.
         21    1    1    2  502  501  0.30304021462E+01  0.14140203921E+02 -0.30612285031E+01  0.14781739547E+02  0.00000000000E+00 0.  1.
<mgrwt>
<rscale>  1 0.30000000E+03</rscale>
<asrwt>0</asrwt>
<pdfrwt beam="1">  1        3 0.12951760E+00 0.30000000E+03</pdfrwt>
<pdfrwt beam="2">0</pdfrwt>
<totfact> 0.17925662E+00</totfact>
</mgrwt>
</event>
<event>
 6    1  0.1929825E-004  0.3000000E+03  0.7818608E-02  0.1093470E+00
          1   -1    0    0  502    0  0.00000000000E+00  0.00000000000E+00  0.10240112768E+03  0.10240112768E+03  0.00000000000E+00 0.  1.
         13   -1    0    0    0    0 -0.00000000000E+00 -0.00000000000E+00 -0.10000000000E+04  0.10000000000E+04  0.00000000000E+00 0.  1.
    9000005    2    1    2  501    0  0.39866942541E+02 -0.15883012336E+02 -0.96680120998E+03  0.10209725901E+04  0.32532876758E+03 0.  0.
         13    1    3    3    0    0  0.94666002695E+02  0.10697973868E+03 -0.76642932359E+03  0.77962826052E+03  0.00000000000E+00 0.  1.
          1    1    3    3  501    0 -0.54799060154E+02 -0.12286275102E+03 -0.20037188639E+03  0.24134432962E+03  0.00000000000E+00 0.  1.
         21    1    1    2  502  501 -0.39866942541E+02  0.15883012336E+02  0.69202337661E+02  0.81428537542E+02  0.00000000000E+00 0.  1.
<mgrwt>
<rscale>  1 0.30000000E+03</rscale>
<asrwt>0</asrwt>
<pdfrwt beam="1">  1        1 0.37236852E+00 0.30000000E+03</pdfrwt>
<pdfrwt beam="2">0</pdfrwt>
<totfact> 0.14989551E+00</totfact>
</mgrwt>
</event>
<event>
 6    1  0.1929825E-004  0.3000000E+03  0.7818608E-02  0.1093470E+00
          3   -1    0    0  502    0  0.00000000000E+00  0.00000000000E+00  0.26044669950E+02  0.26044669950E+02  0.00000000000E+00 0.  1.
         13   -1    0    0    0    0 -0.00000000000E+00 -0.00000000000E+00 -0.10000000000E+04  0.10000000000E+04  0.00000000000E+00 0.  1.
    9000005    2    1    2  501    0 -0.14810705694E+02  0.16616787887E+02 -0.95003475769E+03  0.99336947408E+03  0.28934649917E+03 0.  0.
         13    1    3    3    0    0  0.73192615981E+02  0.93089544984E+02 -0.76884464179E+03  0.77791060259E+03  0.00000000000E+00 0.  1.
          3    1    3    3  501    0 -0.88003321675E+02 -0.76472757096E+02 -0.18119011590E+03  0.21545887149E+03  0.00000000000E+00 0.  1.
         21    1    1    2  502  501  0.14810705694E+02 -0.16616787887E+02 -0.23920572365E+02  0.32675195870E+02  0.00000000000E+00 0. -1.
<mgrwt>
<rscale>  1 0.30000000E+03</rscale>
<asrwt>0</asrwt>
<pdfrwt beam="1">  1        3 0.94708090E-01 0.30000000E+03</pdfrwt>
<pdfrwt beam="2">0</pdfrwt>
<totfact> 0.45021032E+00</totfact>
</mgrwt>
</event>
<event>
 6    1  0.1929825E-004  0.3000000E+03  0.7818608E-02  0.1093470E+00
          1   -1    0    0  502    0  0.00000000000E+00  0.00000000000E+00  0.34691200705E+02  0.34691200705E+02  0.00000000000E+00 0.  1.
         13   -1    0    0    0    0 -0.00000000000E+00 -0.00000000000E+00 -0.10000000000E+04  0.10000000000E+04  0.00000000000E+00 0.  1.
    9000005    2    1    2  501    0  0.82479060374E+01  0.18038620667E+02 -0.93728285460E+03  0.10003564753E+04  0.34902794795E+03 0.  0.
         13    1    3    3    0    0 -0.66896292995E+02 -0.12370366294E+03 -0.19195904737E+03  0.23796215268E+03  0.00000000000E+00 0.  1.
          1    1    3    3  501    0  0.75144199032E+02  0.14174228360E+03 -0.74532380723E+03  0.76239432266E+03  0.00000000000E+00 0.  1.
         21    1    1    2  502  501 -0.82479060374E+01 -0.18038620667E+02 -0.28025944696E+02  0.34334725362E+02  0.00000000000E+00 0.  1.
<mgrwt>
<rscale>  1 0.30000000E+03</rscale>
<asrwt>0</asrwt>
<pdfrwt beam="1">  1        1 0.12615009E+00 0.30000000E+03</pdfrwt>
<pdfrwt beam="2">0</pdfrwt>
<totfact> 0.24019445E+01</totfact>
</mgrwt>
</event>
<event>
 6    1  0.1929825E-004  0.3000000E+03  0.7818608E-02  0.1093470E+00
          1   -1    0    0  502    0  0.00000000000E+00  0.00000000000E+00  0.42950105736E+02  0.42950105736E+02  0.00000000000E+00 0.  1.
         13   -1    0    0    0    0 -0.00000000000E+00 -0.00000000000E+00 -0.10000000000E+04  0.10000000000E+04  0.00000000000E+00 0.  1.
    9000005    2    1    2  501    0  0.34410351019E+02 -0.87352479478E+01 -0.95051636694E+03  0.10068521308E+04  0.33016582605E+03 0.  0.
         13    1    3    3    0    0  0.17197704031E+03 -0.64146773994E+02 -0.54350844401E+03  0.57366570380E+03  0.00000000000E+00 0.  1.
          3    1    3    3  501    0 -0.13756668929E+03  0.55411526046E+02 -0.40700792293E+03  0.43318642702E+03  0.00000000000E+00 0.  1.
         21    1    1    2  502  501 -0.34410351019E+02  0.87352479478E+01 -0.65335273224E+01  0.36097974919E+02  0.00000000000E+00 0. -1.
<mgrwt>
<rscale>  1 0.30000000E+03</rscale>
<asrwt>0</asrwt>
<pdfrwt beam="1">  1        1 0.15618253E+00 0.30000000E+03</pdfrwt>
<pdfrwt beam="2">0</pdfrwt>
<totfact> 0.16720125E+01</totfact>
</mgrwt>
</event>
<event>
 6    1  0.1929825E-004  0.3000000E+03  0.7818608E-02  0.1093470E+00
          1   -1    0    0  502    0  0.00000000000E+00  0.00000000000E+00  0.29108929124E+02  0.29108929124E+02  0.00000000000E+00 0.  1.
         13   -1    0    0    0    0 -0.00000000000E+00 -0.00000000000E+00 -0.10000000000E+04  0.10000000000E+04  0.00000000000E+00 0.  1.
    9000005    2    1    2  501    0 -0.18276663378E+01 -0.93667988337E+01 -0.96315927303E+03  0.10168265034E+04  0.32583627089E+03 0.  0.
         13    1    3    3    0    0  0.16671886890E+02  0.18298051441E+02 -0.97945708259E+03  0.97976984396E+03  0.00000000000E+00 0.  1.
          3    1    3    3  501    0 -0.18499553228E+02 -0.27664850275E+02  0.16297809552E+02  0.37056659409E+02  0.00000000000E+00 0.  1.
         21    1    1    2  502  501  0.18276663378E+01  0.93667988337E+01 -0.77317978421E+01  0.12282425758E+02  0.00000000000E+00 0.  1.
<mgrwt>
<rscale>  1 0.30000000E+03</rscale>
<asrwt>0</asrwt>
<pdfrwt beam="1">  1        1 0.10585087E+00 0.30000000E+03</pdfrwt>
<pdfrwt beam="2">0</pdfrwt>
<totfact> 0.31472671E+01</totfact>
</mgrwt>
</event>
<event>
 6    1  0.1929825E-004  0.3000000E+03  0.7818608E-02  0.1093470E+00
          1   -1    0    0  502    0  0.00000000000E+00  0.00000000000E+00  0.34755198152E+02  0.34755198152E+02  0.00000000000E+00 0.  1.
         13   -1    0    0    0    0 -0.00000000000E+00 -0.00000000000E+00 -0.10000000000E+04  0.10000000000E+04  0.00000000000E+00 0.  1.
    9000005    2    1    2  501    0 -0.15625175140E+01  0.14040759024E+02 -0.95804865243E+03  0.10189005792E+04  0.34655675660E+03 0.  0.
         13    1    3    3    0    0 -0.11699710223E+03  0.13244559844E+03 -0.57857287987E+03  0.60496011092E+03  0.00000000000E+00 0.  1.
          3    1    3    3  501    0  0.11543458471E+03 -0.11840483941E+03 -0.37947577255E+03  0.41394046831E+03  0.00000000000E+00 0.  1.
         21    1    1    2  502  501  0.15625175140E+01 -0.14040759024E+02 -0.71961494194E+01  0.15854618930E+02  0.00000000000E+00 0.  1.
<mgrwt>
<rscale>  1 0.30000000E+03</rscale>
<asrwt>0</asrwt>
<pdfrwt beam="1">  1        1 0.12638281E+00 0.30000000E+03</pdfrwt>
<pdfrwt beam="2">0</pdfrwt>
<totfact> 0.23948513E+01</totfact>
</mgrwt>
</event>
<event>
 6    1  0.1929825E-004  0.3000000E+03  0.7818608E-02  0.1093470E+00
          1   -1    0    0  502    0  0.00000000000E+00  0.00000000000E+00  0.40863013985E+02  0.40863013985E+02  0.00000000000E+00 0.  1.
         13   -1    0    0    0    0 -0.00000000000E+00 -0.00000000000E+00 -0.10000000000E+04  0.10000000000E+04  0.00000000000E+00 0.  1.
    9000005    2    1    2  501    0  0.21054908719E+01  0.23621648700E+02 -0.94177285793E+03  0.10114703563E+04  0.36820340906E+03 0.  0.
         13    1    3    3    0    0  0.18155531723E+03  0.19676152354E+02 -0.37777257787E+03  0.41959695516E+03  0.00000000000E+00 0.  1.
          3    1    3    3  501    0 -0.17944982636E+03  0.39454963461E+01 -0.56400028006E+03  0.59187340118E+03  0.00000000000E+00 0.  1.
         21    1    1    2  502  501 -0.21054908719E+01 -0.23621648700E+02 -0.17364128083E+02  0.29392657641E+02  0.00000000000E+00 0.  1.
<mgrwt>
<rscale>  1 0.30000000E+03</rscale>
<asrwt>0</asrwt>
<pdfrwt beam="1">  1        1 0.14859309E+00 0.30000000E+03</pdfrwt>
<pdfrwt beam="2">0</pdfrwt>
<totfact> 0.18263930E+01</totfact>
</mgrwt>
</event>
<event>
 6    1  0.1929825E-004  0.3000000E+03  0.7818608E-02  0.1093470E+00
          1   -1    0    0  502    0  0.00000000000E+00  0.00000000000E+00  0.60083767207E+02  0.60083767207E+02  0.00000000000E+00 0.  1.
         13   -1    0    0    0    0 -0.00000000000E+00 -0.00000000000E+00 -0.10000000000E+04  0.10000000000E+04  0.00000000000E+00 0.  1.
    9000005    2    1    2  501    0  0.44932488049E+02  0.20496068854E+02 -0.95266035144E+03  0.10090795529E+04  0.32899966792E+03 0.  0.
         13    1    3    3    0    0 -0.36521746676E+02  0.14702562009E+03 -0.26591920867E+03  0.30604476222E+03  0.00000000000E+00 0.  1.
          1    1    3    3  501    0  0.81454234726E+02 -0.12652955123E+03 -0.68674114277E+03  0.70303479065E+03  0.00000000000E+00 0.  1.
         21    1    1    2  502  501 -0.44932488049E+02 -0.20496068854E+02  0.12744118643E+02  0.51004214343E+02  0.00000000000E+00 0.  1.
<mgrwt>
<rscale>  1 0.30000000E+03</rscale>
<asrwt>0</asrwt>
<pdfrwt beam="1">  1        1 0.21848689E+00 0.30000000E+03</pdfrwt>
<pdfrwt beam="2">0</pdfrwt>
<totfact> 0.83790658E+00</totfact>
</mgrwt>
</event>
<event>
 6    1  0.1929825E-004  0.3000000E+03  0.7818608E-02  0.1093470E+00
          1   -1    0    0  502    0  0.00000000000E+00  0.00000000000E+00  0.28742105261E+02  0.28742105261E+02  0.00000000000E+00 0.  1.
         13   -1    0    0    0    0 -0.00000000000E+00 -0.00000000000E+00 -0.10000000000E+04  0.10000000000E+04  0.00000000000E+00 0.  1.
    9000005    2    1    2  501    0 -0.10965628959E+02  0.63946650528E+01 -0.97176992164E+03  0.10160378174E+04  0.29636958165E+03 0.  0.
         13    1    3    3    0    0 -0.25032040387E+02 -0.66671090578E+02 -0.40751380826E+02  0.82050669735E+02  0.00000000000E+00 0.  1.
          1    1    3    3  501    0  0.14066411428E+02  0.73065755631E+02 -0.93101854082E+03  0.93398714762E+03  0.00000000000E+00 0.  1.
         21    1    1    2  502  501  0.10965628959E+02 -0.63946650528E+01  0.51202690359E+00  0.12704287904E+02  0.00000000000E+00 0. -1.
<mgrwt>
<rscale>  1 0.30000000E+03</rscale>
<asrwt>0</asrwt>
<pdfrwt beam="1">  1        1 0.10451697E+00 0.30000000E+03</pdfrwt>
<pdfrwt beam="2">0</pdfrwt>
<totfact> 0.32071440E+01</totfact>
</mgrwt>
</event>
<event>
 6    1  0.1929825E-004  0.3000000E+03  0.7818608E-02  0.1093470E+00
          1   -1    0    0  502    0  0.00000000000E+00  0.00000000000E+00  0.34643651564E+02  0.34643651564E+02  0.00000000000E+00 0.  1.
         13   -1    0    0    0    0 -0.00000000000E+00 -0.00000000000E+00 -0.10000000000E+04  0.10000000000E+04  0.00000000000E+00 0.  1.
    9000005    2    1    2  501    0  0.42697250850E+02 -0.14233986145E+02 -0.91090376288E+03  0.96399844178E+03  0.31228459606E+03 0.  0.
         13    1    3    3    0    0  0.19677908088E+02  0.11429789622E+03 -0.13855541500E+03  0.18068987844E+03  0.00000000000E+00 0.  1.
          3    1    3    3  501    0  0.23019342762E+02 -0.12853188236E+03 -0.77234834788E+03  0.78330856333E+03  0.00000000000E+00 0.  1.
         21    1    1    2  502  501 -0.42697250850E+02  0.14233986145E+02 -0.54452585557E+02  0.70645209785E+02  0.00000000000E+00 0. -1.
<mgrwt>
<rscale>  1 0.30000000E+03</rscale>
<asrwt>0</asrwt>
<pdfrwt beam="1">  1        1 0.12597718E+00 0.30000000E+03</pdfrwt>
<pdfrwt beam="2">0</pdfrwt>
<totfact> 0.24072321E+01</totfact>
</mgrwt>
</event>
<event>
 6    1  0.1929825E-004  0.3000000E+03  0.7818608E-02  0.1093470E+00
          1   -1    0    0  502    0  0.00000000000E+00  0.00000000000E+00  0.31423452584E+02  0.31423452584E+02  0.00000000000E+00 0.  1.
         13   -1    0    0    0    0 -0.00000000000E+00 -0.00000000000E+00 -0.10000000000E+04  0.10000000000E+04  0.00000000000E+00 0.  1.
    9000005    2    1    2  501    0  0.17381594150E+02  0.32196939642E+01 -0.92068851157E+03  0.98037690302E+03  0.33639121631E+03 0.  0.
         13    1    3    3    0    0 -0.12474177310E+03 -0.53362584640E+02 -0.69244621447E+03  0.70561309181E+03  0.00000000000E+00 0.  1.
          1    1    3    3  501    0  0.14212336725E+03  0.56582278604E+02 -0.22824229710E+03  0.27476381122E+03  0.00000000000E+00 0.  1.
         21    1    1    2  502  501 -0.17381594150E+02 -0.32196939642E+01 -0.47888035850E+02  0.51046549560E+02  0.00000000000E+00 0. -1.
<mgrwt>
<rscale>  1 0.30000000E+03</rscale>
<asrwt>0</asrwt>
<pdfrwt beam="1">  1        1 0.11426734E+00 0.30000000E+03</pdfrwt>
<pdfrwt beam="2">0</pdfrwt>
<totfact> 0.28039419E+01</totfact>
</mgrwt>
</event>
<event>
 6    1  0.1929825E-004  0.3000000E+03  0.7818608E-02  0.1093470E+00
          1   -1    0    0  502    0  0.00000000000E+00  0.00000000000E+00  0.30450017470E+02  0.30450017470E+02  0.00000000000E+00 0.  1.
         13   -1    0    0    0    0 -0.00000000000E+00 -0.00000000000E+00 -0.10000000000E+04  0.10000000000E+04  0.00000000000E+00 0.  1.
    9000005    2    1    2  501    0  0.21455867245E+02  0.87455242041E+01 -0.90157653619E+03  0.95863617590E+03  0.32497111982E+03 0.  0.
         13    1    3    3    0    0  0.13195314777E+03 -0.46951137107E+02 -0.74999852760E+03  0.76296384835E+03  0.00000000000E+00 0.  1.
          3    1    3    3  501    0 -0.11049728052E+03  0.55696661311E+02 -0.15157800858E+03  0.19567232755E+03  0.00000000000E+00 0.  1.
         21    1    1    2  502  501 -0.21455867245E+02 -0.87455242041E+01 -0.67973446342E+02  0.71813841566E+02  0.00000000000E+00 0.  1.
<mgrwt>
<rscale>  1 0.30000000E+03</rscale>
<asrwt>0</asrwt>
<pdfrwt beam="1">  1        1 0.11072757E+00 0.30000000E+03</pdfrwt>
<pdfrwt beam="2">0</pdfrwt>
<totfact> 0.29415068E+01</totfact>
</mgrwt>
</event>
<event>
 6    1  0.1929825E-004  0.3000000E+03  0.7818608E-02  0.1093470E+00
          1   -1    0    0  502    0  0.00000000000E+00  0.00000000000E+00  0.26903928428E+02  0.26903928428E+02  0.00000000000E+00 0.  1.
         13   -1    0    0    0    0 -0.00000000000E+00 -0.00000000000E+00 -0.10000000000E+04  0.10000000000E+04  0.00000000000E+00 0.  1.
    9000005    2    1    2  501    0  0.11540090235E+02  0.13461850136E+02 -0.95629684685E+03  0.10024783467E+04  0.30024120505E+03 0.  0.
         13    1    3    3    0    0  0.15270850760E+03 -0.84164746817E+01 -0.40322161462E+03  0.43125212560E+03  0.00000000000E+00 0.  1.
          1    1    3    3  501    0 -0.14116841737E+03  0.21878324818E+02 -0.55307523222E+03  0.57122622109E+03  0.00000000000E+00 0.  1.
         21    1    1    2  502  501 -0.11540090235E+02 -0.13461850136E+02 -0.16799224726E+02  0.24425581735E+02  0.00000000000E+00 0. -1.
<mgrwt>
<rscale>  1 0.30000000E+03</rscale>
<asrwt>0</asrwt>
<pdfrwt beam="1">  1        1 0.97832673E-01 0.30000000E+03</pdfrwt>
<pdfrwt beam="2">0</pdfrwt>
<totfact> 0.35337435E+01</totfact>
</mgrwt>
</event>
<event>
 6    1  0.1929825E-004  0.3000000E+03  0.7818608E-02  0.1093470E+00
          1   -1    0    0  502    0  0.00000000000E+00  0.00000000000E+00  0.30332463742E+02  0.30332463742E+02  0.00000000000E+00 0.  1.
         13   -1    0    0    0    0 -0.00000000000E+00 -0.00000000000E+00 -0.10000000000E+04  0.10000000000E+04  0.00000000000E+00 0.  1.
    9000005    2    1    2  501    0 -0.83440069346E+01 -0.14219574469E+02 -0.94986480010E+03  0.10045649045E+04  0.32655120600E+03 0.  0.
         13    1    3    3    0    0 -0.13869217303E+03 -0.95924286145E+02 -0.57904893673E+03  0.60310418558E+03  0.00000000000E+00 0.  1.
          1    1    3    3  501    0  0.13034816609E+03  0.81704711676E+02 -0.37081586337E+03  0.40146071892E+03  0.00000000000E+00 0.  1.
         21    1    1    2  502  501  0.83440069346E+01  0.14219574469E+02 -0.19802736160E+02  0.25767559241E+02  0.00000000000E+00 0. -1.
<mgrwt>
<rscale>  1 0.30000000E+03</rscale>
<asrwt>0</asrwt>
<pdfrwt beam="1">  1        1 0.11030010E+00 0.30000000E+03</pdfrwt>
<pdfrwt beam="2">0</pdfrwt>
<totfact> 0.29587634E+01</totfact>
</mgrwt>
</event>
<event>
 6    1  0.1929825E-004  0.3000000E+03  0.7818608E-02  0.1093470E+00
          1   -1    0    0  502    0  0.00000000000E+00  0.00000000000E+00  0.28048118167E+02  0.28048118167E+02  0.00000000000E+00 0.  1.
         13   -1    0    0    0    0 -0.00000000000E+00 -0.00000000000E+00 -0.10000000000E+04  0.10000000000E+04  0.00000000000E+00 0.  1.
    9000005    2    1    2  501    0 -0.69279689237E+01 -0.80255548000E+01 -0.95420361491E+03  0.10073742878E+04  0.32277857849E+03 0.  0.
         13    1    3    3    0    0 -0.11007834685E+03  0.11344315145E+03 -0.38247268379E+03  0.41385014788E+03  0.00000000000E+00 0.  1.
          1    1    3    3  501    0  0.10315037793E+03 -0.12146870625E+03 -0.57173093112E+03  0.59352413992E+03  0.00000000000E+00 0.  1.
         21    1    1    2  502  501  0.69279689237E+01  0.80255548000E+01 -0.17748266920E+02  0.20673830364E+02  0.00000000000E+00 0.  1.
<mgrwt>
<rscale>  1 0.30000000E+03</rscale>
<asrwt>0</asrwt>
<pdfrwt beam="1">  1        1 0.10199337E+00 0.30000000E+03</pdfrwt>
<pdfrwt beam="2">0</pdfrwt>
<totfact> 0.33250372E+01</totfact>
</mgrwt>
</event>
<event>
 6    1  0.1929825E-004  0.3000000E+03  0.7818608E-02  0.1093470E+00
          1   -1    0    0  502    0  0.00000000000E+00  0.00000000000E+00  0.38564683436E+02  0.38564683436E+02  0.00000000000E+00 0.  1.
         13   -1    0    0    0    0 -0.00000000000E+00 -0.00000000000E+00 -0.10000000000E+04  0.10000000000E+04  0.00000000000E+00 0.  1.
    9000005    2    1    2  501    0  0.28008575423E+02 -0.64011372459E+01 -0.95786696001E+03  0.10096132064E+04  0.31778020480E+03 0.  0.
         13    1    3    3    0    0  0.73380116109E+02  0.13445986011E+03 -0.65300828493E+03  0.67073386347E+03  0.00000000000E+00 0.  1.
          3    1    3    3  501    0 -0.45371540687E+02 -0.14086099735E+03 -0.30485867508E+03  0.33887934291E+03  0.00000000000E+00 0.  1.
         21    1    1    2  502  501 -0.28008575423E+02  0.64011372459E+01 -0.35683565555E+01  0.28951477057E+02  0.00000000000E+00 0. -1.
<mgrwt>
<rscale>  1 0.30000000E+03</rscale>
<asrwt>0</asrwt>
<pdfrwt beam="1">  1        1 0.14023551E+00 0.30000000E+03</pdfrwt>
<pdfrwt beam="2">0</pdfrwt>
<totfact> 0.20174805E+01</totfact>
</mgrwt>
</event>
<event>
 6    1  0.1929825E-004  0.3000000E+03  0.7818608E-02  0.1093470E+00
          1   -1    0    0  502    0  0.00000000000E+00  0.00000000000E+00  0.41137661086E+02  0.41137661086E+02  0.00000000000E+00 0.  1.
         13   -1    0    0    0    0 -0.00000000000E+00 -0.00000000000E+00 -0.10000000000E+04  0.10000000000E+04  0.00000000000E+00 0.  1.
    9000005    2    1    2  501    0 -0.14368860550E+02  0.54378526252E+02 -0.89099849027E+03  0.95299578555E+03  0.33340541288E+03 0.  0.
         13    1    3    3    0    0 -0.16241679059E+03 -0.24190956407E+02 -0.53268035215E+03  0.55741615854E+03  0.00000000000E+00 0.  1.
          1    1    3    3  501    0  0.14804793004E+03  0.78569482659E+02 -0.35831813812E+03  0.39557962701E+03  0.00000000000E+00 0.  1.
         21    1    1    2  502  501  0.14368860550E+02 -0.54378526252E+02 -0.67863848640E+02  0.88141875536E+02  0.00000000000E+00 0.  1.
<mgrwt>
<rscale>  1 0.30000000E+03</rscale>
<asrwt>0</asrwt>
<pdfrwt beam="1">  1        1 0.14959181E+00 0.30000000E+03</pdfrwt>
<pdfrwt beam="2">0</pdfrwt>
<totfact> 0.18051067E+01</totfact>
</mgrwt>
</event>
<event>
 6    1  0.1929825E-004  0.3000000E+03  0.7818608E-02  0.1093470E+00
          1   -1    0    0  502    0  0.00000000000E+00  0.00000000000E+00  0.32173155781E+02  0.32173155781E+02  0.00000000000E+00 0.  1.
         13   -1    0    0    0    0 -0.00000000000E+00 -0.00000000000E+00 -0.10000000000E+04  0.10000000000E+04  0.00000000000E+00 0.  1.
    9000005    2    1    2  501    0  0.46959353583E+01 -0.13383877225E+02 -0.96596869482E+03  0.10178681672E+04  0.32056030088E+03 0.  0.
         13    1    3    3    0    0  0.28196690763E+02  0.15119921977E+03 -0.42806149073E+03  0.45485480901E+03  0.00000000000E+00 0.  1.
          3    1    3    3  501    0 -0.23500755405E+02 -0.16458309700E+03 -0.53790720408E+03  0.56301335821E+03  0.00000000000E+00 0.  1.
         21    1    1    2  502  501 -0.46959353583E+01  0.13383877225E+02 -0.18581494026E+01  0.14304988559E+02  0.00000000000E+00 0. -1.
<mgrwt>
<rscale>  1 0.30000000E+03</rscale>
<asrwt>0</asrwt>
<pdfrwt beam="1">  1        1 0.11699354E+00 0.30000000E+03</pdfrwt>
<pdfrwt beam="2">0</pdfrwt>
<totfact> 0.27041102E+01</totfact>
</mgrwt>
</event>
<event>
 6    1  0.1929825E-004  0.3000000E+03  0.7818608E-02  0.1093470E+00
          1   -1    0    0  502    0  0.00000000000E+00  0.00000000000E+00  0.29689676545E+02  0.29689676545E+02  0.00000000000E+00 0.  1.
         13   -1    0    0    0    0 -0.00000000000E+00 -0.00000000000E+00 -0.10000000000E+04  0.10000000000E+04  0.00000000000E+00 0.  1.
    9000005    2    1    2  501    0  0.56494598961E+01 -0.10328043948E+02 -0.94913806615E+03  0.10054647025E+04  0.33159857423E+03 0.  0.
         13    1    3    3    0    0 -0.74842037777E+02 -0.15063678727E+03 -0.53668002587E+03  0.56242174786E+03  0.00000000000E+00 0.  1.
          3    1    3    3  501    0  0.80491497673E+02  0.14030874332E+03 -0.41245804028E+03  0.44304295462E+03  0.00000000000E+00 0.  1.
         21    1    1    2  502  501 -0.56494598961E+01  0.10328043948E+02 -0.21172257303E+02  0.24224974060E+02  0.00000000000E+00 0.  1.
<mgrwt>
<rscale>  1 0.30000000E+03</rscale>
<asrwt>0</asrwt>
<pdfrwt beam="1">  1        1 0.10796269E+00 0.30000000E+03</pdfrwt>
<pdfrwt beam="2">0</pdfrwt>
<totfact> 0.30557162E+01</totfact>
</mgrwt>
</event>
<event>
 6    1  0.1929825E-004  0.3000000E+03  0.7818608E-02  0.1093470E+00
          1   -1    0    0  502    0  0.00000000000E+00  0.00000000000E+00  0.30532576339E+02  0.30532576339E+02  0.00000000000E+00 0.  1.
         13   -1    0    0    0    0 -0.00000000000E+00 -0.00000000000E+00 -0.10000000000E+04  0.10000000000E+04  0.00000000000E+00 0.  1.
    9000005    2    1    2  501    0  0.10192895348E+02 -0.13668615703E+01 -0.94915701096E+03  0.10077668940E+04  0.33851043981E+03 0.  0.
         13    1    3    3    0    0  0.85822360260E+02 -0.14112852963E+03 -0.33674893860E+03  0.37507677486E+03  0.00000000000E+00 0.  1.
          1    1    3    3  501    0 -0.75629464912E+02  0.13976166805E+03 -0.61240807236E+03  0.63269011918E+03  0.00000000000E+00 0.  1.
         21    1    1    2  502  501 -0.10192895348E+02  0.13668615703E+01 -0.20310412703E+02  0.22765682293E+02  0.00000000000E+00 0. -1.
<mgrwt>
<rscale>  1 0.30000000E+03</rscale>
<asrwt>0</asrwt>
<pdfrwt beam="1">  1        1 0.11102778E+00 0.30000000E+03</pdfrwt>
<pdfrwt beam="2">0</pdfrwt>
<totfact> 0.29294725E+01</totfact>
</mgrwt>
</event>
<event>
 6    1  0.1929825E-004  0.3000000E+03  0.7818608E-02  0.1093470E+00
          1   -1    0    0  502    0  0.00000000000E+00  0.00000000000E+00  0.40958303670E+02  0.40958303670E+02  0.00000000000E+00 0.  1.
         13   -1    0    0    0    0 -0.00000000000E+00 -0.00000000000E+00 -0.10000000000E+04  0.10000000000E+04  0.00000000000E+00 0.  1.
    9000005    2    1    2  501    0  0.86858451102E+01 -0.35148697070E+02 -0.91830788554E+03  0.98645951329E+03  0.35847192904E+03 0.  0.
         13    1    3    3    0    0 -0.54936632873E+02  0.31756469287E+02 -0.88655901867E+03  0.88882698010E+03  0.00000000000E+00 0.  1.
          3    1    3    3  501    0  0.63622477983E+02 -0.66905166357E+02 -0.31748866873E+02  0.97632533193E+02  0.00000000000E+00 0.  1.
         21    1    1    2  502  501 -0.86858451102E+01  0.35148697070E+02 -0.40733810788E+02  0.54498790375E+02  0.00000000000E+00 0. -1.
<mgrwt>
<rscale>  1 0.30000000E+03</rscale>
<asrwt>0</asrwt>
<pdfrwt beam="1">  1        1 0.14893960E+00 0.30000000E+03</pdfrwt>
<pdfrwt beam="2">0</pdfrwt>
<totfact> 0.18189724E+01</totfact>
</mgrwt>
</event>
<event>
 6    1  0.1929825E-004  0.3000000E+03  0.7818608E-02  0.1093470E+00
          1   -1    0    0  502    0  0.00000000000E+00  0.00000000000E+00  0.48948318674E+02  0.48948318674E+02  0.00000000000E+00 0.  1.
         13   -1    0    0    0    0 -0.00000000000E+00 -0.00000000000E+00 -0.10000000000E+04  0.10000000000E+04  0.00000000000E+00 0.  1.
    9000005    2    1    2  501    0  0.10946701863E+02 -0.37506490038E+02 -0.81757013554E+03  0.90986600441E+03  0.39737721672E+03 0.  0.
         13    1    3    3    0    0  0.12501725600E+03  0.12744228356E+02 -0.76387781935E+03  0.77414536914E+03  0.00000000000E+00 0.  1.
          1    1    3    3  501    0 -0.11407055414E+03 -0.50250718394E+02 -0.53692316188E+02  0.13572063527E+03  0.00000000000E+00 0.  1.
         21    1    1    2  502  501 -0.10946701863E+02  0.37506490038E+02 -0.13348154578E+03  0.13908231427E+03  0.00000000000E+00 0.  1.
<mgrwt>
<rscale>  1 0.30000000E+03</rscale>
<asrwt>0</asrwt>
<pdfrwt beam="1">  1        1 0.17799426E+00 0.30000000E+03</pdfrwt>
<pdfrwt beam="2">0</pdfrwt>
<totfact> 0.13063322E+01</totfact>
</mgrwt>
</event>
<event>
 6    1  0.1929825E-004  0.3000000E+03  0.7818608E-02  0.1093470E+00
          1   -1    0    0  502    0  0.00000000000E+00  0.00000000000E+00  0.36731875084E+02  0.36731875084E+02  0.00000000000E+00 0.  1.
         13   -1    0    0    0    0 -0.00000000000E+00 -0.00000000000E+00 -0.10000000000E+04  0.10000000000E+04  0.00000000000E+00 0.  1.
    9000005    2    1    2  501    0  0.62889985813E+01 -0.86020304332E+01 -0.96953766639E+03  0.10243684783E+04  0.33047533385E+03 0.  0.
         13    1    3    3    0    0 -0.96929687135E+02 -0.13578767935E+03 -0.49381629116E+03  0.52123717013E+03  0.00000000000E+00 0.  1.
          1    1    3    3  501    0  0.10321868572E+03  0.12718564892E+03 -0.47572137523E+03  0.50313130813E+03  0.00000000000E+00 0.  1.
         21    1    1    2  502  501 -0.62889985813E+01  0.86020304332E+01  0.62695414712E+01  0.12363396822E+02  0.00000000000E+00 0.  1.
<mgrwt>
<rscale>  1 0.30000000E+03</rscale>
<asrwt>0</asrwt>
<pdfrwt beam="1">  1        1 0.13357074E+00 0.30000000E+03</pdfrwt>
<pdfrwt beam="2">0</pdfrwt>
<totfact> 0.21884786E+01</totfact>
</mgrwt>
</event>
<event>
 6    1  0.1929825E-004  0.3000000E+03  0.7818608E-02  0.1093470E+00
          1   -1    0    0  502    0  0.00000000000E+00  0.00000000000E+00  0.43707793588E+02  0.43707793588E+02  0.00000000000E+00 0.  1.
         13   -1    0    0    0    0 -0.00000000000E+00 -0.00000000000E+00 -0.10000000000E+04  0.10000000000E+04  0.00000000000E+00 0.  1.
    9000005    2    1    2  501    0  0.18723610226E+02  0.26276066936E+02 -0.95737523975E+03  0.10114250082E+04  0.32461083188E+03 0.  0.
         13    1    3    3    0    0 -0.73711585700E+02  0.34855201598E+02 -0.89697379705E+03  0.90067212433E+03  0.00000000000E+00 0.  1.
          3    1    3    3  501    0  0.92435195926E+02 -0.85791346616E+01 -0.60401442701E+02  0.11075288383E+03  0.00000000000E+00 0.  1.
         21    1    1    2  502  501 -0.18723610226E+02 -0.26276066936E+02  0.10830333411E+01  0.32282785424E+02  0.00000000000E+00 0.  1.
<mgrwt>
<rscale>  1 0.30000000E+03</rscale>
<asrwt>0</asrwt>
<pdfrwt beam="1">  1        1 0.15893777E+00 0.30000000E+03</pdfrwt>
<pdfrwt beam="2">0</pdfrwt>
<totfact> 0.16198879E+01</totfact>
</mgrwt>
</event>
<event>
 6    1  0.1929825E-004  0.3000000E+03  0.7818608E-02  0.1093470E+00
          1   -1    0    0  502    0  0.00000000000E+00  0.00000000000E+00  0.37973351061E+02  0.37973351061E+02  0.00000000000E+00 0.  1.
         13   -1    0    0    0    0 -0.00000000000E+00 -0.00000000000E+00 -0.10000000000E+04  0.10000000000E+04  0.00000000000E+00 0.  1.
    9000005    2    1    2  501    0  0.12437262707E+02 -0.17293377133E+02 -0.96257413539E+03  0.10166649927E+04  0.32650420332E+03 0.  0.
         13    1    3    3    0    0  0.30975772620E+02  0.60016889563E+02 -0.19572378339E+02  0.70317874797E+02  0.00000000000E+00 0.  1.
          3    1    3    3  501    0 -0.18538509913E+02 -0.77310266696E+02 -0.94300175705E+03  0.94634711786E+03  0.00000000000E+00 0.  1.
         21    1    1    2  502  501 -0.12437262707E+02  0.17293377133E+02  0.54748645200E+00  0.21308358400E+02  0.00000000000E+00 0.  1.
<mgrwt>
<rscale>  1 0.30000000E+03</rscale>
<asrwt>0</asrwt>
<pdfrwt beam="1">  1        1 0.13808520E+00 0.30000000E+03</pdfrwt>
<pdfrwt beam="2">0</pdfrwt>
<totfact> 0.20706968E+01</totfact>
</mgrwt>
</event>
<event>
 6    1  0.1929825E-004  0.3000000E+03  0.7818608E-02  0.1093470E+00
          1   -1    0    0  502    0  0.00000000000E+00  0.00000000000E+00  0.32733628658E+02  0.32733628658E+02  0.00000000000E+00 0.  1.
         13   -1    0    0    0    0 -0.00000000000E+00 -0.00000000000E+00 -0.10000000000E+04  0.10000000000E+04  0.00000000000E+00 0.  1.
    9000005    2    1    2  501    0 -0.13054778835E+02 -0.24806902972E+02 -0.93592160192E+03  0.99068241874E+03  0.32359944402E+03 0.  0.
         13    1    3    3    0    0 -0.10264672578E+03 -0.10574415068E+03 -0.77831544018E+03  0.79214462072E+03  0.00000000000E+00 0.  1.
          1    1    3    3  501    0  0.89591946941E+02  0.80937247707E+02 -0.15760616174E+03  0.19853779802E+03  0.00000000000E+00 0.  1.
         21    1    1    2  502  501  0.13054778835E+02  0.24806902972E+02 -0.31344769419E+02  0.42051209917E+02  0.00000000000E+00 0. -1.
<mgrwt>
<rscale>  1 0.30000000E+03</rscale>
<asrwt>0</asrwt>
<pdfrwt beam="1">  1        1 0.11903163E+00 0.30000000E+03</pdfrwt>
<pdfrwt beam="2">0</pdfrwt>
<totfact> 0.26326562E+01</totfact>
</mgrwt>
</event>
<event>
 6    1  0.1929825E-004  0.3000000E+03  0.7818608E-02  0.1093470E+00
          1   -1    0    0  502    0  0.00000000000E+00  0.00000000000E+00  0.48914539104E+02  0.48914539104E+02  0.00000000000E+00 0.  1.
         13   -1    0    0    0    0 -0.00000000000E+00 -0.00000000000E+00 -0.10000000000E+04  0.10000000000E+04  0.00000000000E+00 0.  1.
    9000005    2    1    2  501    0 -0.49120051406E+02 -0.49918636268E+01 -0.94522846781E+03  0.99919530218E+03  0.32015105402E+03 0.  0.
         13    1    3    3    0    0  0.11216709786E+03  0.66275789828E+02 -0.56856588045E+03  0.58330189316E+03  0.00000000000E+00 0.  1.
          3    1    3    3  501    0 -0.16128714926E+03 -0.71267653455E+02 -0.37666258736E+03  0.41589340901E+03  0.00000000000E+00 0.  1.
         21    1    1    2  502  501  0.49120051406E+02  0.49918636268E+01 -0.58569930905E+01  0.49719236928E+02  0.00000000000E+00 0.  1.
<mgrwt>
<rscale>  1 0.30000000E+03</rscale>
<asrwt>0</asrwt>
<pdfrwt beam="1">  1        1 0.17787143E+00 0.30000000E+03</pdfrwt>
<pdfrwt beam="2">0</pdfrwt>
<totfact> 0.13081243E+01</totfact>
</mgrwt>
</event>
<event>
 6    1  0.1929825E-004  0.3000000E+03  0.7818608E-02  0.1093470E+00
          1   -1    0    0  502    0  0.00000000000E+00  0.00000000000E+00  0.28046847072E+02  0.28046847072E+02  0.00000000000E+00 0.  1.
         13   -1    0    0    0    0 -0.00000000000E+00 -0.00000000000E+00 -0.10000000000E+04  0.10000000000E+04  0.00000000000E+00 0.  1.
    9000005    2    1    2  501    0  0.10285678556E+02 -0.55788069524E+01 -0.96336471339E+03  0.10135320421E+04  0.31470416432E+03 0.  0.
         13    1    3    3    0    0 -0.67790892233E+02  0.13245289346E+03 -0.35685467007E+03  0.38663242182E+03  0.00000000000E+00 0.  1.
          1    1    3    3  501    0  0.78076570789E+02 -0.13803170041E+03 -0.60651004332E+03  0.62689962026E+03  0.00000000000E+00 0.  1.
         21    1    1    2  502  501 -0.10285678556E+02  0.55788069524E+01 -0.85884395342E+01  0.14514804993E+02  0.00000000000E+00 0. -1.
<mgrwt>
<rscale>  1 0.30000000E+03</rscale>
<asrwt>0</asrwt>
<pdfrwt beam="1">  1        1 0.10198875E+00 0.30000000E+03</pdfrwt>
<pdfrwt beam="2">0</pdfrwt>
<totfact> 0.33252589E+01</totfact>
</mgrwt>
</event>
<event>
 6    1  0.1929825E-004  0.3000000E+03  0.7818608E-02  0.1093470E+00
          1   -1    0    0  502    0  0.00000000000E+00  0.00000000000E+00  0.64153826752E+02  0.64153826752E+02  0.00000000000E+00 0.  1.
         13   -1    0    0    0    0 -0.00000000000E+00 -0.00000000000E+00 -0.10000000000E+04  0.10000000000E+04  0.00000000000E+00 0.  1.
    9000005    2    1    2  501    0 -0.64794760301E+01  0.28562861183E+02 -0.96038452178E+03  0.10259445190E+04  0.35967472218E+03 0.  0.
         13    1    3    3    0    0  0.16709171469E+03 -0.18371777274E+02 -0.60135113207E+03  0.62440399371E+03  0.00000000000E+00 0.  1.
          3    1    3    3  501    0 -0.17357119072E+03  0.46934638457E+02 -0.35903338971E+03  0.40154052531E+03  0.00000000000E+00 0.  1.
         21    1    1    2  502  501  0.64794760301E+01 -0.28562861183E+02  0.24538348536E+02  0.38209307733E+02  0.00000000000E+00 0.  1.
<mgrwt>
<rscale>  1 0.30000000E+03</rscale>
<asrwt>0</asrwt>
<pdfrwt beam="1">  1        1 0.23328713E+00 0.30000000E+03</pdfrwt>
<pdfrwt beam="2">0</pdfrwt>
<totfact> 0.71428560E+00</totfact>
</mgrwt>
</event>
<event>
 6    1  0.1929825E-004  0.3000000E+03  0.7818608E-02  0.1093470E+00
          1   -1    0    0  502    0  0.00000000000E+00  0.00000000000E+00  0.57522925263E+02  0.57522925263E+02  0.00000000000E+00 0.  1.
         13   -1    0    0    0    0 -0.00000000000E+00 -0.00000000000E+00 -0.10000000000E+04  0.10000000000E+04  0.00000000000E+00 0.  1.
    9000005    2    1    2  501    0 -0.14742049095E+02  0.14611808886E+02 -0.97045905266E+03  0.10226829474E+04  0.32196087496E+03 0.  0.
         13    1    3    3    0    0 -0.14399468318E+03  0.58183933718E+02 -0.72901723636E+03  0.74537639474E+03  0.00000000000E+00 0.  1.
          3    1    3    3  501    0  0.12925263408E+03 -0.43572124832E+02 -0.24144181629E+03  0.27730655264E+03  0.00000000000E+00 0.  1.
         21    1    1    2  502  501  0.14742049095E+02 -0.14611808886E+02  0.27981977921E+02  0.34839977882E+02  0.00000000000E+00 0. -1.
<mgrwt>
<rscale>  1 0.30000000E+03</rscale>
<asrwt>0</asrwt>
<pdfrwt beam="1">  1        1 0.20917471E+00 0.30000000E+03</pdfrwt>
<pdfrwt beam="2">0</pdfrwt>
<totfact> 0.92679686E+00</totfact>
</mgrwt>
</event>
<event>
 6    1  0.1929825E-004  0.3000000E+03  0.7818608E-02  0.1093470E+00
          1   -1    0    0  502    0  0.00000000000E+00  0.00000000000E+00  0.53992937318E+02  0.53992937318E+02  0.00000000000E+00 0.  1.
         13   -1    0    0    0    0 -0.00000000000E+00 -0.00000000000E+00 -0.10000000000E+04  0.10000000000E+04  0.00000000000E+00 0.  1.
    9000005    2    1    2  501    0  0.30638284083E+02 -0.24946044718E+02 -0.95624348809E+03  0.10131787976E+04  0.33251865769E+03 0.  0.
         13    1    3    3    0    0 -0.13547655342E+03 -0.53670131795E+02 -0.27312766696E+03  0.30956922010E+03  0.00000000000E+00 0.  1.
          1    1    3    3  501    0  0.16611483751E+03  0.28724087077E+02 -0.68311582113E+03  0.70360957746E+03  0.00000000000E+00 0.  1.
         21    1    1    2  502  501 -0.30638284083E+02  0.24946044718E+02  0.10236425412E+02  0.40814139754E+02  0.00000000000E+00 0. -1.
<mgrwt>
<rscale>  1 0.30000000E+03</rscale>
<asrwt>0</asrwt>
<pdfrwt beam="1">  1        1 0.19633837E+00 0.30000000E+03</pdfrwt>
<pdfrwt beam="2">0</pdfrwt>
<totfact> 0.10662766E+01</totfact>
</mgrwt>
</event>
<event>
 6    1  0.1929825E-004  0.3000000E+03  0.7818608E-02  0.1093470E+00
          1   -1    0    0  502    0  0.00000000000E+00  0.00000000000E+00  0.26728415598E+02  0.26728415598E+02  0.00000000000E+00 0.  1.
         13   -1    0    0    0    0 -0.00000000000E+00 -0.00000000000E+00 -0.10000000000E+04  0.10000000000E+04  0.00000000000E+00 0.  1.
    9000005    2    1    2  501    0 -0.54244356974E+01  0.79619576213E+01 -0.94958656807E+03  0.10011589559E+04  0.31703594023E+03 0.  0.
         13    1    3    3    0    0  0.85768996972E+02 -0.23945938664E+02 -0.87390805035E+03  0.87843326968E+03  0.00000000000E+00 0.  1.
          3    1    3    3  501    0 -0.91193432670E+02  0.31907896285E+02 -0.75678517723E+02  0.12272568620E+03  0.00000000000E+00 0.  1.
         21    1    1    2  502  501  0.54244356974E+01 -0.79619576213E+01 -0.23685016330E+02  0.25569459719E+02  0.00000000000E+00 0. -1.
<mgrwt>
<rscale>  1 0.30000000E+03</rscale>
<asrwt>0</asrwt>
<pdfrwt beam="1">  1        1 0.97194443E-01 0.30000000E+03</pdfrwt>
<pdfrwt beam="2">0</pdfrwt>
<totfact> 0.35674605E+01</totfact>
</mgrwt>
</event>
<event>
 6    1  0.1929825E-004  0.3000000E+03  0.7818608E-02  0.1093470E+00
          1   -1    0    0  502    0  0.00000000000E+00  0.00000000000E+00  0.32563011803E+02  0.32563011803E+02  0.00000000000E+00 0.  1.
         13   -1    0    0    0    0 -0.00000000000E+00 -0.00000000000E+00 -0.10000000000E+04  0.10000000000E+04  0.00000000000E+00 0.  1.
    9000005    2    1    2  501    0  0.38603888816E+01 -0.97086296775E+01 -0.96557914757E+03  0.10219511475E+04  0.33456224761E+03 0.  0.
         13    1    3    3    0    0  0.94044909368E+02  0.80513839623E+02 -0.14131749635E+03  0.18787644377E+03  0.00000000000E+00 0.  1.
          3    1    3    3  501    0 -0.90184520487E+02 -0.90222469301E+02 -0.82426165122E+03  0.83407470371E+03  0.00000000000E+00 0.  1.
         21    1    1    2  502  501 -0.38603888816E+01  0.97086296775E+01 -0.18578406243E+01  0.10611864319E+02  0.00000000000E+00 0. -1.
<mgrwt>
<rscale>  1 0.30000000E+03</rscale>
<asrwt>0</asrwt>
<pdfrwt beam="1">  1        1 0.11841120E+00 0.30000000E+03</pdfrwt>
<pdfrwt beam="2">0</pdfrwt>
<totfact> 0.26541325E+01</totfact>
</mgrwt>
</event>
<event>
 6    1  0.1929825E-004  0.3000000E+03  0.7818608E-02  0.1093470E+00
          1   -1    0    0  502    0  0.00000000000E+00  0.00000000000E+00  0.30429520023E+02  0.30429520023E+02  0.00000000000E+00 0.  1.
         13   -1    0    0    0    0 -0.00000000000E+00 -0.00000000000E+00 -0.10000000000E+04  0.10000000000E+04  0.00000000000E+00 0.  1.
    9000005    2    1    2  501    0 -0.60135228011E+01  0.13830215122E+02 -0.89785110873E+03  0.95714169348E+03  0.33129468853E+03 0.  0.
         13    1    3    3    0    0  0.13757135469E+03  0.94518480329E+02 -0.44636026895E+03  0.47654707055E+03  0.00000000000E+00 0.  1.
          3    1    3    3  501    0 -0.14358487749E+03 -0.80688265207E+02 -0.45149083978E+03  0.48059462293E+03  0.00000000000E+00 0.  1.
         21    1    1    2  502  501  0.60135228011E+01 -0.13830215122E+02 -0.71719371250E+02  0.73287826542E+02  0.00000000000E+00 0.  1.
<mgrwt>
<rscale>  1 0.30000000E+03</rscale>
<asrwt>0</asrwt>
<pdfrwt beam="1">  1        1 0.11065303E+00 0.30000000E+03</pdfrwt>
<pdfrwt beam="2">0</pdfrwt>
<totfact> 0.29445055E+01</totfact>
</mgrwt>
</event>
<event>
 6    1  0.1929825E-004  0.3000000E+03  0.7818608E-02  0.1093470E+00
          1   -1    0    0  502    0  0.00000000000E+00  0.00000000000E+00  0.53623506873E+02  0.53623506873E+02  0.00000000000E+00 0.  1.
         13   -1    0    0    0    0 -0.00000000000E+00 -0.00000000000E+00 -0.10000000000E+04  0.10000000000E+04  0.00000000000E+00 0.  1.
    9000005    2    1    2  501    0 -0.65808973943E+01  0.10150027697E+02 -0.97496226160E+03  0.10225835740E+04  0.30818731808E+03 0.  0.
         13    1    3    3    0    0  0.65516234034E+02 -0.13286075307E+03 -0.45354876595E+03  0.47712769750E+03  0.00000000000E+00 0.  1.
          3    1    3    3  501    0 -0.72097131428E+02  0.14301078077E+03 -0.52141349565E+03  0.54545587651E+03  0.00000000000E+00 0.  1.
         21    1    1    2  502  501  0.65808973943E+01 -0.10150027697E+02  0.28585768472E+02  0.31039932860E+02  0.00000000000E+00 0.  1.
<mgrwt>
<rscale>  1 0.30000000E+03</rscale>
<asrwt>0</asrwt>
<pdfrwt beam="1">  1        1 0.19499498E+00 0.30000000E+03</pdfrwt>
<pdfrwt beam="2">0</pdfrwt>
<totfact> 0.10821303E+01</totfact>
</mgrwt>
</event>
<event>
 6    1  0.1929825E-004  0.3000000E+03  0.7818608E-02  0.1093470E+00
          1   -1    0    0  502    0  0.00000000000E+00  0.00000000000E+00  0.28160322883E+02  0.28160322883E+02  0.00000000000E+00 0.  1.
         13   -1    0    0    0    0 -0.00000000000E+00 -0.00000000000E+00 -0.10000000000E+04  0.10000000000E+04  0.00000000000E+00 0.  1.
    9000005    2    1    2  501    0  0.59580439419E+01  0.69699504958E+01 -0.95936232583E+03  0.10126760472E+04  0.32411822828E+03 0.  0.
         13    1    3    3    0    0 -0.85641989399E+02 -0.11004000748E+02 -0.89531637003E+03  0.89947042243E+03  0.00000000000E+00 0.  1.
          3    1    3    3  501    0  0.91600033341E+02  0.17973951243E+02 -0.64045955800E+02  0.11320562480E+03  0.00000000000E+00 0.  1.
         21    1    1    2  502  501 -0.59580439419E+01 -0.69699504958E+01 -0.12477351290E+02  0.15484275661E+02  0.00000000000E+00 0. -1.
<mgrwt>
<rscale>  1 0.30000000E+03</rscale>
<asrwt>0</asrwt>
<pdfrwt beam="1">  1        1 0.10240139E+00 0.30000000E+03</pdfrwt>
<pdfrwt beam="2">0</pdfrwt>
<totfact> 0.33055522E+01</totfact>
</mgrwt>
</event>
<event>
 6    1  0.1929825E-004  0.3000000E+03  0.7818608E-02  0.1093470E+00
          1   -1    0    0  502    0  0.00000000000E+00  0.00000000000E+00  0.33562052869E+02  0.33562052869E+02  0.00000000000E+00 0.  1.
         13   -1    0    0    0    0 -0.00000000000E+00 -0.00000000000E+00 -0.10000000000E+04  0.10000000000E+04  0.00000000000E+00 0.  1.
    9000005    2    1    2  501    0  0.19892959934E+02 -0.58322666425E+01 -0.95520631628E+03  0.10099846331E+04  0.32744481573E+03 0.  0.
         13    1    3    3    0    0  0.12804155665E+03 -0.99028226360E+02 -0.31618590774E+03  0.35521086427E+03  0.00000000000E+00 0.  1.
          1    1    3    3  501    0 -0.10814859671E+03  0.93195959717E+02 -0.63902040853E+03  0.65477376887E+03  0.00000000000E+00 0.  1.
         21    1    1    2  502  501 -0.19892959934E+02  0.58322666425E+01 -0.11231630855E+02  0.23577419722E+02  0.00000000000E+00 0.  1.
<mgrwt>
<rscale>  1 0.30000000E+03</rscale>
<asrwt>0</asrwt>
<pdfrwt beam="1">  1        1 0.12204409E+00 0.30000000E+03</pdfrwt>
<pdfrwt beam="2">0</pdfrwt>
<totfact> 0.25316285E+01</totfact>
</mgrwt>
</event>
<event>
 6    1  0.1929825E-004  0.3000000E+03  0.7818608E-02  0.1093470E+00
          1   -1    0    0  502    0  0.00000000000E+00  0.00000000000E+00  0.55682414051E+02  0.55682414051E+02  0.00000000000E+00 0.  1.
         13   -1    0    0    0    0 -0.00000000000E+00 -0.00000000000E+00 -0.10000000000E+04  0.10000000000E+04  0.00000000000E+00 0.  1.
    9000005    2    1    2  501    0  0.76359909437E+02  0.36126362917E+02 -0.89450589772E+03  0.95761532400E+03  0.33128591554E+03 0.  0.
         13    1    3    3    0    0  0.18949909304E+03 -0.41418701281E+02 -0.40176303500E+03  0.44613781656E+03  0.00000000000E+00 0.  1.
          3    1    3    3  501    0 -0.11313918360E+03  0.77545064199E+02 -0.49274286273E+03  0.51147750744E+03  0.00000000000E+00 0.  1.
         21    1    1    2  502  501 -0.76359909437E+02 -0.36126362917E+02 -0.49811688225E+02  0.98067090049E+02  0.00000000000E+00 0.  1.
<mgrwt>
<rscale>  1 0.30000000E+03</rscale>
<asrwt>0</asrwt>
<pdfrwt beam="1">  1        1 0.20248193E+00 0.30000000E+03</pdfrwt>
<pdfrwt beam="2">0</pdfrwt>
<totfact> 0.99690888E+00</totfact>
</mgrwt>
</event>
<event>
 6    1  0.1929825E-004  0.3000000E+03  0.7818608E-02  0.1093470E+00
          1   -1    0    0  502    0  0.00000000000E+00  0.00000000000E+00  0.28463044919E+02  0.28463044919E+02  0.00000000000E+00 0.  1.
         13   -1    0    0    0    0 -0.00000000000E+00 -0.00000000000E+00 -0.10000000000E+04  0.10000000000E+04  0.00000000000E+00 0.  1.
    9000005    2    1    2  501    0  0.61506774131E+01  0.67303959308E+01 -0.93188691256E+03  0.98777822055E+03  0.32742856646E+03 0.  0.
         13    1    3    3    0    0  0.95114566798E+02  0.91826187742E+02 -0.78530935644E+03  0.79636022935E+03  0.00000000000E+00 0.  1.
          3    1    3    3  501    0 -0.88963889385E+02 -0.85095791811E+02 -0.14657755612E+03  0.19141799120E+03  0.00000000000E+00 0.  1.
         21    1    1    2  502  501 -0.61506774131E+01 -0.67303959308E+01 -0.39650042524E+02  0.40684824372E+02  0.00000000000E+00 0.  1.
<mgrwt>
<rscale>  1 0.30000000E+03</rscale>
<asrwt>0</asrwt>
<pdfrwt beam="1">  1        1 0.10350220E+00 0.30000000E+03</pdfrwt>
<pdfrwt beam="2">0</pdfrwt>
<totfact> 0.32538071E+01</totfact>
</mgrwt>
</event>
<event>
 6    1  0.1929825E-004  0.3000000E+03  0.7818608E-02  0.1093470E+00
          1   -1    0    0  502    0  0.00000000000E+00  0.00000000000E+00  0.41201853529E+02  0.41201853529E+02  0.00000000000E+00 0.  1.
         13   -1    0    0    0    0 -0.00000000000E+00 -0.00000000000E+00 -0.10000000000E+04  0.10000000000E+04  0.00000000000E+00 0.  1.
    9000005    2    1    2  501    0 -0.15960169113E+02  0.48907929524E+02 -0.91346961026E+03  0.97263517967E+03  0.33006931288E+03 0.  0.
         13    1    3    3    0    0  0.13526069846E+03  0.66484924193E+02 -0.24994892062E+03  0.29187354216E+03  0.00000000000E+00 0.  1.
          3    1    3    3  501    0 -0.15122086758E+03 -0.17576994670E+02 -0.66352068963E+03  0.68076163751E+03  0.00000000000E+00 0.  1.
         21    1    1    2  502  501  0.15960169113E+02 -0.48907929524E+02 -0.45328536212E+02  0.68566673855E+02  0.00000000000E+00 0. -1.
<mgrwt>
<rscale>  1 0.30000000E+03</rscale>
<asrwt>0</asrwt>
<pdfrwt beam="1">  1        1 0.14982524E+00 0.30000000E+03</pdfrwt>
<pdfrwt beam="2">0</pdfrwt>
<totfact> 0.18001761E+01</totfact>
</mgrwt>
</event>
<event>
 6    1  0.1929825E-004  0.3000000E+03  0.7818608E-02  0.1093470E+00
          1   -1    0    0  502    0  0.00000000000E+00  0.00000000000E+00  0.67177783564E+02  0.67177783564E+02  0.00000000000E+00 0.  1.
         13   -1    0    0    0    0 -0.00000000000E+00 -0.00000000000E+00 -0.10000000000E+04  0.10000000000E+04  0.00000000000E+00 0.  1.
    9000005    2    1    2  501    0  0.10806271506E+03  0.52258977835E+02 -0.87134885100E+03  0.93231664829E+03  0.30912289041E+03 0.  0.
         13    1    3    3    0    0 -0.98348864019E+02  0.65628539193E+02 -0.41026530028E+03  0.42696278623E+03  0.00000000000E+00 0.  1.
          3    1    3    3  501    0  0.20641157908E+03 -0.13369561358E+02 -0.46108355072E+03  0.50535386206E+03  0.00000000000E+00 0.  1.
         21    1    1    2  502  501 -0.10806271506E+03 -0.52258977835E+02 -0.61473365434E+02  0.13486113528E+03  0.00000000000E+00 0.  1.
<mgrwt>
<rscale>  1 0.30000000E+03</rscale>
<asrwt>0</asrwt>
<pdfrwt beam="1">  1        1 0.24428336E+00 0.30000000E+03</pdfrwt>
<pdfrwt beam="2">0</pdfrwt>
<totfact> 0.63438890E+00</totfact>
</mgrwt>
</event>
<event>
 6    1  0.1929825E-004  0.3000000E+03  0.7818608E-02  0.1093470E+00
          1   -1    0    0  502    0  0.00000000000E+00  0.00000000000E+00  0.61440077887E+02  0.61440077887E+02  0.00000000000E+00 0.  1.
         13   -1    0    0    0    0 -0.00000000000E+00 -0.00000000000E+00 -0.10000000000E+04  0.10000000000E+04  0.00000000000E+00 0.  1.
    9000005    2    1    2  501    0 -0.24302417267E+02  0.95436949835E+01 -0.96585787399E+03  0.10236661745E+04  0.33812618135E+03 0.  0.
         13    1    3    3    0    0 -0.40150239658E+01 -0.16023377570E+03 -0.57756887742E+03  0.59939702323E+03  0.00000000000E+00 0.  1.
          3    1    3    3  501    0 -0.20287393301E+02  0.16977747069E+03 -0.38828899657E+03  0.42426915129E+03  0.00000000000E+00 0.  1.
         21    1    1    2  502  501  0.24302417267E+02 -0.95436949835E+01  0.27297951875E+02  0.37773903367E+02  0.00000000000E+00 0.  1.
<mgrwt>
<rscale>  1 0.30000000E+03</rscale>
<asrwt>0</asrwt>
<pdfrwt beam="1">  1        1 0.22341894E+00 0.30000000E+03</pdfrwt>
<pdfrwt beam="2">0</pdfrwt>
<totfact> 0.79447211E+00</totfact>
</mgrwt>
</event>
<event>
 6    1  0.1929825E-004  0.3000000E+03  0.7818608E-02  0.1093470E+00
          1   -1    0    0  502    0  0.00000000000E+00  0.00000000000E+00  0.42423557559E+02  0.42423557559E+02  0.00000000000E+00 0.  1.
         13   -1    0    0    0    0 -0.00000000000E+00 -0.00000000000E+00 -0.10000000000E+04  0.10000000000E+04  0.00000000000E+00 0.  1.
    9000005    2    1    2  501    0 -0.45848328598E+02  0.64816804435E+02 -0.78428673439E+03  0.85181240813E+03  0.32276215627E+03 0.  0.
         13    1    3    3    0    0 -0.87650270357E+02  0.63243315388E+02 -0.79989460225E+03  0.80716396200E+03  0.00000000000E+00 0.  1.
          3    1    3    3  501    0  0.41801941759E+02  0.15734890466E+01  0.15607867860E+02  0.44648446129E+02  0.00000000000E+00 0.  1.
         21    1    1    2  502  501  0.45848328598E+02 -0.64816804435E+02 -0.17328970805E+03  0.19061114943E+03  0.00000000000E+00 0. -1.
<mgrwt>
<rscale>  1 0.30000000E+03</rscale>
<asrwt>0</asrwt>
<pdfrwt beam="1">  1        1 0.15426781E+00 0.30000000E+03</pdfrwt>
<pdfrwt beam="2">0</pdfrwt>
<totfact> 0.17094142E+01</totfact>
</mgrwt>
</event>
<event>
 6    1  0.1929825E-004  0.3000000E+03  0.7818608E-02  0.1093470E+00
          1   -1    0    0  502    0  0.00000000000E+00  0.00000000000E+00  0.36287733600E+02  0.36287733600E+02  0.00000000000E+00 0.  1.
         13   -1    0    0    0    0 -0.00000000000E+00 -0.00000000000E+00 -0.10000000000E+04  0.10000000000E+04  0.00000000000E+00 0.  1.
    9000005    2    1    2  501    0 -0.11134125523E+02 -0.20276352793E+02 -0.95644062080E+03  0.10120395159E+04  0.33001548649E+03 0.  0.
         13    1    3    3    0    0  0.73941260928E+02 -0.10876422044E+03 -0.81156750694E+03  0.82215496352E+03  0.00000000000E+00 0.  1.
          3    1    3    3  501    0 -0.85075386451E+02  0.88487867644E+02 -0.14487311385E+03  0.18988455234E+03  0.00000000000E+00 0.  1.
         21    1    1    2  502  501  0.11134125523E+02  0.20276352793E+02 -0.72716456051E+01  0.24248217740E+02  0.00000000000E+00 0.  1.
<mgrwt>
<rscale>  1 0.30000000E+03</rscale>
<asrwt>0</asrwt>
<pdfrwt beam="1">  1        1 0.13195567E+00 0.30000000E+03</pdfrwt>
<pdfrwt beam="2">0</pdfrwt>
<totfact> 0.22327648E+01</totfact>
</mgrwt>
</event>
<event>
 6    1  0.1929825E-004  0.3000000E+03  0.7818608E-02  0.1093470E+00
          1   -1    0    0  502    0  0.00000000000E+00  0.00000000000E+00  0.28274577583E+02  0.28274577583E+02  0.00000000000E+00 0.  1.
         13   -1    0    0    0    0 -0.00000000000E+00 -0.00000000000E+00 -0.10000000000E+04  0.10000000000E+04  0.00000000000E+00 0.  1.
    9000005    2    1    2  501    0 -0.15542950048E+02  0.33084391786E-01 -0.94620423330E+03  0.99839288612E+03  0.31818912544E+03 0.  0.
         13    1    3    3    0    0 -0.14001415164E+03  0.88581804265E+02 -0.47796672907E+03  0.50586845405E+03  0.00000000000E+00 0.  1.
          1    1    3    3  501    0  0.12447120159E+03 -0.88548719873E+02 -0.46823750422E+03  0.49252443206E+03  0.00000000000E+00 0.  1.
         21    1    1    2  502  501  0.15542950048E+02 -0.33084391786E-01 -0.25521189120E+02  0.29881691466E+02  0.00000000000E+00 0. -1.
<mgrwt>
<rscale>  1 0.30000000E+03</rscale>
<asrwt>0</asrwt>
<pdfrwt beam="1">  1        1 0.10281686E+00 0.30000000E+03</pdfrwt>
<pdfrwt beam="2">0</pdfrwt>
<totfact> 0.32858823E+01</totfact>
</mgrwt>
</event>
<event>
 6    1  0.1929825E-004  0.3000000E+03  0.7818608E-02  0.1093470E+00
          1   -1    0    0  502    0  0.00000000000E+00  0.00000000000E+00  0.43770312744E+02  0.43770312744E+02  0.00000000000E+00 0.  1.
         13   -1    0    0    0    0 -0.00000000000E+00 -0.00000000000E+00 -0.10000000000E+04  0.10000000000E+04  0.00000000000E+00 0.  1.
    9000005    2    1    2  501    0  0.42532693071E+02  0.67096610934E+01 -0.94193460524E+03  0.99840073150E+03  0.32819075337E+03 0.  0.
         13    1    3    3    0    0  0.67093390638E+02 -0.45404770287E+02 -0.93709006935E+03  0.94058541043E+03  0.00000000000E+00 0.  1.
          3    1    3    3  501    0 -0.24560697567E+02  0.52114431381E+02 -0.48445358821E+01  0.57815321075E+02  0.00000000000E+00 0.  1.
         21    1    1    2  502  501 -0.42532693071E+02 -0.67096610934E+01 -0.14295082020E+02  0.45369581239E+02  0.00000000000E+00 0.  1.
<mgrwt>
<rscale>  1 0.30000000E+03</rscale>
<asrwt>0</asrwt>
<pdfrwt beam="1">  1        1 0.15916511E+00 0.30000000E+03</pdfrwt>
<pdfrwt beam="2">0</pdfrwt>
<totfact> 0.16156731E+01</totfact>
</mgrwt>
</event>
<event>
 6    1  0.1929825E-004  0.3000000E+03  0.7818608E-02  0.1093470E+00
          1   -1    0    0  502    0  0.00000000000E+00  0.00000000000E+00  0.32822714506E+02  0.32822714506E+02  0.00000000000E+00 0.  1.
         13   -1    0    0    0    0 -0.00000000000E+00 -0.00000000000E+00 -0.10000000000E+04  0.10000000000E+04  0.00000000000E+00 0.  1.
    9000005    2    1    2  501    0  0.35990866752E+01 -0.19721896337E+02 -0.94513850461E+03  0.10030298549E+04  0.33523154733E+03 0.  0.
         13    1    3    3    0    0  0.89798985979E+02  0.11989977073E+03 -0.63192901200E+03  0.64944136695E+03  0.00000000000E+00 0.  1.
          1    1    3    3  501    0 -0.86199899304E+02 -0.13962166707E+03 -0.31320949261E+03  0.35358848796E+03  0.00000000000E+00 0.  1.
         21    1    1    2  502  501 -0.35990866752E+01  0.19721896337E+02 -0.22038780885E+02  0.29792859596E+02  0.00000000000E+00 0.  1.
<mgrwt>
<rscale>  1 0.30000000E+03</rscale>
<asrwt>0</asrwt>
<pdfrwt beam="1">  1        1 0.11935558E+00 0.30000000E+03</pdfrwt>
<pdfrwt beam="2">0</pdfrwt>
<totfact> 0.26215359E+01</totfact>
</mgrwt>
</event>
<event>
 6    1  0.1929825E-004  0.3000000E+03  0.7818608E-02  0.1093470E+00
          1   -1    0    0  502    0  0.00000000000E+00  0.00000000000E+00  0.51806902754E+02  0.51806902754E+02  0.00000000000E+00 0.  1.
         13   -1    0    0    0    0 -0.00000000000E+00 -0.00000000000E+00 -0.10000000000E+04  0.10000000000E+04  0.00000000000E+00 0.  1.
    9000005    2    1    2  501    0  0.43509862106E+02 -0.33202376640E+02 -0.93173604847E+03  0.99465499666E+03  0.34381825499E+03 0.  0.
         13    1    3    3    0    0  0.13163721467E+03 -0.35978763379E+02 -0.13128874002E+03  0.18936620859E+03  0.00000000000E+00 0.  1.
          3    1    3    3  501    0 -0.88127352568E+02  0.27763867383E+01 -0.80044730845E+03  0.80528878807E+03  0.00000000000E+00 0.  1.
         21    1    1    2  502  501 -0.43509862106E+02  0.33202376640E+02 -0.16457048780E+02  0.57151906089E+02  0.00000000000E+00 0.  1.
<mgrwt>
<rscale>  1 0.30000000E+03</rscale>
<asrwt>0</asrwt>
<pdfrwt beam="1">  1        1 0.18838913E+00 0.30000000E+03</pdfrwt>
<pdfrwt beam="2">0</pdfrwt>
<totfact> 0.11639455E+01</totfact>
</mgrwt>
</event>
<event>
 6    1  0.1929825E-004  0.3000000E+03  0.7818608E-02  0.1093470E+00
          1   -1    0    0  502    0  0.00000000000E+00  0.00000000000E+00  0.57206035792E+02  0.57206035792E+02  0.00000000000E+00 0.  1.
         13   -1    0    0    0    0 -0.00000000000E+00 -0.00000000000E+00 -0.10000000000E+04  0.10000000000E+04  0.00000000000E+00 0.  1.
    9000005    2    1    2  501    0  0.52177175764E+02  0.11499397120E+03 -0.63045685036E+03  0.72030761821E+03  0.32468623869E+03 0.  0.
         13    1    3    3    0    0  0.86713398091E+01 -0.67539450789E+02 -0.61048348066E+01  0.68366940512E+02  0.00000000000E+00 0.  1.
          1    1    3    3  501    0  0.43505835955E+02  0.18253342199E+03 -0.62435201556E+03  0.65194067770E+03  0.00000000000E+00 0.  1.
         21    1    1    2  502  501 -0.52177175764E+02 -0.11499397120E+03 -0.31233711385E+03  0.33689841758E+03  0.00000000000E+00 0. -1.
<mgrwt>
<rscale>  1 0.30000000E+03</rscale>
<asrwt>0</asrwt>
<pdfrwt beam="1">  1        1 0.20802239E+00 0.30000000E+03</pdfrwt>
<pdfrwt beam="2">0</pdfrwt>
<totfact> 0.93847445E+00</totfact>
</mgrwt>
</event>
<event>
 6    1  0.1929825E-004  0.3000000E+03  0.7818608E-02  0.1093470E+00
          1   -1    0    0  502    0  0.00000000000E+00  0.00000000000E+00  0.41021829799E+02  0.41021829799E+02  0.00000000000E+00 0.  1.
         13   -1    0    0    0    0 -0.00000000000E+00 -0.00000000000E+00 -0.10000000000E+04  0.10000000000E+04  0.00000000000E+00 0.  1.
    9000005    2    1    2  501    0 -0.36006202244E+02 -0.23695953107E+02 -0.92326149709E+03  0.98504303442E+03  0.34064650719E+03 0.  0.
         13    1    3    3    0    0 -0.13793201690E+03 -0.11630583895E+03 -0.33097834480E+03  0.37696014933E+03  0.00000000000E+00 0.  1.
          1    1    3    3  501    0  0.10192581465E+03  0.92609885843E+02 -0.59228315230E+03  0.60808288509E+03  0.00000000000E+00 0.  1.
         21    1    1    2  502  501  0.36006202244E+02  0.23695953107E+02 -0.35716673107E+02  0.55978795374E+02  0.00000000000E+00 0. -1.
<mgrwt>
<rscale>  1 0.30000000E+03</rscale>
<asrwt>0</asrwt>
<pdfrwt beam="1">  1        1 0.14917060E+00 0.30000000E+03</pdfrwt>
<pdfrwt beam="2">0</pdfrwt>
<totfact> 0.18140463E+01</totfact>
</mgrwt>
</event>
<event>
 6    1  0.1929825E-004  0.3000000E+03  0.7818608E-02  0.1093470E+00
          1   -1    0    0  502    0  0.00000000000E+00  0.00000000000E+00  0.42105258919E+02  0.42105258919E+02  0.00000000000E+00 0.  1.
         13   -1    0    0    0    0 -0.00000000000E+00 -0.00000000000E+00 -0.10000000000E+04  0.10000000000E+04  0.00000000000E+00 0.  1.
    9000005    2    1    2  501    0 -0.64888383231E+01  0.10811424042E+02 -0.97095710301E+03  0.10239498958E+04  0.32489490795E+03 0.  0.
         13    1    3    3    0    0  0.14725215156E+03  0.32022604237E+02 -0.30562863464E+03  0.34076018787E+03  0.00000000000E+00 0.  1.
          1    1    3    3  501    0 -0.15374098989E+03 -0.21211180195E+02 -0.66532846837E+03  0.68318970788E+03  0.00000000000E+00 0.  1.
         21    1    1    2  502  501  0.64888383231E+01 -0.10811424042E+02  0.13062361929E+02  0.18155363168E+02  0.00000000000E+00 0.  1.
<mgrwt>
<rscale>  1 0.30000000E+03</rscale>
<asrwt>0</asrwt>
<pdfrwt beam="1">  1        1 0.15311036E+00 0.30000000E+03</pdfrwt>
<pdfrwt beam="2">0</pdfrwt>
<totfact> 0.17325124E+01</totfact>
</mgrwt>
</event>
<event>
 6    1  0.1929825E-004  0.3000000E+03  0.7818608E-02  0.1093470E+00
          1   -1    0    0  502    0  0.00000000000E+00  0.00000000000E+00  0.25543570780E+02  0.25543570780E+02  0.00000000000E+00 0.  1.
         13   -1    0    0    0    0 -0.00000000000E+00 -0.00000000000E+00 -0.10000000000E+04  0.10000000000E+04  0.00000000000E+00 0.  1.
    9000005    2    1    2  501    0  0.12297581590E+02 -0.18381121746E+01 -0.95790446724E+03  0.10048414787E+04  0.30326691194E+03 0.  0.
         13    1    3    3    0    0 -0.48866190046E+02 -0.14142107067E+03 -0.52449761800E+03  0.54542238224E+03  0.00000000000E+00 0.  1.
          3    1    3    3  501    0  0.61163771636E+02  0.13958295850E+03 -0.43340684924E+03  0.45941909650E+03  0.00000000000E+00 0.  1.
         21    1    1    2  502  501 -0.12297581590E+02  0.18381121746E+01 -0.16551961980E+02  0.20702092038E+02  0.00000000000E+00 0. -1.
<mgrwt>
<rscale>  1 0.30000000E+03</rscale>
<asrwt>0</asrwt>
<pdfrwt beam="1">  1        1 0.92885908E-01 0.30000000E+03</pdfrwt>
<pdfrwt beam="2">0</pdfrwt>
<totfact> 0.38081261E+01</totfact>
</mgrwt>
</event>
<event>
 6    1  0.1929825E-004  0.3000000E+03  0.7818608E-02  0.1093470E+00
          1   -1    0    0  502    0  0.00000000000E+00  0.00000000000E+00  0.30799769824E+02  0.30799769824E+02  0.00000000000E+00 0.  1.
         13   -1    0    0    0    0 -0.00000000000E+00 -0.00000000000E+00 -0.10000000000E+04  0.10000000000E+04  0.00000000000E+00 0.  1.
    9000005    2    1    2  501    0 -0.14878747956E+02 -0.10087786948E+01 -0.93644068619E+03  0.99480556893E+03  0.33540209669E+03 0.  0.
         13    1    3    3    0    0  0.13304826525E+03  0.53654109453E+02 -0.23076177390E+03  0.27171970970E+03  0.00000000000E+00 0.  1.
          3    1    3    3  501    0 -0.14792701321E+03 -0.54662888147E+02 -0.70567891229E+03  0.72308585923E+03  0.00000000000E+00 0.  1.
         21    1    1    2  502  501  0.14878747956E+02  0.10087786948E+01 -0.32759543991E+02  0.35994200890E+02  0.00000000000E+00 0.  1.
<mgrwt>
<rscale>  1 0.30000000E+03</rscale>
<asrwt>0</asrwt>
<pdfrwt beam="1">  1        1 0.11199940E+00 0.30000000E+03</pdfrwt>
<pdfrwt beam="2">0</pdfrwt>
<totfact> 0.28909980E+01</totfact>
</mgrwt>
</event>
<event>
 6    1  0.1929825E-004  0.3000000E+03  0.7818608E-02  0.1093470E+00
          1   -1    0    0  502    0  0.00000000000E+00  0.00000000000E+00  0.43650110238E+02  0.43650110238E+02  0.00000000000E+00 0.  1.
         13   -1    0    0    0    0 -0.00000000000E+00 -0.00000000000E+00 -0.10000000000E+04  0.10000000000E+04  0.00000000000E+00 0.  1.
    9000005    2    1    2  501    0 -0.12213009784E+02 -0.12231654847E+02 -0.96825009477E+03  0.10226647375E+04  0.32868852791E+03 0.  0.
         13    1    3    3    0    0 -0.13970091301E+03  0.87707369862E+02 -0.42942138610E+03  0.46001266794E+03  0.00000000000E+00 0.  1.
          3    1    3    3  501    0  0.12748790323E+03 -0.99939024708E+02 -0.53882870867E+03  0.56265206959E+03  0.00000000000E+00 0.  1.
         21    1    1    2  502  501  0.12213009784E+02  0.12231654847E+02  0.11900205010E+02  0.20985372705E+02  0.00000000000E+00 0.  1.
<mgrwt>
<rscale>  1 0.30000000E+03</rscale>
<asrwt>0</asrwt>
<pdfrwt beam="1">  1        1 0.15872801E+00 0.30000000E+03</pdfrwt>
<pdfrwt beam="2">0</pdfrwt>
<totfact> 0.16237881E+01</totfact>
</mgrwt>
</event>
<event>
 6    1  0.1929825E-004  0.3000000E+03  0.7818608E-02  0.1093470E+00
          1   -1    0    0  502    0  0.00000000000E+00  0.00000000000E+00  0.10108402916E+03  0.10108402916E+03  0.00000000000E+00 0.  1.
         13   -1    0    0    0    0 -0.00000000000E+00 -0.00000000000E+00 -0.10000000000E+04  0.10000000000E+04  0.00000000000E+00 0.  1.
    9000005    2    1    2  501    0 -0.14785147230E+02 -0.97226878542E+01 -0.97256791125E+03  0.10253361608E+04  0.32421099513E+03 0.  0.
         13    1    3    3    0    0 -0.10723595091E+03  0.94316887854E+01 -0.89958307479E+03  0.90600122206E+03  0.00000000000E+00 0.  1.
          3    1    3    3  501    0  0.92450803682E+02 -0.19154376640E+02 -0.72984836459E+02  0.11933493872E+03  0.00000000000E+00 0.  1.
         21    1    1    2  502  501  0.14785147230E+02  0.97226878542E+01  0.73651940409E+02  0.75747868378E+02  0.00000000000E+00 0.  1.
<mgrwt>
<rscale>  1 0.30000000E+03</rscale>
<asrwt>0</asrwt>
<pdfrwt beam="1">  1        1 0.36757906E+00 0.30000000E+03</pdfrwt>
<pdfrwt beam="2">0</pdfrwt>
<totfact> 0.15905920E+00</totfact>
</mgrwt>
</event>
<event>
 6    1  0.1929825E-004  0.3000000E+03  0.7818608E-02  0.1093470E+00
          1   -1    0    0  502    0  0.00000000000E+00  0.00000000000E+00  0.28696369599E+02  0.28696369599E+02  0.00000000000E+00 0.  1.
         13   -1    0    0    0    0 -0.00000000000E+00 -0.00000000000E+00 -0.10000000000E+04  0.10000000000E+04  0.00000000000E+00 0.  1.
    9000005    2    1    2  501    0  0.76987604640E+01 -0.58682866357E+01 -0.94840265388E+03  0.10038334972E+04  0.32881664863E+03 0.  0.
         13    1    3    3    0    0 -0.14838260834E+03 -0.70178091352E+01 -0.65350831643E+03  0.67017890727E+03  0.00000000000E+00 0.  1.
          3    1    3    3  501    0  0.15608136881E+03  0.11495224995E+01 -0.29489433745E+03  0.33365458989E+03  0.00000000000E+00 0.  1.
         21    1    1    2  502  501 -0.76987604640E+01  0.58682866357E+01 -0.22900976520E+02  0.24862872447E+02  0.00000000000E+00 0. -1.
<mgrwt>
<rscale>  1 0.30000000E+03</rscale>
<asrwt>0</asrwt>
<pdfrwt beam="1">  1        1 0.10435065E+00 0.30000000E+03</pdfrwt>
<pdfrwt beam="2">0</pdfrwt>
<totfact> 0.32147249E+01</totfact>
</mgrwt>
</event>
<event>
 6    1  0.1929825E-004  0.3000000E+03  0.7818608E-02  0.1093470E+00
          1   -1    0    0  502    0  0.00000000000E+00  0.00000000000E+00  0.63052748956E+02  0.63052748956E+02  0.00000000000E+00 0.  1.
         13   -1    0    0    0    0 -0.00000000000E+00 -0.00000000000E+00 -0.10000000000E+04  0.10000000000E+04  0.00000000000E+00 0.  1.
    9000005    2    1    2  501    0  0.49209113675E+02 -0.76452575925E+00 -0.95523510260E+03  0.10105497311E+04  0.32605909962E+03 0.  0.
         13    1    3    3    0    0  0.13427852475E+03  0.51240915016E+02 -0.18689388763E+03  0.23576615282E+03  0.00000000000E+00 0.  1.
          3    1    3    3  501    0 -0.85069411077E+02 -0.52005440776E+02 -0.76834121497E+03  0.77478357829E+03  0.00000000000E+00 0.  1.
         21    1    1    2  502  501 -0.49209113675E+02  0.76452575925E+00  0.18287851555E+02  0.52503017845E+02  0.00000000000E+00 0.  1.
<mgrwt>
<rscale>  1 0.30000000E+03</rscale>
<asrwt>0</asrwt>
<pdfrwt beam="1">  1        1 0.22928321E+00 0.30000000E+03</pdfrwt>
<pdfrwt beam="2">0</pdfrwt>
<totfact> 0.74578246E+00</totfact>
</mgrwt>
</event>
<event>
 6    1  0.1929825E-004  0.3000000E+03  0.7818608E-02  0.1093470E+00
          1   -1    0    0  502    0  0.00000000000E+00  0.00000000000E+00  0.38804927231E+02  0.38804927231E+02  0.00000000000E+00 0.  1.
         13   -1    0    0    0    0 -0.00000000000E+00 -0.00000000000E+00 -0.10000000000E+04  0.10000000000E+04  0.00000000000E+00 0.  1.
    9000005    2    1    2  501    0 -0.77476577837E+01 -0.19911384542E+02 -0.96049455004E+03  0.10174278328E+04  0.33489270641E+03 0.  0.
         13    1    3    3    0    0  0.12015939714E+03 -0.12168900794E+03 -0.53214118486E+03  0.55894609400E+03  0.00000000000E+00 0.  1.
          1    1    3    3  501    0 -0.12790705493E+03  0.10177762340E+03 -0.42835336517E+03  0.45848173877E+03  0.00000000000E+00 0.  1.
         21    1    1    2  502  501  0.77476577837E+01  0.19911384542E+02 -0.70052273311E+00  0.21377094462E+02  0.00000000000E+00 0. -1.
<mgrwt>
<rscale>  1 0.30000000E+03</rscale>
<asrwt>0</asrwt>
<pdfrwt beam="1">  1        1 0.14110912E+00 0.30000000E+03</pdfrwt>
<pdfrwt beam="2">0</pdfrwt>
<totfact> 0.19963585E+01</totfact>
</mgrwt>
</event>
<event>
 6    1  0.1929825E-004  0.3000000E+03  0.7818608E-02  0.1093470E+00
          1   -1    0    0  502    0  0.00000000000E+00  0.00000000000E+00  0.34657334569E+02  0.34657334569E+02  0.00000000000E+00 0.  1.
         13   -1    0    0    0    0 -0.00000000000E+00 -0.00000000000E+00 -0.10000000000E+04  0.10000000000E+04  0.00000000000E+00 0.  1.
    9000005    2    1    2  501    0  0.21541190749E+02 -0.42692393694E+01 -0.93785023577E+03  0.99947093105E+03  0.34481419342E+03 0.  0.
         13    1    3    3    0    0  0.14013662676E+03  0.10852599705E+03 -0.40591764058E+03  0.44292809477E+03  0.00000000000E+00 0.  1.
          1    1    3    3  501    0 -0.11859543601E+03 -0.11279523642E+03 -0.53193259519E+03  0.55654283629E+03  0.00000000000E+00 0.  1.
         21    1    1    2  502  501 -0.21541190749E+02  0.42692393694E+01 -0.27492429661E+02  0.35186403516E+02  0.00000000000E+00 0. -1.
<mgrwt>
<rscale>  1 0.30000000E+03</rscale>
<asrwt>0</asrwt>
<pdfrwt beam="1">  1        1 0.12602694E+00 0.30000000E+03</pdfrwt>
<pdfrwt beam="2">0</pdfrwt>
<totfact> 0.24057090E+01</totfact>
</mgrwt>
</event>
<event>
 6    1  0.1929825E-004  0.3000000E+03  0.7818608E-02  0.1093470E+00
          1   -1    0    0  502    0  0.00000000000E+00  0.00000000000E+00  0.58351593190E+02  0.58351593190E+02  0.00000000000E+00 0.  1.
         13   -1    0    0    0    0 -0.00000000000E+00 -0.00000000000E+00 -0.10000000000E+04  0.10000000000E+04  0.00000000000E+00 0.  1.
    9000005    2    1    2  501    0 -0.12868605960E+02 -0.63560179164E+00 -0.97320358508E+03  0.10242673698E+04  0.31911192677E+03 0.  0.
         13    1    3    3    0    0  0.95779606890E+02 -0.95518191832E+02 -0.22697810535E+03  0.26422815591E+03  0.00000000000E+00 0.  1.
          3    1    3    3  501    0 -0.10864821285E+03  0.94882590040E+02 -0.74622547973E+03  0.76003921389E+03  0.00000000000E+00 0.  1.
         21    1    1    2  502  501  0.12868605960E+02  0.63560179164E+00  0.31555178267E+02  0.34084223396E+02  0.00000000000E+00 0. -1.
<mgrwt>
<rscale>  1 0.30000000E+03</rscale>
<asrwt>0</asrwt>
<pdfrwt beam="1">  1        1 0.21218806E+00 0.30000000E+03</pdfrwt>
<pdfrwt beam="2">0</pdfrwt>
<totfact> 0.89699385E+00</totfact>
</mgrwt>
</event>
<event>
 6    1  0.1929825E-004  0.3000000E+03  0.7818608E-02  0.1093470E+00
          1   -1    0    0  502    0  0.00000000000E+00  0.00000000000E+00  0.37443804648E+02  0.37443804648E+02  0.00000000000E+00 0.  1.
         13   -1    0    0    0    0 -0.00000000000E+00 -0.00000000000E+00 -0.10000000000E+04  0.10000000000E+04  0.00000000000E+00 0.  1.
    9000005    2    1    2  501    0 -0.28424197884E+02 -0.18887047779E+02 -0.90114553309E+03  0.96718766585E+03  0.34960556856E+03 0.  0.
         13    1    3    3    0    0  0.15429723042E+03  0.33242731019E+02 -0.34269351959E+03  0.37729506072E+03  0.00000000000E+00 0.  1.
          3    1    3    3  501    0 -0.18272142830E+03 -0.52129778798E+02 -0.55845201350E+03  0.58989260512E+03  0.00000000000E+00 0.  1.
         21    1    1    2  502  501  0.28424197884E+02  0.18887047779E+02 -0.61410662266E+02  0.70256138800E+02  0.00000000000E+00 0.  1.
<mgrwt>
<rscale>  1 0.30000000E+03</rscale>
<asrwt>0</asrwt>
<pdfrwt beam="1">  1        1 0.13615958E+00 0.30000000E+03</pdfrwt>
<pdfrwt beam="2">0</pdfrwt>
<totfact> 0.21198870E+01</totfact>
</mgrwt>
</event>
<event>
 6    1  0.1929825E-004  0.3000000E+03  0.7818608E-02  0.1093470E+00
          1   -1    0    0  502    0  0.00000000000E+00  0.00000000000E+00  0.29906855745E+02  0.29906855745E+02  0.00000000000E+00 0.  1.
         13   -1    0    0    0    0 -0.00000000000E+00 -0.00000000000E+00 -0.10000000000E+04  0.10000000000E+04  0.00000000000E+00 0.  1.
    9000005    2    1    2  501    0  0.76882547833E+01 -0.90281088597E+01 -0.95823041471E+03  0.10131336520E+04  0.32877599236E+03 0.  0.
         13    1    3    3    0    0 -0.52066273456E+02 -0.11698631384E+03 -0.15765722122E+03  0.20310709948E+03  0.00000000000E+00 0.  1.
          1    1    3    3  501    0  0.59754528239E+02  0.10795820498E+03 -0.80057319350E+03  0.81002655254E+03  0.00000000000E+00 0.  1.
         21    1    1    2  502  501 -0.76882547833E+01  0.90281088597E+01 -0.11862729543E+02  0.16773203731E+02  0.00000000000E+00 0. -1.
<mgrwt>
<rscale>  1 0.30000000E+03</rscale>
<asrwt>0</asrwt>
<pdfrwt beam="1">  1        1 0.10875243E+00 0.30000000E+03</pdfrwt>
<pdfrwt beam="2">0</pdfrwt>
<totfact> 0.30224587E+01</totfact>
</mgrwt>
</event>
<event>
 6    1  0.1929825E-004  0.3000000E+03  0.7818608E-02  0.1093470E+00
          1   -1    0    0  502    0  0.00000000000E+00  0.00000000000E+00  0.35203674818E+02  0.35203674818E+02  0.00000000000E+00 0.  1.
         13   -1    0    0    0    0 -0.00000000000E+00 -0.00000000000E+00 -0.10000000000E+04  0.10000000000E+04  0.00000000000E+00 0.  1.
    9000005    2    1    2  501    0 -0.20567677435E+02 -0.13337868196E+02 -0.95811809805E+03  0.10097964554E+04  0.31795858748E+03 0.  0.
         13    1    3    3    0    0  0.20607087221E+02  0.13512355984E+03 -0.24815220553E+03  0.28330645170E+03  0.00000000000E+00 0.  1.
          3    1    3    3  501    0 -0.41174764656E+02 -0.14846142804E+03 -0.70996589253E+03  0.72649000366E+03  0.00000000000E+00 0.  1.
         21    1    1    2  502  501  0.20567677435E+02  0.13337868196E+02 -0.66782271269E+01  0.25407219459E+02  0.00000000000E+00 0. -1.
<mgrwt>
<rscale>  1 0.30000000E+03</rscale>
<asrwt>0</asrwt>
<pdfrwt beam="1">  1        1 0.12801363E+00 0.30000000E+03</pdfrwt>
<pdfrwt beam="2">0</pdfrwt>
<totfact> 0.23458883E+01</totfact>
</mgrwt>
</event>
<event>
 6    1  0.1929825E-004  0.3000000E+03  0.7818608E-02  0.1093470E+00
          1   -1    0    0  502    0  0.00000000000E+00  0.00000000000E+00  0.26264924889E+02  0.26264924889E+02  0.00000000000E+00 0.  1.
         13   -1    0    0    0    0 -0.00000000000E+00 -0.00000000000E+00 -0.10000000000E+04  0.10000000000E+04  0.00000000000E+00 0.  1.
    9000005    2    1    2  501    0 -0.43583654757E+01 -0.89714153317E+01 -0.93865811520E+03  0.98979747695E+03  0.31387976440E+03 0.  0.
         13    1    3    3    0    0  0.48060779986E+02  0.11727509770E+03 -0.72610075377E+03  0.73707909463E+03  0.00000000000E+00 0.  1.
          1    1    3    3  501    0 -0.52419145462E+02 -0.12624651303E+03 -0.21255736143E+03  0.25271838232E+03  0.00000000000E+00 0.  1.
         21    1    1    2  502  501  0.43583654757E+01  0.89714153317E+01 -0.35076959912E+02  0.36467447941E+02  0.00000000000E+00 0. -1.
<mgrwt>
<rscale>  1 0.30000000E+03</rscale>
<asrwt>0</asrwt>
<pdfrwt beam="1">  1        1 0.95509019E-01 0.30000000E+03</pdfrwt>
<pdfrwt beam="2">0</pdfrwt>
<totfact> 0.36588296E+01</totfact>
</mgrwt>
</event>
<event>
 6    1  0.1929825E-004  0.3000000E+03  0.7818608E-02  0.1093470E+00
          1   -1    0    0  502    0  0.00000000000E+00  0.00000000000E+00  0.40958093914E+02  0.40958093914E+02  0.00000000000E+00 0.  1.
         13   -1    0    0    0    0 -0.00000000000E+00 -0.00000000000E+00 -0.10000000000E+04  0.10000000000E+04  0.00000000000E+00 0.  1.
    9000005    2    1    2  501    0 -0.35609091997E+02 -0.34431611145E+02 -0.93276758318E+03  0.98488775128E+03  0.31224185356E+03 0.  0.
         13    1    3    3    0    0  0.11248492059E+03  0.40418029459E+02 -0.19522129669E+03  0.22890572109E+03  0.00000000000E+00 0.  1.
          3    1    3    3  501    0 -0.14809401259E+03 -0.74849640605E+02 -0.73754628649E+03  0.75598203019E+03  0.00000000000E+00 0.  1.
         21    1    1    2  502  501  0.35609091997E+02  0.34431611145E+02 -0.26274322910E+02  0.56070342636E+02  0.00000000000E+00 0.  1.
<mgrwt>
<rscale>  1 0.30000000E+03</rscale>
<asrwt>0</asrwt>
<pdfrwt beam="1">  1        1 0.14893884E+00 0.30000000E+03</pdfrwt>
<pdfrwt beam="2">0</pdfrwt>
<totfact> 0.18189887E+01</totfact>
</mgrwt>
</event>
<event>
 6    1  0.1929825E-004  0.3000000E+03  0.7818608E-02  0.1093470E+00
          1   -1    0    0  502    0  0.00000000000E+00  0.00000000000E+00  0.34406258156E+02  0.34406258156E+02  0.00000000000E+00 0.  1.
         13   -1    0    0    0    0 -0.00000000000E+00 -0.00000000000E+00 -0.10000000000E+04  0.10000000000E+04  0.00000000000E+00 0.  1.
    9000005    2    1    2  501    0  0.11568787074E+02  0.48464811720E+01 -0.96773142791E+03  0.10216824649E+04  0.32737381880E+03 0.  0.
         13    1    3    3    0    0  0.51636800559E+01 -0.35813258382E+02 -0.97847381654E+03  0.97914261613E+03  0.00000000000E+00 0.  1.
          3    1    3    3  501    0  0.64051070185E+01  0.40659739554E+02  0.10742388634E+02  0.42539848732E+02  0.00000000000E+00 0.  1.
         21    1    1    2  502  501 -0.11568787074E+02 -0.48464811720E+01  0.21376860617E+01  0.12723793295E+02  0.00000000000E+00 0.  1.
<mgrwt>
<rscale>  1 0.30000000E+03</rscale>
<asrwt>0</asrwt>
<pdfrwt beam="1">  1        1 0.12511393E+00 0.30000000E+03</pdfrwt>
<pdfrwt beam="2">0</pdfrwt>
<totfact> 0.24338531E+01</totfact>
</mgrwt>
</event>
<event>
 6    1  0.1929825E-004  0.3000000E+03  0.7818608E-02  0.1093470E+00
          1   -1    0    0  502    0  0.00000000000E+00  0.00000000000E+00  0.34016363841E+02  0.34016363841E+02  0.00000000000E+00 0.  1.
         13   -1    0    0    0    0 -0.00000000000E+00 -0.00000000000E+00 -0.10000000000E+04  0.10000000000E+04  0.00000000000E+00 0.  1.
    9000005    2    1    2  501    0  0.69235758274E+01  0.10320892743E+02 -0.96752445278E+03  0.10214931516E+04  0.32739919865E+03 0.  0.
         13    1    3    3    0    0  0.16012344899E+03 -0.31232952927E+02 -0.39482411948E+03  0.42720147657E+03  0.00000000000E+00 0.  1.
          1    1    3    3  501    0 -0.15319987316E+03  0.41553845670E+02 -0.57270033330E+03  0.59429167502E+03  0.00000000000E+00 0.  1.
         21    1    1    2  502  501 -0.69235758274E+01 -0.10320892743E+02  0.15408166254E+01  0.12523212253E+02  0.00000000000E+00 0.  1.
<mgrwt>
<rscale>  1 0.30000000E+03</rscale>
<asrwt>0</asrwt>
<pdfrwt beam="1">  1        1 0.12369613E+00 0.30000000E+03</pdfrwt>
<pdfrwt beam="2">0</pdfrwt>
<totfact> 0.24783922E+01</totfact>
</mgrwt>
</event>
<event>
 6    1  0.1929825E-004  0.3000000E+03  0.7818608E-02  0.1093470E+00
          1   -1    0    0  502    0  0.00000000000E+00  0.00000000000E+00  0.22325870456E+02  0.22325870456E+02  0.00000000000E+00 0.  1.
         13   -1    0    0    0    0 -0.00000000000E+00 -0.00000000000E+00 -0.10000000000E+04  0.10000000000E+04  0.00000000000E+00 0.  1.
    9000005    2    1    2  501    0 -0.23774779947E+01  0.10377395853E+02 -0.97810864313E+03  0.10116707520E+04  0.25820118130E+03 0.  0.
         13    1    3    3    0    0  0.41033132670E+02 -0.11476136666E+03 -0.37979356530E+03  0.39886970492E+03  0.00000000000E+00 0.  1.
          3    1    3    3  501    0 -0.43410610665E+02  0.12513876252E+03 -0.59831507783E+03  0.61280104713E+03  0.00000000000E+00 0.  1.
         21    1    1    2  502  501  0.23774779947E+01 -0.10377395853E+02  0.43451358902E+00  0.10655118412E+02  0.00000000000E+00 0. -1.
<mgrwt>
<rscale>  1 0.30000000E+03</rscale>
<asrwt>0</asrwt>
<pdfrwt beam="1">  1        1 0.81185155E-01 0.30000000E+03</pdfrwt>
<pdfrwt beam="2">0</pdfrwt>
<totfact> 0.46019312E+01</totfact>
</mgrwt>
</event>
<event>
 6    1  0.1929825E-004  0.3000000E+03  0.7818608E-02  0.1093470E+00
          1   -1    0    0  502    0  0.00000000000E+00  0.00000000000E+00  0.34354413268E+02  0.34354413268E+02  0.00000000000E+00 0.  1.
         13   -1    0    0    0    0 -0.00000000000E+00 -0.00000000000E+00 -0.10000000000E+04  0.10000000000E+04  0.00000000000E+00 0.  1.
    9000005    2    1    2  501    0 -0.24018039028E+01  0.10549655251E+02 -0.97014306309E+03  0.10226372813E+04  0.32325281494E+03 0.  0.
         13    1    3    3    0    0 -0.10644024110E+03  0.67151526179E+02 -0.82848575969E+03  0.83799015890E+03  0.00000000000E+00 0.  1.
          3    1    3    3  501    0  0.10403843720E+03 -0.56601870928E+02 -0.14165730339E+03  0.18464712240E+03  0.00000000000E+00 0.  1.
         21    1    1    2  502  501  0.24018039028E+01 -0.10549655251E+02  0.44974763549E+01  0.11717131964E+02  0.00000000000E+00 0.  1.
<mgrwt>
<rscale>  1 0.30000000E+03</rscale>
<asrwt>0</asrwt>
<pdfrwt beam="1">  1        1 0.12492540E+00 0.30000000E+03</pdfrwt>
<pdfrwt beam="2">0</pdfrwt>
<totfact> 0.24397166E+01</totfact>
</mgrwt>
</event>
<event>
 6    1  0.1929825E-004  0.3000000E+03  0.7818608E-02  0.1093470E+00
          1   -1    0    0  502    0  0.00000000000E+00  0.00000000000E+00  0.31853485178E+02  0.31853485178E+02  0.00000000000E+00 0.  1.
         13   -1    0    0    0    0 -0.00000000000E+00 -0.00000000000E+00 -0.10000000000E+04  0.10000000000E+04  0.00000000000E+00 0.  1.
    9000005    2    1    2  501    0  0.18089489713E+02  0.37668294598E+01 -0.93065221699E+03  0.99005347307E+03  0.33726979098E+03 0.  0.
         13    1    3    3    0    0  0.13535710152E+02  0.12111617367E+03 -0.81897698971E+03  0.82799495931E+03  0.00000000000E+00 0.  1.
          3    1    3    3  501    0  0.45537795612E+01 -0.11734934421E+03 -0.11167522729E+03  0.16205851377E+03  0.00000000000E+00 0.  1.
         21    1    1    2  502  501 -0.18089489713E+02 -0.37668294598E+01 -0.37494297827E+02  0.41800012103E+02  0.00000000000E+00 0.  1.
<mgrwt>
<rscale>  1 0.30000000E+03</rscale>
<asrwt>0</asrwt>
<pdfrwt beam="1">  1        1 0.11583110E+00 0.30000000E+03</pdfrwt>
<pdfrwt beam="2">0</pdfrwt>
<totfact> 0.27460621E+01</totfact>
</mgrwt>
</event>
<event>
 6    1  0.1929825E-004  0.3000000E+03  0.7818608E-02  0.1093470E+00
          1   -1    0    0  502    0  0.00000000000E+00  0.00000000000E+00  0.32550078103E+02  0.32550078103E+02  0.00000000000E+00 0.  1.
         13   -1    0    0    0    0 -0.00000000000E+00 -0.00000000000E+00 -0.10000000000E+04  0.10000000000E+04  0.00000000000E+00 0.  1.
    9000005    2    1    2  501    0  0.29318004650E+01  0.97820247915E+01 -0.96462447087E+03  0.10219544830E+04  0.33732226724E+03 0.  0.
         13    1    3    3    0    0 -0.45977005669E+02 -0.82052130524E+02 -0.60434554398E+02  0.11179790937E+03  0.00000000000E+00 0.  1.
          1    1    3    3  501    0  0.48908806134E+02  0.91834155316E+02 -0.90418991647E+03  0.91015657359E+03  0.00000000000E+00 0.  1.
         21    1    1    2  502  501 -0.29318004650E+01 -0.97820247915E+01 -0.28254510300E+01  0.10595595147E+02  0.00000000000E+00 0.  1.
<mgrwt>
<rscale>  1 0.30000000E+03</rscale>
<asrwt>0</asrwt>
<pdfrwt beam="1">  1        1 0.11836417E+00 0.30000000E+03</pdfrwt>
<pdfrwt beam="2">0</pdfrwt>
<totfact> 0.26557703E+01</totfact>
</mgrwt>
</event>
<event>
 6    1  0.1929825E-004  0.3000000E+03  0.7818608E-02  0.1093470E+00
          1   -1    0    0  502    0  0.00000000000E+00  0.00000000000E+00  0.30804384888E+02  0.30804384888E+02  0.00000000000E+00 0.  1.
         13   -1    0    0    0    0 -0.00000000000E+00 -0.00000000000E+00 -0.10000000000E+04  0.10000000000E+04  0.00000000000E+00 0.  1.
    9000005    2    1    2  501    0 -0.81338321974E+01 -0.14343521882E+02 -0.95777887241E+03  0.10107485164E+04  0.32249077375E+03 0.  0.
         13    1    3    3    0    0  0.13841075737E+03  0.17938722694E+02 -0.68829027396E+03  0.70229825342E+03  0.00000000000E+00 0.  1.
          3    1    3    3  501    0 -0.14654458957E+03 -0.32282244577E+02 -0.26948859845E+03  0.30845026300E+03  0.00000000000E+00 0.  1.
         21    1    1    2  502  501  0.81338321974E+01  0.14343521882E+02 -0.11416742697E+02  0.20055868469E+02  0.00000000000E+00 0. -1.
<mgrwt>
<rscale>  1 0.30000000E+03</rscale>
<asrwt>0</asrwt>
<pdfrwt beam="1">  1        1 0.11201618E+00 0.30000000E+03</pdfrwt>
<pdfrwt beam="2">0</pdfrwt>
<totfact> 0.28903398E+01</totfact>
</mgrwt>
</event>
<event>
 6    1  0.1929825E-004  0.3000000E+03  0.7818608E-02  0.1093470E+00
          1   -1    0    0  502    0  0.00000000000E+00  0.00000000000E+00  0.37138294745E+02  0.37138294745E+02  0.00000000000E+00 0.  1.
         13   -1    0    0    0    0 -0.00000000000E+00 -0.00000000000E+00 -0.10000000000E+04  0.10000000000E+04  0.00000000000E+00 0.  1.
    9000005    2    1    2  501    0 -0.14320653931E+02 -0.37489408341E+01 -0.96108921267E+03  0.10222293237E+04  0.34790972956E+03 0.  0.
         13    1    3    3    0    0 -0.13233322651E+03  0.11640032180E+03 -0.41825388265E+03  0.45386939543E+03  0.00000000000E+00 0.  1.
          1    1    3    3  501    0  0.11801257257E+03 -0.12014926264E+03 -0.54283533002E+03  0.56835992832E+03  0.00000000000E+00 0.  1.
         21    1    1    2  502  501  0.14320653931E+02  0.37489408341E+01 -0.17724925862E+01  0.14908971002E+02  0.00000000000E+00 0.  1.
<mgrwt>
<rscale>  1 0.30000000E+03</rscale>
<asrwt>0</asrwt>
<pdfrwt beam="1">  1        1 0.13504863E+00 0.30000000E+03</pdfrwt>
<pdfrwt beam="2">0</pdfrwt>
<totfact> 0.21489660E+01</totfact>
</mgrwt>
</event>
<event>
 6    1  0.1929825E-004  0.3000000E+03  0.7818608E-02  0.1093470E+00
          1   -1    0    0  502    0  0.00000000000E+00  0.00000000000E+00  0.38877428431E+02  0.38877428431E+02  0.00000000000E+00 0.  1.
         13   -1    0    0    0    0 -0.00000000000E+00 -0.00000000000E+00 -0.10000000000E+04  0.10000000000E+04  0.00000000000E+00 0.  1.
    9000005    2    1    2  501    0  0.10816327004E+02 -0.14555536410E+02 -0.97402790403E+03  0.10166197516E+04  0.29061401384E+03 0.  0.
         13    1    3    3    0    0  0.13585229223E+03  0.21263042732E+01 -0.72326865624E+03  0.73591977522E+03  0.00000000000E+00 0.  1.
          3    1    3    3  501    0 -0.12503596523E+03 -0.16681840684E+02 -0.25075924779E+03  0.28069997642E+03  0.00000000000E+00 0.  1.
         21    1    1    2  502  501 -0.10816327004E+02  0.14555536410E+02  0.12905332459E+02  0.22257676787E+02  0.00000000000E+00 0. -1.
<mgrwt>
<rscale>  1 0.30000000E+03</rscale>
<asrwt>0</asrwt>
<pdfrwt beam="1">  1        1 0.14137277E+00 0.30000000E+03</pdfrwt>
<pdfrwt beam="2">0</pdfrwt>
<totfact> 0.19900395E+01</totfact>
</mgrwt>
</event>
<event>
 6    1  0.1929825E-004  0.3000000E+03  0.7818608E-02  0.1093470E+00
          1   -1    0    0  502    0  0.00000000000E+00  0.00000000000E+00  0.31558179288E+02  0.31558179288E+02  0.00000000000E+00 0.  1.
         13   -1    0    0    0    0 -0.00000000000E+00 -0.00000000000E+00 -0.10000000000E+04  0.10000000000E+04  0.00000000000E+00 0.  1.
    9000005    2    1    2  501    0  0.99616070297E+01 -0.27862364360E+01 -0.96912569971E+03  0.10211916746E+04  0.32174651171E+03 0.  0.
         13    1    3    3    0    0  0.11936611976E+03 -0.11215847151E+03 -0.42388005071E+03  0.45442501104E+03  0.00000000000E+00 0.  1.
          1    1    3    3  501    0 -0.10940451273E+03  0.10937223507E+03 -0.54524564900E+03  0.56676666360E+03  0.00000000000E+00 0.  1.
         21    1    1    2  502  501 -0.99616070297E+01  0.27862364360E+01  0.68387899555E+00  0.10366504646E+02  0.00000000000E+00 0.  1.
<mgrwt>
<rscale>  1 0.30000000E+03</rscale>
<asrwt>0</asrwt>
<pdfrwt beam="1">  1        1 0.11475726E+00 0.30000000E+03</pdfrwt>
<pdfrwt beam="2">0</pdfrwt>
<totfact> 0.27856258E+01</totfact>
</mgrwt>
</event>
<event>
 6    1  0.1929825E-004  0.3000000E+03  0.7818608E-02  0.1093470E+00
          1   -1    0    0  502    0  0.00000000000E+00  0.00000000000E+00  0.32512011145E+02  0.32512011145E+02  0.00000000000E+00 0.  1.
         13   -1    0    0    0    0 -0.00000000000E+00 -0.00000000000E+00 -0.10000000000E+04  0.10000000000E+04  0.00000000000E+00 0.  1.
    9000005    2    1    2  501    0 -0.42268532578E+01  0.16702125584E+02 -0.95732848044E+03  0.10125109387E+04  0.32924725397E+03 0.  0.
         13    1    3    3    0    0 -0.13555551920E+01 -0.15647258519E+03 -0.44871966899E+03  0.47522084212E+03  0.00000000000E+00 0.  1.
          3    1    3    3  501    0 -0.28712980658E+01  0.17317471077E+03 -0.50860881146E+03  0.53729009659E+03  0.00000000000E+00 0.  1.
         21    1    1    2  502  501  0.42268532578E+01 -0.16702125584E+02 -0.10159508413E+02  0.20001072438E+02  0.00000000000E+00 0.  1.
<mgrwt>
<rscale>  1 0.30000000E+03</rscale>
<asrwt>0</asrwt>
<pdfrwt beam="1">  1        1 0.11822574E+00 0.30000000E+03</pdfrwt>
<pdfrwt beam="2">0</pdfrwt>
<totfact> 0.26605984E+01</totfact>
</mgrwt>
</event>
<event>
 6    1  0.1929825E-004  0.3000000E+03  0.7818608E-02  0.1093470E+00
          1   -1    0    0  502    0  0.00000000000E+00  0.00000000000E+00  0.39250710082E+02  0.39250710082E+02  0.00000000000E+00 0.  1.
         13   -1    0    0    0    0 -0.00000000000E+00 -0.00000000000E+00 -0.10000000000E+04  0.10000000000E+04  0.00000000000E+00 0.  1.
    9000005    2    1    2  501    0  0.80814893631E+01  0.11954913597E+02 -0.96900528901E+03  0.10226256702E+04  0.32647171519E+03 0.  0.
         13    1    3    3    0    0  0.82289834506E+02 -0.96905810115E+02 -0.79109212779E+03  0.80124222776E+03  0.00000000000E+00 0.  1.
          1    1    3    3  501    0 -0.74208345143E+02  0.10886072371E+03 -0.17791316122E+03  0.22138344245E+03  0.00000000000E+00 0.  1.
         21    1    1    2  502  501 -0.80814893631E+01 -0.11954913597E+02  0.82559990972E+01  0.16625039866E+02  0.00000000000E+00 0.  1.
<mgrwt>
<rscale>  1 0.30000000E+03</rscale>
<asrwt>0</asrwt>
<pdfrwt beam="1">  1        1 0.14273016E+00 0.30000000E+03</pdfrwt>
<pdfrwt beam="2">0</pdfrwt>
<totfact> 0.19579041E+01</totfact>
</mgrwt>
</event>
<event>
 6    1  0.1929825E-004  0.3000000E+03  0.7818608E-02  0.1093470E+00
          1   -1    0    0  502    0  0.00000000000E+00  0.00000000000E+00  0.29327521066E+02  0.29327521066E+02  0.00000000000E+00 0.  1.
         13   -1    0    0    0    0 -0.00000000000E+00 -0.00000000000E+00 -0.10000000000E+04  0.10000000000E+04  0.00000000000E+00 0.  1.
    9000005    2    1    2  501    0 -0.96080914947E+01 -0.51077627144E+01 -0.96003147306E+03  0.10141079393E+04  0.32655180093E+03 0.  0.
         13    1    3    3    0    0  0.14127677669E+02 -0.10893382348E+03 -0.10332065085E+03  0.15080227473E+03  0.00000000000E+00 0.  1.
          1    1    3    3  501    0 -0.23735769163E+02  0.10382606076E+03 -0.85671082222E+03  0.86330566460E+03  0.00000000000E+00 0.  1.
         21    1    1    2  502  501  0.96080914947E+01  0.51077627144E+01 -0.10641005871E+02  0.15219581731E+02  0.00000000000E+00 0.  1.
<mgrwt>
<rscale>  1 0.30000000E+03</rscale>
<asrwt>0</asrwt>
<pdfrwt beam="1">  1        1 0.10664576E+00 0.30000000E+03</pdfrwt>
<pdfrwt beam="2">0</pdfrwt>
<totfact> 0.31123507E+01</totfact>
</mgrwt>
</event>
<event>
 6    1  0.1929825E-004  0.3000000E+03  0.7818608E-02  0.1093470E+00
          1   -1    0    0  502    0  0.00000000000E+00  0.00000000000E+00  0.19512382785E+02  0.19512382785E+02  0.00000000000E+00 0.  1.
         13   -1    0    0    0    0 -0.00000000000E+00 -0.00000000000E+00 -0.10000000000E+04  0.10000000000E+04  0.00000000000E+00 0.  1.
    9000005    2    1    2  501    0  0.38959147683E+02 -0.31889682718E+02 -0.94770725646E+03  0.95943477379E+03  0.14082355678E+03 0.  0.
         13    1    3    3    0    0  0.35899720231E+02  0.29880541237E+02 -0.76731531706E+03  0.76873560634E+03  0.00000000000E+00 0.  1.
          1    1    3    3  501    0  0.30594274513E+01 -0.61770223955E+02 -0.18039193940E+03  0.19069916745E+03  0.00000000000E+00 0.  1.
         21    1    1    2  502  501 -0.38959147683E+02  0.31889682718E+02 -0.32780360750E+02  0.60077608998E+02  0.00000000000E+00 0.  1.
<mgrwt>
<rscale>  1 0.30000000E+03</rscale>
<asrwt>0</asrwt>
<pdfrwt beam="1">  1        1 0.70954269E-01 0.30000000E+03</pdfrwt>
<pdfrwt beam="2">0</pdfrwt>
<totfact> 0.55356864E+01</totfact>
</mgrwt>
</event>
<event>
 6    1  0.1929825E-004  0.3000000E+03  0.7818608E-02  0.1093470E+00
          1   -1    0    0  502    0  0.00000000000E+00  0.00000000000E+00  0.38993274102E+02  0.38993274102E+02  0.00000000000E+00 0.  1.
         13   -1    0    0    0    0 -0.00000000000E+00 -0.00000000000E+00 -0.10000000000E+04  0.10000000000E+04  0.00000000000E+00 0.  1.
    9000005    2    1    2  501    0 -0.26110028758E+02  0.24726235223E+01 -0.95780810465E+03  0.10125720961E+04  0.32744165435E+03 0.  0.
         13    1    3    3    0    0 -0.67676620543E+02  0.15564665058E+03 -0.48584480757E+03  0.51463694179E+03  0.00000000000E+00 0.  1.
          1    1    3    3  501    0  0.41566591786E+02 -0.15317402706E+03 -0.47196329708E+03  0.49793515432E+03  0.00000000000E+00 0.  1.
         21    1    1    2  502  501  0.26110028758E+02 -0.24726235223E+01 -0.31986212449E+01  0.26421177996E+02  0.00000000000E+00 0. -1.
<mgrwt>
<rscale>  1 0.30000000E+03</rscale>
<asrwt>0</asrwt>
<pdfrwt beam="1">  1        1 0.14179402E+00 0.30000000E+03</pdfrwt>
<pdfrwt beam="2">0</pdfrwt>
<totfact> 0.19799953E+01</totfact>
</mgrwt>
</event>
<event>
 6    1  0.1929825E-004  0.3000000E+03  0.7818608E-02  0.1093470E+00
          1   -1    0    0  502    0  0.00000000000E+00  0.00000000000E+00  0.56279446259E+02  0.56279446259E+02  0.00000000000E+00 0.  1.
         13   -1    0    0    0    0 -0.00000000000E+00 -0.00000000000E+00 -0.10000000000E+04  0.10000000000E+04  0.00000000000E+00 0.  1.
    9000005    2    1    2  501    0  0.47549043304E+01  0.11125723660E+03 -0.79816137711E+03  0.87300845643E+03  0.33568050178E+03 0.  0.
         13    1    3    3    0    0  0.13884838075E+03  0.12993728869E+03 -0.28747389352E+03  0.34467928757E+03  0.00000000000E+00 0.  1.
          1    1    3    3  501    0 -0.13409347642E+03 -0.18680052082E+02 -0.51068748360E+03  0.52832916886E+03  0.00000000000E+00 0.  1.
         21    1    1    2  502  501 -0.47549043304E+01 -0.11125723660E+03 -0.14555917663E+03  0.18327098983E+03  0.00000000000E+00 0.  1.
<mgrwt>
<rscale>  1 0.30000000E+03</rscale>
<asrwt>0</asrwt>
<pdfrwt beam="1">  1        1 0.20465296E+00 0.30000000E+03</pdfrwt>
<pdfrwt beam="2">0</pdfrwt>
<totfact> 0.97355488E+00</totfact>
</mgrwt>
</event>
<event>
 6    1  0.1929825E-004  0.3000000E+03  0.7818608E-02  0.1093470E+00
          1   -1    0    0  502    0  0.00000000000E+00  0.00000000000E+00  0.37781098753E+02  0.37781098753E+02  0.00000000000E+00 0.  1.
         13   -1    0    0    0    0 -0.00000000000E+00 -0.00000000000E+00 -0.10000000000E+04  0.10000000000E+04  0.00000000000E+00 0.  1.
    9000005    2    1    2  501    0 -0.11602816184E+02 -0.70041068233E+01 -0.97200910699E+03  0.10210619186E+04  0.31238126499E+03 0.  0.
         13    1    3    3    0    0  0.14042943654E+03 -0.32133253009E+02 -0.31743236348E+03  0.34859185014E+03  0.00000000000E+00 0.  1.
          3    1    3    3  501    0 -0.15203225273E+03  0.25129146186E+02 -0.65457674351E+03  0.67247006848E+03  0.00000000000E+00 0.  1.
         21    1    1    2  502  501  0.11602816184E+02  0.70041068233E+01  0.97902057465E+01  0.16719180134E+02  0.00000000000E+00 0.  1.
<mgrwt>
<rscale>  1 0.30000000E+03</rscale>
<asrwt>0</asrwt>
<pdfrwt beam="1">  1        1 0.13738610E+00 0.30000000E+03</pdfrwt>
<pdfrwt beam="2">0</pdfrwt>
<totfact> 0.20883841E+01</totfact>
</mgrwt>
</event>
<event>
 6    1  0.1929825E-004  0.3000000E+03  0.7818608E-02  0.1093470E+00
          1   -1    0    0  502    0  0.00000000000E+00  0.00000000000E+00  0.29298426045E+02  0.29298426045E+02  0.00000000000E+00 0.  1.
         13   -1    0    0    0    0 -0.00000000000E+00 -0.00000000000E+00 -0.10000000000E+04  0.10000000000E+04  0.00000000000E+00 0.  1.
    9000005    2    1    2  501    0  0.12359670179E+01  0.11854443267E+02 -0.88565070487E+03  0.94341649679E+03  0.32483143313E+03 0.  0.
         13    1    3    3    0    0  0.13806927780E+03  0.91892524860E+02 -0.48314214557E+03  0.51081669357E+03  0.00000000000E+00 0.  1.
          3    1    3    3  501    0 -0.13683331078E+03 -0.80038081593E+02 -0.40250855930E+03  0.43259980323E+03  0.00000000000E+00 0.  1.
         21    1    1    2  502  501 -0.12359670179E+01 -0.11854443267E+02 -0.85050869087E+02  0.85881929252E+02  0.00000000000E+00 0.  1.
<mgrwt>
<rscale>  1 0.30000000E+03</rscale>
<asrwt>0</asrwt>
<pdfrwt beam="1">  1        1 0.10653996E+00 0.30000000E+03</pdfrwt>
<pdfrwt beam="2">0</pdfrwt>
<totfact> 0.31169659E+01</totfact>
</mgrwt>
</event>
<event>
 6    1  0.1929825E-004  0.3000000E+03  0.7818608E-02  0.1093470E+00
          1   -1    0    0  502    0  0.00000000000E+00  0.00000000000E+00  0.39709049425E+02  0.39709049425E+02  0.00000000000E+00 0.  1.
         13   -1    0    0    0    0 -0.00000000000E+00 -0.00000000000E+00 -0.10000000000E+04  0.10000000000E+04  0.00000000000E+00 0.  1.
    9000005    2    1    2  501    0 -0.24509138772E+02 -0.39835327966E+02 -0.91807744078E+03  0.97670483015E+03  0.32999785867E+03 0.  0.
         13    1    3    3    0    0  0.46043334952E+02  0.50473418687E+02 -0.19777882027E+02  0.71124674375E+02  0.00000000000E+00 0.  1.
          1    1    3    3  501    0 -0.70552473724E+02 -0.90308746654E+02 -0.89829955876E+03  0.90558015577E+03  0.00000000000E+00 0.  1.
         21    1    1    2  502  501  0.24509138772E+02  0.39835327966E+02 -0.42213509794E+02  0.63004219276E+02  0.00000000000E+00 0.  1.
<mgrwt>
<rscale>  1 0.30000000E+03</rscale>
<asrwt>0</asrwt>
<pdfrwt beam="1">  1        1 0.14439685E+00 0.30000000E+03</pdfrwt>
<pdfrwt beam="2">0</pdfrwt>
<totfact> 0.19193390E+01</totfact>
</mgrwt>
</event>
<event>
 6    1  0.1929825E-004  0.3000000E+03  0.7818608E-02  0.1093470E+00
          1   -1    0    0  502    0  0.00000000000E+00  0.00000000000E+00  0.20428955368E+02  0.20428955368E+02  0.00000000000E+00 0.  1.
         13   -1    0    0    0    0 -0.00000000000E+00 -0.00000000000E+00 -0.10000000000E+04  0.10000000000E+04  0.00000000000E+00 0.  1.
    9000005    2    1    2  501    0 -0.27345385069E+02  0.48260007895E+01 -0.87176663609E+03  0.90910577328E+03  0.25636922368E+03 0.  0.
         13    1    3    3    0    0 -0.17216762921E+02  0.11518010100E+03 -0.22959702788E+03  0.25744449460E+03  0.00000000000E+00 0.  1.
          3    1    3    3  501    0 -0.10128622148E+02 -0.11035410021E+03 -0.64216960821E+03  0.65166127868E+03  0.00000000000E+00 0.  1.
         21    1    1    2  502  501  0.27345385069E+02 -0.48260007895E+01 -0.10780440855E+03  0.11132318209E+03  0.00000000000E+00 0. -1.
<mgrwt>
<rscale>  1 0.30000000E+03</rscale>
<asrwt>0</asrwt>
<pdfrwt beam="1">  1        1 0.74287267E-01 0.30000000E+03</pdfrwt>
<pdfrwt beam="2">0</pdfrwt>
<totfact> 0.51999941E+01</totfact>
</mgrwt>
</event>
<event>
 6    1  0.1929825E-004  0.3000000E+03  0.7818608E-02  0.1093470E+00
          1   -1    0    0  502    0  0.00000000000E+00  0.00000000000E+00  0.44609236999E+02  0.44609236999E+02  0.00000000000E+00 0.  1.
         13   -1    0    0    0    0 -0.00000000000E+00 -0.00000000000E+00 -0.10000000000E+04  0.10000000000E+04  0.00000000000E+00 0.  1.
    9000005    2    1    2  501    0  0.53714094160E+01  0.71123306271E+02 -0.89651002365E+03  0.95211967975E+03  0.31259284273E+03 0.  0.
         13    1    3    3    0    0 -0.10919950109E+03 -0.59426991262E+02 -0.21058987786E+03  0.24454896235E+03  0.00000000000E+00 0.  1.
          1    1    3    3  501    0  0.11457091051E+03  0.13055029753E+03 -0.68592014579E+03  0.70757071740E+03  0.00000000000E+00 0.  1.
         21    1    1    2  502  501 -0.53714094160E+01 -0.71123306271E+02 -0.58880739354E+02  0.92489557253E+02  0.00000000000E+00 0.  1.
<mgrwt>
<rscale>  1 0.30000000E+03</rscale>
<asrwt>0</asrwt>
<pdfrwt beam="1">  1        1 0.16221575E+00 0.30000000E+03</pdfrwt>
<pdfrwt beam="2">0</pdfrwt>
<totfact> 0.15603344E+01</totfact>
</mgrwt>
</event>
<event>
 6    1  0.1929825E-004  0.3000000E+03  0.7818608E-02  0.1093470E+00
          1   -1    0    0  502    0  0.00000000000E+00  0.00000000000E+00  0.42914300598E+02  0.42914300598E+02  0.00000000000E+00 0.  1.
         13   -1    0    0    0    0 -0.00000000000E+00 -0.00000000000E+00 -0.10000000000E+04  0.10000000000E+04  0.00000000000E+00 0.  1.
    9000005    2    1    2  501    0 -0.21959073449E+01 -0.14396266123E+02 -0.96058784129E+03  0.10279363339E+04  0.36566655755E+03 0.  0.
         13    1    3    3    0    0 -0.29871355923E+02  0.42748268452E+02  0.11807034670E+02  0.53470724963E+02  0.00000000000E+00 0.  1.
          3    1    3    3  501    0  0.27675448578E+02 -0.57144534575E+02 -0.97239487596E+03  0.97446560898E+03  0.00000000000E+00 0.  1.
         21    1    1    2  502  501  0.21959073449E+01  0.14396266123E+02  0.35021418898E+01  0.14977966657E+02  0.00000000000E+00 0.  1.
<mgrwt>
<rscale>  1 0.30000000E+03</rscale>
<asrwt>0</asrwt>
<pdfrwt beam="1">  1        1 0.15605233E+00 0.30000000E+03</pdfrwt>
<pdfrwt beam="2">0</pdfrwt>
<totfact> 0.16745246E+01</totfact>
</mgrwt>
</event>
<event>
 6    1  0.1929825E-004  0.3000000E+03  0.7818608E-02  0.1093470E+00
          1   -1    0    0  502    0  0.00000000000E+00  0.00000000000E+00  0.29994642043E+02  0.29994642043E+02  0.00000000000E+00 0.  1.
         13   -1    0    0    0    0 -0.00000000000E+00 -0.00000000000E+00 -0.10000000000E+04  0.10000000000E+04  0.00000000000E+00 0.  1.
    9000005    2    1    2  501    0  0.51637882597E+01 -0.12075549630E+02 -0.94668909001E+03  0.10032340001E+04  0.33179171499E+03 0.  0.
         13    1    3    3    0    0  0.76173103931E+01  0.91766799489E+02 -0.58723170345E+02  0.10921345907E+03  0.00000000000E+00 0.  1.
          3    1    3    3  501    0 -0.24535221335E+01 -0.10384234912E+03 -0.88796591966E+03  0.89402054100E+03  0.00000000000E+00 0.  1.
         21    1    1    2  502  501 -0.51637882597E+01  0.12075549630E+02 -0.23316267949E+02  0.26760641979E+02  0.00000000000E+00 0.  1.
<mgrwt>
<rscale>  1 0.30000000E+03</rscale>
<asrwt>0</asrwt>
<pdfrwt beam="1">  1        1 0.10907166E+00 0.30000000E+03</pdfrwt>
<pdfrwt beam="2">0</pdfrwt>
<totfact> 0.30091622E+01</totfact>
</mgrwt>
</event>
<event>
 6    1  0.1929825E-004  0.3000000E+03  0.7818608E-02  0.1093470E+00
          1   -1    0    0  502    0  0.00000000000E+00  0.00000000000E+00  0.78328182069E+02  0.78328182069E+02  0.00000000000E+00 0.  1.
         13   -1    0    0    0    0 -0.00000000000E+00 -0.00000000000E+00 -0.10000000000E+04  0.10000000000E+04  0.00000000000E+00 0.  1.
    9000005    2    1    2  501    0 -0.10881056985E+02 -0.20032536358E+02 -0.91967783394E+03  0.10554442164E+04  0.51733497438E+03 0.  0.
         13    1    3    3    0    0  0.24320227637E+03 -0.80577607552E+02 -0.47706891954E+03  0.54151163613E+03  0.00000000000E+00 0.  1.
          1    1    3    3  501    0 -0.25408333335E+03  0.60545071194E+02 -0.44260891440E+03  0.51393258024E+03  0.00000000000E+00 0.  1.
         21    1    1    2  502  501  0.10881056985E+02  0.20032536358E+02 -0.19939839952E+01  0.22883965701E+02  0.00000000000E+00 0. -1.
<mgrwt>
<rscale>  1 0.30000000E+03</rscale>
<asrwt>0</asrwt>
<pdfrwt beam="1">  1        1 0.28483035E+00 0.30000000E+03</pdfrwt>
<pdfrwt beam="2">0</pdfrwt>
<totfact> 0.40984930E+00</totfact>
</mgrwt>
</event>
<event>
 6    1  0.1929825E-004  0.3000000E+03  0.7818608E-02  0.1093470E+00
          1   -1    0    0  502    0  0.00000000000E+00  0.00000000000E+00  0.27599010491E+02  0.27599010491E+02  0.00000000000E+00 0.  1.
         13   -1    0    0    0    0 -0.00000000000E+00 -0.00000000000E+00 -0.10000000000E+04  0.10000000000E+04  0.00000000000E+00 0.  1.
    9000005    2    1    2  501    0 -0.33793449973E+01 -0.15340891443E+02 -0.94046461483E+03  0.99200835230E+03  0.31521439745E+03 0.  0.
         13    1    3    3    0    0  0.12286589336E+03 -0.99649484034E+02 -0.57259157750E+03  0.59404306413E+03  0.00000000000E+00 0.  1.
          1    1    3    3  501    0 -0.12624523835E+03  0.84308592591E+02 -0.36787303733E+03  0.39796528817E+03  0.00000000000E+00 0.  1.
         21    1    1    2  502  501  0.33793449973E+01  0.15340891443E+02 -0.31936374680E+02  0.35590658193E+02  0.00000000000E+00 0. -1.
<mgrwt>
<rscale>  1 0.30000000E+03</rscale>
<asrwt>0</asrwt>
<pdfrwt beam="1">  1        1 0.10036025E+00 0.30000000E+03</pdfrwt>
<pdfrwt beam="2">0</pdfrwt>
<totfact> 0.34047364E+01</totfact>
</mgrwt>
</event>
<event>
 6    1  0.1929825E-004  0.3000000E+03  0.7818608E-02  0.1093470E+00
          1   -1    0    0  502    0  0.00000000000E+00  0.00000000000E+00  0.52187682647E+02  0.52187682647E+02  0.00000000000E+00 0.  1.
         13   -1    0    0    0    0 -0.00000000000E+00 -0.00000000000E+00 -0.10000000000E+04  0.10000000000E+04  0.00000000000E+00 0.  1.
    9000005    2    1    2  501    0 -0.16885354955E+02  0.13832005956E+02 -0.96824148497E+03  0.10222913536E+04  0.32727908404E+03 0.  0.
         13    1    3    3    0    0  0.11574623008E+03 -0.83764588686E+02 -0.63126799391E+03  0.64723486945E+03  0.00000000000E+00 0.  1.
          1    1    3    3  501    0 -0.13263158504E+03  0.97596594642E+02 -0.33697349106E+03  0.37505648416E+03  0.00000000000E+00 0.  1.
         21    1    1    2  502  501  0.16885354955E+02 -0.13832005956E+02  0.20429167612E+02  0.29896329039E+02  0.00000000000E+00 0. -1.
<mgrwt>
<rscale>  1 0.30000000E+03</rscale>
<asrwt>0</asrwt>
<pdfrwt beam="1">  1        1 0.18977379E+00 0.30000000E+03</pdfrwt>
<pdfrwt beam="2">0</pdfrwt>
<totfact> 0.11462610E+01</totfact>
</mgrwt>
</event>
<event>
 6    1  0.1929825E-004  0.3000000E+03  0.7818608E-02  0.1093470E+00
          1   -1    0    0  502    0  0.00000000000E+00  0.00000000000E+00  0.44184595193E+02  0.44184595193E+02  0.00000000000E+00 0.  1.
         13   -1    0    0    0    0 -0.00000000000E+00 -0.00000000000E+00 -0.10000000000E+04  0.10000000000E+04  0.00000000000E+00 0.  1.
    9000005    2    1    2  501    0 -0.94372804701E+01  0.43000251803E+02 -0.93833622025E+03  0.99681787892E+03  0.33351602298E+03 0.  0.
         13    1    3    3    0    0 -0.10144323233E+03 -0.38132439903E+02 -0.81742033209E+03  0.82457310875E+03  0.00000000000E+00 0.  1.
          1    1    3    3  501    0  0.92005951859E+02  0.81132691707E+02 -0.12091588815E+03  0.17224477016E+03  0.00000000000E+00 0.  1.
         21    1    1    2  502  501  0.94372804701E+01 -0.43000251803E+02 -0.17479184561E+02  0.47366716276E+02  0.00000000000E+00 0.  1.
<mgrwt>
<rscale>  1 0.30000000E+03</rscale>
<asrwt>0</asrwt>
<pdfrwt beam="1">  1        1 0.16067159E+00 0.30000000E+03</pdfrwt>
<pdfrwt beam="2">0</pdfrwt>
<totfact> 0.15880655E+01</totfact>
</mgrwt>
</event>
<event>
 6    1  0.1929825E-004  0.3000000E+03  0.7818608E-02  0.1093470E+00
          3   -1    0    0  502    0  0.00000000000E+00  0.00000000000E+00  0.33188865972E+02  0.33188865972E+02  0.00000000000E+00 0.  1.
         13   -1    0    0    0    0 -0.00000000000E+00 -0.00000000000E+00 -0.10000000000E+04  0.10000000000E+04  0.00000000000E+00 0.  1.
    9000005    2    1    2  501    0  0.54714854281E+01  0.71027411362E+01 -0.94495731218E+03  0.10095673585E+04  0.35524856577E+03 0.  0.
         13    1    3    3    0    0 -0.29411004077E+02  0.12063944647E+03 -0.10903757515E+03  0.16525155370E+03  0.00000000000E+00 0.  1.
          3    1    3    3  501    0  0.34882489505E+02 -0.11353670533E+03 -0.83591973703E+03  0.84431580483E+03  0.00000000000E+00 0.  1.
         21    1    1    2  502  501 -0.54714854281E+01 -0.71027411362E+01 -0.21853821847E+02  0.23621507440E+02  0.00000000000E+00 0. -1.
<mgrwt>
<rscale>  1 0.30000000E+03</rscale>
<asrwt>0</asrwt>
<pdfrwt beam="1">  1        3 0.12068704E+00 0.30000000E+03</pdfrwt>
<pdfrwt beam="2">0</pdfrwt>
<totfact> 0.22709380E+00</totfact>
</mgrwt>
</event>
<event>
 6    1  0.1929825E-004  0.3000000E+03  0.7818608E-02  0.1093470E+00
          1   -1    0    0  502    0  0.00000000000E+00  0.00000000000E+00  0.26963531647E+02  0.26963531647E+02  0.00000000000E+00 0.  1.
         13   -1    0    0    0    0 -0.00000000000E+00 -0.00000000000E+00 -0.10000000000E+04  0.10000000000E+04  0.00000000000E+00 0.  1.
    9000005    2    1    2  501    0  0.11184752865E+02 -0.42560046710E+01 -0.95151382462E+03  0.10023376009E+04  0.31489505465E+03 0.  0.
         13    1    3    3    0    0  0.11439886804E+02  0.15434923262E+03 -0.52265731933E+03  0.54509194643E+03  0.00000000000E+00 0.  1.
          3    1    3    3  501    0 -0.25513393842E+00 -0.15860523729E+03 -0.42885650529E+03  0.45724565445E+03  0.00000000000E+00 0.  1.
         21    1    1    2  502  501 -0.11184752865E+02  0.42560046710E+01 -0.21522643737E+02  0.24625930761E+02  0.00000000000E+00 0.  1.
<mgrwt>
<rscale>  1 0.30000000E+03</rscale>
<asrwt>0</asrwt>
<pdfrwt beam="1">  1        1 0.98049413E-01 0.30000000E+03</pdfrwt>
<pdfrwt beam="2">0</pdfrwt>
<totfact> 0.35224006E+01</totfact>
</mgrwt>
</event>
<event>
 6    1  0.1929825E-004  0.3000000E+03  0.7818608E-02  0.1093470E+00
          1   -1    0    0  502    0  0.00000000000E+00  0.00000000000E+00  0.48864992958E+02  0.48864992958E+02  0.00000000000E+00 0.  1.
         13   -1    0    0    0    0 -0.00000000000E+00 -0.00000000000E+00 -0.10000000000E+04  0.10000000000E+04  0.00000000000E+00 0.  1.
    9000005    2    1    2  501    0 -0.65327808140E+00  0.17511008398E+02 -0.96978846148E+03  0.10232717605E+04  0.32601897725E+03 0.  0.
         13    1    3    3    0    0  0.11674082072E+03  0.12163212270E+03 -0.46253145949E+03  0.49229883558E+03  0.00000000000E+00 0.  1.
          3    1    3    3  501    0 -0.11739409881E+03 -0.10412111430E+03 -0.50725700199E+03  0.53097292487E+03  0.00000000000E+00 0.  1.
         21    1    1    2  502  501  0.65327808140E+00 -0.17511008398E+02  0.18653454443E+02  0.25593232504E+02  0.00000000000E+00 0.  1.
<mgrwt>
<rscale>  1 0.30000000E+03</rscale>
<asrwt>0</asrwt>
<pdfrwt beam="1">  1        1 0.17769126E+00 0.30000000E+03</pdfrwt>
<pdfrwt beam="2">0</pdfrwt>
<totfact> 0.13107576E+01</totfact>
</mgrwt>
</event>
<event>
 6    1  0.1929825E-004  0.3000000E+03  0.7818608E-02  0.1093470E+00
          1   -1    0    0  502    0  0.00000000000E+00  0.00000000000E+00  0.47037380656E+02  0.47037380656E+02  0.00000000000E+00 0.  1.
         13   -1    0    0    0    0 -0.00000000000E+00 -0.00000000000E+00 -0.10000000000E+04  0.10000000000E+04  0.00000000000E+00 0.  1.
    9000005    2    1    2  501    0  0.41041935844E+02 -0.79766294734E+02 -0.73254804124E+03  0.80906744870E+03  0.33153642568E+03 0.  0.
         13    1    3    3    0    0  0.52799080927E+02  0.87211012742E+02 -0.55796391062E+03  0.56720122465E+03  0.00000000000E+00 0.  1.
          3    1    3    3  501    0 -0.11757145084E+02 -0.16697730748E+03 -0.17458413061E+03  0.24186622405E+03  0.00000000000E+00 0.  1.
         21    1    1    2  502  501 -0.41041935844E+02  0.79766294734E+02 -0.22041457811E+03  0.23796993196E+03  0.00000000000E+00 0.  1.
<mgrwt>
<rscale>  1 0.30000000E+03</rscale>
<asrwt>0</asrwt>
<pdfrwt beam="1">  1        1 0.17104538E+00 0.30000000E+03</pdfrwt>
<pdfrwt beam="2">0</pdfrwt>
<totfact> 0.14120217E+01</totfact>
</mgrwt>
</event>
<event>
 6    1  0.1929825E-004  0.3000000E+03  0.7818608E-02  0.1093470E+00
          1   -1    0    0  502    0  0.00000000000E+00  0.00000000000E+00  0.40216304466E+02  0.40216304466E+02  0.00000000000E+00 0.  1.
         13   -1    0    0    0    0 -0.00000000000E+00 -0.00000000000E+00 -0.10000000000E+04  0.10000000000E+04  0.00000000000E+00 0.  1.
    9000005    2    1    2  501    0 -0.17421425008E+02  0.15229877349E+01 -0.96712572097E+03  0.10212497318E+04  0.32758667403E+03 0.  0.
         13    1    3    3    0    0 -0.38826055624E+02  0.61286816065E+02 -0.95358435385E+03  0.95634024088E+03  0.00000000000E+00 0.  1.
          1    1    3    3  501    0  0.21404630616E+02 -0.59763828330E+02 -0.13541367121E+02  0.64909490924E+02  0.00000000000E+00 0.  1.
         21    1    1    2  502  501  0.17421425008E+02 -0.15229877349E+01  0.73420254398E+01  0.18966572661E+02  0.00000000000E+00 0.  1.
<mgrwt>
<rscale>  1 0.30000000E+03</rscale>
<asrwt>0</asrwt>
<pdfrwt beam="1">  1        1 0.14624142E+00 0.30000000E+03</pdfrwt>
<pdfrwt beam="2">0</pdfrwt>
<totfact> 0.18777679E+01</totfact>
</mgrwt>
</event>
<event>
 6    1  0.1929825E-004  0.3000000E+03  0.7818608E-02  0.1093470E+00
          1   -1    0    0  502    0  0.00000000000E+00  0.00000000000E+00  0.30012537834E+02  0.30012537834E+02  0.00000000000E+00 0.  1.
         13   -1    0    0    0    0 -0.00000000000E+00 -0.00000000000E+00 -0.10000000000E+04  0.10000000000E+04  0.00000000000E+00 0.  1.
    9000005    2    1    2  501    0 -0.76570831655E+01 -0.23722239461E+02 -0.91818912076E+03  0.97252824659E+03  0.31955993704E+03 0.  0.
         13    1    3    3    0    0  0.58549032566E+02  0.46831697116E+02 -0.32744486945E+02  0.81813192667E+02  0.00000000000E+00 0.  1.
          3    1    3    3  501    0 -0.66206115731E+02 -0.70553936577E+02 -0.88544463382E+03  0.89071505392E+03  0.00000000000E+00 0.  1.
         21    1    1    2  502  501  0.76570831655E+01  0.23722239461E+02 -0.51798341406E+02  0.57484291246E+02  0.00000000000E+00 0.  1.
<mgrwt>
<rscale>  1 0.30000000E+03</rscale>
<asrwt>0</asrwt>
<pdfrwt beam="1">  1        1 0.10913673E+00 0.30000000E+03</pdfrwt>
<pdfrwt beam="2">0</pdfrwt>
<totfact> 0.30064619E+01</totfact>
</mgrwt>
</event>
<event>
 6    1  0.1929825E-004  0.3000000E+03  0.7818608E-02  0.1093470E+00
          1   -1    0    0  502    0  0.00000000000E+00  0.00000000000E+00  0.86132441474E+02  0.86132441474E+02  0.00000000000E+00 0.  1.
         13   -1    0    0    0    0 -0.00000000000E+00 -0.00000000000E+00 -0.10000000000E+04  0.10000000000E+04  0.00000000000E+00 0.  1.
    9000005    2    1    2  501    0  0.43033837704E+02  0.87840286111E+02 -0.92981997333E+03  0.98702489085E+03  0.31636233232E+03 0.  0.
         13    1    3    3    0    0 -0.85320728199E+02  0.14635136298E+03 -0.33121539588E+03  0.37202417472E+03  0.00000000000E+00 0.  1.
          3    1    3    3  501    0  0.12835456590E+03 -0.58511076870E+02 -0.59860457745E+03  0.61500071613E+03  0.00000000000E+00 0.  1.
         21    1    1    2  502  501 -0.43033837704E+02 -0.87840286111E+02  0.15952414803E+02  0.99107550619E+02  0.00000000000E+00 0.  1.
<mgrwt>
<rscale>  1 0.30000000E+03</rscale>
<asrwt>0</asrwt>
<pdfrwt beam="1">  1        1 0.31320954E+00 0.30000000E+03</pdfrwt>
<pdfrwt beam="2">0</pdfrwt>
<totfact> 0.30040021E+00</totfact>
</mgrwt>
</event>
<event>
 6    1  0.1929825E-004  0.3000000E+03  0.7818608E-02  0.1093470E+00
          3   -1    0    0  502    0  0.00000000000E+00  0.00000000000E+00  0.39795745677E+02  0.39795745677E+02  0.00000000000E+00 0.  1.
         13   -1    0    0    0    0 -0.00000000000E+00 -0.00000000000E+00 -0.10000000000E+04  0.10000000000E+04  0.00000000000E+00 0.  1.
    9000005    2    1    2  501    0  0.60481464170E+01 -0.24652965682E+02 -0.89784235061E+03  0.97246554571E+03  0.37272510281E+03 0.  0.
         13    1    3    3    0    0 -0.76650500642E+02 -0.22870734450E+02 -0.98100865428E+01  0.80589127933E+02  0.00000000000E+00 0.  1.
          1    1    3    3  501    0  0.82698647059E+02 -0.17822312320E+01 -0.88803226406E+03  0.89187641778E+03  0.00000000000E+00 0.  1.
         21    1    1    2  502  501 -0.60481464170E+01  0.24652965682E+02 -0.62361903718E+02  0.67330199965E+02  0.00000000000E+00 0. -1.
<mgrwt>
<rscale>  1 0.30000000E+03</rscale>
<asrwt>0</asrwt>
<pdfrwt beam="1">  1        3 0.14471211E+00 0.30000000E+03</pdfrwt>
<pdfrwt beam="2">0</pdfrwt>
<totfact> 0.11652240E+00</totfact>
</mgrwt>
</event>
<event>
 6    1  0.1929825E-004  0.3000000E+03  0.7818608E-02  0.1093470E+00
          1   -1    0    0  502    0  0.00000000000E+00  0.00000000000E+00  0.27214921270E+02  0.27214921270E+02  0.00000000000E+00 0.  1.
         13   -1    0    0    0    0 -0.00000000000E+00 -0.00000000000E+00 -0.10000000000E+04  0.10000000000E+04  0.00000000000E+00 0.  1.
    9000005    2    1    2  501    0  0.33996943552E+01 -0.21085859544E+02 -0.95584498614E+03  0.99995436127E+03  0.29293841623E+03 0.  0.
         13    1    3    3    0    0  0.10493048085E+03 -0.10845185866E+03 -0.38297097513E+03  0.41162966275E+03  0.00000000000E+00 0.  1.
          3    1    3    3  501    0 -0.10153078650E+03  0.87365999111E+02 -0.57287401101E+03  0.58832469853E+03  0.00000000000E+00 0.  1.
         21    1    1    2  502  501 -0.33996943552E+01  0.21085859544E+02 -0.16940092586E+02  0.27260559995E+02  0.00000000000E+00 0. -1.
<mgrwt>
<rscale>  1 0.30000000E+03</rscale>
<asrwt>0</asrwt>
<pdfrwt beam="1">  1        1 0.98963559E-01 0.30000000E+03</pdfrwt>
<pdfrwt beam="2">0</pdfrwt>
<totfact> 0.34751471E+01</totfact>
</mgrwt>
</event>
<event>
 6    1  0.1929825E-004  0.3000000E+03  0.7818608E-02  0.1093470E+00
          1   -1    0    0  502    0  0.00000000000E+00  0.00000000000E+00  0.60193780670E+02  0.60193780670E+02  0.00000000000E+00 0.  1.
         13   -1    0    0    0    0 -0.00000000000E+00 -0.00000000000E+00 -0.10000000000E+04  0.10000000000E+04  0.00000000000E+00 0.  1.
    9000005    2    1    2  501    0  0.10843125669E+02  0.86130294327E+01 -0.97199310086E+03  0.10251544743E+04  0.32554469793E+03 0.  0.
         13    1    3    3    0    0  0.16714711749E+03  0.21472719919E+02 -0.47543008644E+03  0.50441352448E+03  0.00000000000E+00 0.  1.
          1    1    3    3  501    0 -0.15630399182E+03 -0.12859690487E+02 -0.49656301442E+03  0.52074094979E+03  0.00000000000E+00 0.  1.
         21    1    1    2  502  501 -0.10843125669E+02 -0.86130294327E+01  0.32186881530E+02  0.35039306399E+02  0.00000000000E+00 0.  1.
<mgrwt>
<rscale>  1 0.30000000E+03</rscale>
<asrwt>0</asrwt>
<pdfrwt beam="1">  1        1 0.21888694E+00 0.30000000E+03</pdfrwt>
<pdfrwt beam="2">0</pdfrwt>
<totfact> 0.83429392E+00</totfact>
</mgrwt>
</event>
<event>
 6    1  0.1929825E-004  0.3000000E+03  0.7818608E-02  0.1093470E+00
          1   -1    0    0  502    0  0.00000000000E+00  0.00000000000E+00  0.41688628965E+02  0.41688628965E+02  0.00000000000E+00 0.  1.
         13   -1    0    0    0    0 -0.00000000000E+00 -0.00000000000E+00 -0.10000000000E+04  0.10000000000E+04  0.00000000000E+00 0.  1.
    9000005    2    1    2  501    0  0.28513426979E+00  0.12682287716E+02 -0.97096759320E+03  0.10237693186E+04  0.32429096350E+03 0.  0.
         13    1    3    3    0    0  0.14709600318E+03 -0.26897055946E+02 -0.29291095646E+03  0.32887309738E+03  0.00000000000E+00 0.  1.
          3    1    3    3  501    0 -0.14681086891E+03  0.39579343662E+02 -0.67805663674E+03  0.69489622125E+03  0.00000000000E+00 0.  1.
         21    1    1    2  502  501 -0.28513426979E+00 -0.12682287716E+02  0.12656222165E+02  0.17919310331E+02  0.00000000000E+00 0.  1.
<mgrwt>
<rscale>  1 0.30000000E+03</rscale>
<asrwt>0</asrwt>
<pdfrwt beam="1">  1        1 0.15159533E+00 0.30000000E+03</pdfrwt>
<pdfrwt beam="2">0</pdfrwt>
<totfact> 0.17633226E+01</totfact>
</mgrwt>
</event>
<event>
 6    1  0.1929825E-004  0.3000000E+03  0.7818608E-02  0.1093470E+00
          1   -1    0    0  502    0  0.00000000000E+00  0.00000000000E+00  0.61372746312E+02  0.61372746312E+02  0.00000000000E+00 0.  1.
         13   -1    0    0    0    0 -0.00000000000E+00 -0.00000000000E+00 -0.10000000000E+04  0.10000000000E+04  0.00000000000E+00 0.  1.
    9000005    2    1    2  501    0  0.18310378714E+02  0.55037406148E+02 -0.94466487417E+03  0.10030560343E+04  0.33221272900E+03 0.  0.
         13    1    3    3    0    0 -0.41552094513E+02  0.11395671805E+02  0.11044751020E+02  0.44479483129E+02  0.00000000000E+00 0.  1.
          3    1    3    3  501    0  0.59862473228E+02  0.43641734343E+02 -0.95570962519E+03  0.95857655112E+03  0.00000000000E+00 0.  1.
         21    1    1    2  502  501 -0.18310378714E+02 -0.55037406148E+02  0.60376204859E+01  0.58316712059E+02  0.00000000000E+00 0. -1.
<mgrwt>
<rscale>  1 0.30000000E+03</rscale>
<asrwt>0</asrwt>
<pdfrwt beam="1">  1        1 0.22317409E+00 0.30000000E+03</pdfrwt>
<pdfrwt beam="2">0</pdfrwt>
<totfact> 0.79657330E+00</totfact>
</mgrwt>
</event>
<event>
 6    1  0.1929825E-004  0.3000000E+03  0.7818608E-02  0.1093470E+00
          1   -1    0    0  502    0  0.00000000000E+00  0.00000000000E+00  0.35841281099E+02  0.35841281099E+02  0.00000000000E+00 0.  1.
         13   -1    0    0    0    0 -0.00000000000E+00 -0.00000000000E+00 -0.10000000000E+04  0.10000000000E+04  0.00000000000E+00 0.  1.
    9000005    2    1    2  501    0 -0.74557772548E+01  0.94303458026E+01 -0.96861227137E+03  0.10230212122E+04  0.32896526925E+03 0.  0.
         13    1    3    3    0    0  0.55008100227E+02 -0.10907658745E+03 -0.79192313910E+03  0.80129011679E+03  0.00000000000E+00 0.  1.
          1    1    3    3  501    0 -0.62463877482E+02  0.11850693326E+03 -0.17668913226E+03  0.22173109543E+03  0.00000000000E+00 0.  1.
         21    1    1    2  502  501  0.74557772548E+01 -0.94303458026E+01  0.44535524680E+01  0.12820068877E+02  0.00000000000E+00 0. -1.
<mgrwt>
<rscale>  1 0.30000000E+03</rscale>
<asrwt>0</asrwt>
<pdfrwt beam="1">  1        1 0.13033221E+00 0.30000000E+03</pdfrwt>
<pdfrwt beam="2">0</pdfrwt>
<totfact> 0.22784744E+01</totfact>
</mgrwt>
</event>
<event>
 6    1  0.1929825E-004  0.3000000E+03  0.7818608E-02  0.1093470E+00
          1   -1    0    0  502    0  0.00000000000E+00  0.00000000000E+00  0.37501434546E+02  0.37501434546E+02  0.00000000000E+00 0.  1.
         13   -1    0    0    0    0 -0.00000000000E+00 -0.00000000000E+00 -0.10000000000E+04  0.10000000000E+04  0.00000000000E+00 0.  1.
    9000005    2    1    2  501    0 -0.94652928713E+01  0.18724601794E+02 -0.95317271801E+03  0.10145411664E+04  0.34686502496E+03 0.  0.
         13    1    3    3    0    0 -0.12418103770E+03 -0.78500408812E+01 -0.11925035516E+03  0.17234616466E+03  0.00000000000E+00 0.  1.
          1    1    3    3  501    0  0.11471574483E+03  0.26574642676E+02 -0.83392236285E+03  0.84219500177E+03  0.00000000000E+00 0.  1.
         21    1    1    2  502  501  0.94652928713E+01 -0.18724601794E+02 -0.93258474477E+01  0.22960268119E+02  0.00000000000E+00 0.  1.
<mgrwt>
<rscale>  1 0.30000000E+03</rscale>
<asrwt>0</asrwt>
<pdfrwt beam="1">  1        1 0.13636914E+00 0.30000000E+03</pdfrwt>
<pdfrwt beam="2">0</pdfrwt>
<totfact> 0.21144608E+01</totfact>
</mgrwt>
</event>
<event>
 6    1  0.1929825E-004  0.3000000E+03  0.7818608E-02  0.1093470E+00
          1   -1    0    0  502    0  0.00000000000E+00  0.00000000000E+00  0.67200437629E+02  0.67200437629E+02  0.00000000000E+00 0.  1.
         13   -1    0    0    0    0 -0.00000000000E+00 -0.00000000000E+00 -0.10000000000E+04  0.10000000000E+04  0.00000000000E+00 0.  1.
    9000005    2    1    2  501    0 -0.22690641945E+02 -0.38525175162E+01 -0.97470673356E+03  0.10193891615E+04  0.29760937336E+03 0.  0.
         13    1    3    3    0    0  0.45707151376E+02  0.96291048841E+02 -0.79790402921E+03  0.80499189412E+03  0.00000000000E+00 0.  1.
          3    1    3    3  501    0 -0.68397793321E+02 -0.10014356636E+03 -0.17680270435E+03  0.21439726743E+03  0.00000000000E+00 0.  1.
         21    1    1    2  502  501  0.22690641945E+02  0.38525175162E+01  0.41907171191E+02  0.47811276079E+02  0.00000000000E+00 0.  1.
<mgrwt>
<rscale>  1 0.30000000E+03</rscale>
<asrwt>0</asrwt>
<pdfrwt beam="1">  1        1 0.24436574E+00 0.30000000E+03</pdfrwt>
<pdfrwt beam="2">0</pdfrwt>
<totfact> 0.63382634E+00</totfact>
</mgrwt>
</event>
<event>
 6    1  0.1929825E-004  0.3000000E+03  0.7818608E-02  0.1093470E+00
          1   -1    0    0  502    0  0.00000000000E+00  0.00000000000E+00  0.27562889132E+02  0.27562889132E+02  0.00000000000E+00 0.  1.
         13   -1    0    0    0    0 -0.00000000000E+00 -0.00000000000E+00 -0.10000000000E+04  0.10000000000E+04  0.00000000000E+00 0.  1.
    9000005    2    1    2  501    0  0.51350596237E+00  0.11587755143E+02 -0.94656234797E+03  0.99920723515E+03  0.31984415021E+03 0.  0.
         13    1    3    3    0    0  0.99782843420E+02  0.83705291834E+02 -0.78812009181E+03  0.79880940833E+03  0.00000000000E+00 0.  1.
          3    1    3    3  501    0 -0.99269337458E+02 -0.72117536691E+02 -0.15844225617E+03  0.20039782683E+03  0.00000000000E+00 0.  1.
         21    1    1    2  502  501 -0.51350596237E+00 -0.11587755143E+02 -0.25874762895E+02  0.28355653978E+02  0.00000000000E+00 0. -1.
<mgrwt>
<rscale>  1 0.30000000E+03</rscale>
<asrwt>0</asrwt>
<pdfrwt beam="1">  1        1 0.10022890E+00 0.30000000E+03</pdfrwt>
<pdfrwt beam="2">0</pdfrwt>
<totfact> 0.34112681E+01</totfact>
</mgrwt>
</event>
<event>
 6    1  0.1929825E-004  0.3000000E+03  0.7818608E-02  0.1093470E+00
          1   -1    0    0  502    0  0.00000000000E+00  0.00000000000E+00  0.34142574707E+02  0.34142574707E+02  0.00000000000E+00 0.  1.
         13   -1    0    0    0    0 -0.00000000000E+00 -0.00000000000E+00 -0.10000000000E+04  0.10000000000E+04  0.00000000000E+00 0.  1.
    9000005    2    1    2  501    0  0.45308638485E+01  0.23636622224E+02 -0.95275204955E+03  0.10067387518E+04  0.32435663672E+03 0.  0.
         13    1    3    3    0    0 -0.14133137106E+03  0.67600870084E+02 -0.63943857586E+03  0.65835106621E+03  0.00000000000E+00 0.  1.
          1    1    3    3  501    0  0.14586223491E+03 -0.43964247860E+02 -0.31331347369E+03  0.34838768557E+03  0.00000000000E+00 0.  1.
         21    1    1    2  502  501 -0.45308638485E+01 -0.23636622224E+02 -0.13105375743E+02  0.27403822922E+02  0.00000000000E+00 0. -1.
<mgrwt>
<rscale>  1 0.30000000E+03</rscale>
<asrwt>0</asrwt>
<pdfrwt beam="1">  1        1 0.12415508E+00 0.30000000E+03</pdfrwt>
<pdfrwt beam="2">0</pdfrwt>
<totfact> 0.24638615E+01</totfact>
</mgrwt>
</event>
<event>
 6    1  0.1929825E-004  0.3000000E+03  0.7818608E-02  0.1093470E+00
          3   -1    0    0  502    0  0.00000000000E+00  0.00000000000E+00  0.33605997319E+02  0.33605997319E+02  0.00000000000E+00 0.  1.
         13   -1    0    0    0    0 -0.00000000000E+00 -0.00000000000E+00 -0.10000000000E+04  0.10000000000E+04  0.00000000000E+00 0.  1.
    9000005    2    1    2  501    0  0.61564149073E+01  0.95757243196E+01 -0.96938793734E+03  0.10218348638E+04  0.32296117379E+03 0.  0.
         13    1    3    3    0    0 -0.10959030140E+03  0.92768551748E+02 -0.24858079088E+03  0.28706871642E+03  0.00000000000E+00 0.  1.
          1    1    3    3  501    0  0.11574671631E+03 -0.83192827429E+02 -0.72080714646E+03  0.73476614733E+03  0.00000000000E+00 0.  1.
         21    1    1    2  502  501 -0.61564149073E+01 -0.95757243196E+01  0.29939346588E+01  0.11771133569E+02  0.00000000000E+00 0.  1.
<mgrwt>
<rscale>  1 0.30000000E+03</rscale>
<asrwt>0</asrwt>
<pdfrwt beam="1">  1        3 0.12220388E+00 0.30000000E+03</pdfrwt>
<pdfrwt beam="2">0</pdfrwt>
<totfact> 0.21806929E+00</totfact>
</mgrwt>
</event>
<event>
 6    1  0.1929825E-004  0.3000000E+03  0.7818608E-02  0.1093470E+00
          1   -1    0    0  502    0  0.00000000000E+00  0.00000000000E+00  0.78166147583E+02  0.78166147583E+02  0.00000000000E+00 0.  1.
         13   -1    0    0    0    0 -0.00000000000E+00 -0.00000000000E+00 -0.10000000000E+04  0.10000000000E+04  0.00000000000E+00 0.  1.
    9000005    2    1    2  501    0 -0.46503839276E+02 -0.92511699099E+02 -0.91502222482E+03  0.97439996905E+03  0.31854137287E+03 0.  0.
         13    1    3    3    0    0  0.88382343863E+02 -0.15638604032E+03 -0.40632488956E+03  0.44426112613E+03  0.00000000000E+00 0.  1.
          1    1    3    3  501    0 -0.13488618314E+03  0.63874341225E+02 -0.50869733526E+03  0.53013884292E+03  0.00000000000E+00 0.  1.
         21    1    1    2  502  501  0.46503839276E+02  0.92511699099E+02 -0.68116275992E+01  0.10376617854E+03  0.00000000000E+00 0.  1.
<mgrwt>
<rscale>  1 0.30000000E+03</rscale>
<asrwt>0</asrwt>
<pdfrwt beam="1">  1        1 0.28424114E+00 0.30000000E+03</pdfrwt>
<pdfrwt beam="2">0</pdfrwt>
<totfact> 0.41247430E+00</totfact>
</mgrwt>
</event>
<event>
 6    1  0.1929825E-004  0.3000000E+03  0.7818608E-02  0.1093470E+00
          1   -1    0    0  502    0  0.00000000000E+00  0.00000000000E+00  0.27868637515E+02  0.27868637515E+02  0.00000000000E+00 0.  1.
         13   -1    0    0    0    0 -0.00000000000E+00 -0.00000000000E+00 -0.10000000000E+04  0.10000000000E+04  0.00000000000E+00 0.  1.
    9000005    2    1    2  501    0 -0.46966940914E+01  0.97880967510E+01 -0.93907594116E+03  0.99307601398E+03  0.32282887186E+03 0.  0.
         13    1    3    3    0    0 -0.15780233971E+03  0.48500157456E+02 -0.48029273637E+03  0.50787297261E+03  0.00000000000E+00 0.  1.
          1    1    3    3  501    0  0.15310564562E+03 -0.38712060705E+02 -0.45878320478E+03  0.48520304137E+03  0.00000000000E+00 0.  1.
         21    1    1    2  502  501  0.46966940914E+01 -0.97880967510E+01 -0.33055421327E+02  0.34792623535E+02  0.00000000000E+00 0.  1.
<mgrwt>
<rscale>  1 0.30000000E+03</rscale>
<asrwt>0</asrwt>
<pdfrwt beam="1">  1        1 0.10134071E+00 0.30000000E+03</pdfrwt>
<pdfrwt beam="2">0</pdfrwt>
<totfact> 0.33565562E+01</totfact>
</mgrwt>
</event>
<event>
 6    1  0.1929825E-004  0.3000000E+03  0.7818608E-02  0.1093470E+00
          1   -1    0    0  502    0  0.00000000000E+00  0.00000000000E+00  0.29984155529E+02  0.29984155529E+02  0.00000000000E+00 0.  1.
         13   -1    0    0    0    0 -0.00000000000E+00 -0.00000000000E+00 -0.10000000000E+04  0.10000000000E+04  0.00000000000E+00 0.  1.
    9000005    2    1    2  501    0 -0.12287313871E+02  0.11500097611E+02 -0.94917510271E+03  0.10031967173E+04  0.32432552746E+03 0.  0.
         13    1    3    3    0    0  0.54444359064E+02 -0.12057829873E+03 -0.20172510012E+03  0.24123915598E+03  0.00000000000E+00 0.  1.
          3    1    3    3  501    0 -0.66731672935E+02  0.13207839634E+03 -0.74745000260E+03  0.76195756137E+03  0.00000000000E+00 0.  1.
         21    1    1    2  502  501  0.12287313871E+02 -0.11500097611E+02 -0.20840741757E+02  0.26787438180E+02  0.00000000000E+00 0.  1.
<mgrwt>
<rscale>  1 0.30000000E+03</rscale>
<asrwt>0</asrwt>
<pdfrwt beam="1">  1        1 0.10903352E+00 0.30000000E+03</pdfrwt>
<pdfrwt beam="2">0</pdfrwt>
<totfact> 0.30107462E+01</totfact>
</mgrwt>
</event>
<event>
 6    1  0.1929825E-004  0.3000000E+03  0.7818608E-02  0.1093470E+00
          1   -1    0    0  502    0  0.00000000000E+00  0.00000000000E+00  0.32942190509E+02  0.32942190509E+02  0.00000000000E+00 0.  1.
         13   -1    0    0    0    0 -0.00000000000E+00 -0.00000000000E+00 -0.10000000000E+04  0.10000000000E+04  0.00000000000E+00 0.  1.
    9000005    2    1    2  501    0  0.81257769042E+01  0.33535868103E+02 -0.90407118217E+03  0.96112298750E+03  0.32437942594E+03 0.  0.
         13    1    3    3    0    0  0.68976196882E+01  0.50051145064E+02  0.60196100992E+01  0.50881528921E+02  0.00000000000E+00 0.  1.
          1    1    3    3  501    0  0.12281572160E+01 -0.16515276961E+02 -0.91009079227E+03  0.91024145858E+03  0.00000000000E+00 0.  1.
         21    1    1    2  502  501 -0.81257769042E+01 -0.33535868103E+02 -0.62986627323E+02  0.71819203011E+02  0.00000000000E+00 0. -1.
<mgrwt>
<rscale>  1 0.30000000E+03</rscale>
<asrwt>0</asrwt>
<pdfrwt beam="1">  1        1 0.11979004E+00 0.30000000E+03</pdfrwt>
<pdfrwt beam="2">0</pdfrwt>
<totfact> 0.26067213E+01</totfact>
</mgrwt>
</event>
<event>
 6    1  0.1929825E-004  0.3000000E+03  0.7818608E-02  0.1093470E+00
          1   -1    0    0  502    0  0.00000000000E+00  0.00000000000E+00  0.53486204446E+02  0.53486204446E+02  0.00000000000E+00 0.  1.
         13   -1    0    0    0    0 -0.00000000000E+00 -0.00000000000E+00 -0.10000000000E+04  0.10000000000E+04  0.00000000000E+00 0.  1.
    9000005    2    1    2  501    0 -0.10958722974E+03  0.22667873803E+01 -0.80955230301E+03  0.87806400036E+03  0.32188034760E+03 0.  0.
         13    1    3    3    0    0 -0.22133203969E+03  0.25993721556E+02 -0.47834438111E+03  0.52770909818E+03  0.00000000000E+00 0.  1.
          3    1    3    3  501    0  0.11174480995E+03 -0.23726934175E+02 -0.33120792189E+03  0.35035490218E+03  0.00000000000E+00 0.  1.
         21    1    1    2  502  501  0.10958722974E+03 -0.22667873803E+01 -0.13696149255E+03  0.17542220409E+03  0.00000000000E+00 0.  1.
<mgrwt>
<rscale>  1 0.30000000E+03</rscale>
<asrwt>0</asrwt>
<pdfrwt beam="1">  1        1 0.19449570E+00 0.30000000E+03</pdfrwt>
<pdfrwt beam="2">0</pdfrwt>
<totfact> 0.10880895E+01</totfact>
</mgrwt>
</event>
<event>
 6    1  0.1929825E-004  0.3000000E+03  0.7818608E-02  0.1093470E+00
          1   -1    0    0  502    0  0.00000000000E+00  0.00000000000E+00  0.49889006471E+02  0.49889006471E+02  0.00000000000E+00 0.  1.
         13   -1    0    0    0    0 -0.00000000000E+00 -0.00000000000E+00 -0.10000000000E+04  0.10000000000E+04  0.00000000000E+00 0.  1.
    9000005    2    1    2  501    0  0.74057868584E+02 -0.38387075806E+02 -0.86537604653E+03  0.93098506738E+03  0.33301555263E+03 0.  0.
         13    1    3    3    0    0  0.10403351809E+03  0.13147639364E+03 -0.36366596319E+03  0.40045217911E+03  0.00000000000E+00 0.  1.
          3    1    3    3  501    0 -0.29975649505E+02 -0.16986346944E+03 -0.50171008333E+03  0.53053288827E+03  0.00000000000E+00 0.  1.
         21    1    1    2  502  501 -0.74057868584E+02  0.38387075806E+02 -0.84734947002E+02  0.11890393909E+03  0.00000000000E+00 0.  1.
<mgrwt>
<rscale>  1 0.30000000E+03</rscale>
<asrwt>0</asrwt>
<pdfrwt beam="1">  1        1 0.18141495E+00 0.30000000E+03</pdfrwt>
<pdfrwt beam="2">0</pdfrwt>
<totfact> 0.12574867E+01</totfact>
</mgrwt>
</event>
<event>
 6    1  0.1929825E-004  0.3000000E+03  0.7818608E-02  0.1093470E+00
          1   -1    0    0  502    0  0.00000000000E+00  0.00000000000E+00  0.29935197116E+02  0.29935197116E+02  0.00000000000E+00 0.  1.
         13   -1    0    0    0    0 -0.00000000000E+00 -0.00000000000E+00 -0.10000000000E+04  0.10000000000E+04  0.00000000000E+00 0.  1.
    9000005    2    1    2  501    0 -0.13712307737E+02  0.10454002012E+02 -0.96261237525E+03  0.10111508361E+04  0.30904063616E+03 0.  0.
         13    1    3    3    0    0 -0.99672186139E+02 -0.34921041813E+02 -0.10809978458E+03  0.15112771843E+03  0.00000000000E+00 0.  1.
          3    1    3    3  501    0  0.85959878402E+02  0.45375043825E+02 -0.85451259067E+03  0.86002311766E+03  0.00000000000E+00 0.  1.
         21    1    1    2  502  501  0.13712307737E+02 -0.10454002012E+02 -0.74524276335E+01  0.18784361027E+02  0.00000000000E+00 0.  1.
<mgrwt>
<rscale>  1 0.30000000E+03</rscale>
<asrwt>0</asrwt>
<pdfrwt beam="1">  1        1 0.10885549E+00 0.30000000E+03</pdfrwt>
<pdfrwt beam="2">0</pdfrwt>
<totfact> 0.30181569E+01</totfact>
</mgrwt>
</event>
<event>
 6    1  0.1929825E-004  0.3000000E+03  0.7818608E-02  0.1093470E+00
          1   -1    0    0  502    0  0.00000000000E+00  0.00000000000E+00  0.60828309339E+02  0.60828309339E+02  0.00000000000E+00 0.  1.
         13   -1    0    0    0    0 -0.00000000000E+00 -0.00000000000E+00 -0.10000000000E+04  0.10000000000E+04  0.00000000000E+00 0.  1.
    9000005    2    1    2  501    0  0.87032731814E+01  0.19814405029E+02 -0.96679468170E+03  0.10257371816E+04  0.34201820356E+03 0.  0.
         13    1    3    3    0    0  0.78334062583E+01  0.63243348446E+02 -0.97864057824E+03  0.98071324288E+03  0.00000000000E+00 0.  1.
          3    1    3    3  501    0  0.86986692307E+00 -0.43428943418E+02  0.11845896536E+02  0.45023938739E+02  0.00000000000E+00 0.  1.
         21    1    1    2  502  501 -0.87032731814E+01 -0.19814405029E+02  0.27622991043E+02  0.35091127723E+02  0.00000000000E+00 0.  1.
<mgrwt>
<rscale>  1 0.30000000E+03</rscale>
<asrwt>0</asrwt>
<pdfrwt beam="1">  1        1 0.22119432E+00 0.30000000E+03</pdfrwt>
<pdfrwt beam="2">0</pdfrwt>
<totfact> 0.81377001E+00</totfact>
</mgrwt>
</event>
<event>
 6    1  0.1929825E-004  0.3000000E+03  0.7818608E-02  0.1093470E+00
          1   -1    0    0  502    0  0.00000000000E+00  0.00000000000E+00  0.65430193865E+02  0.65430193865E+02  0.00000000000E+00 0.  1.
         13   -1    0    0    0    0 -0.00000000000E+00 -0.00000000000E+00 -0.10000000000E+04  0.10000000000E+04  0.00000000000E+00 0.  1.
    9000005    2    1    2  501    0 -0.87561506696E+02  0.95195564057E+02 -0.82169893797E+03  0.89376468844E+03  0.32695100670E+03 0.  0.
         13    1    3    3    0    0  0.33525649820E+02  0.15586636508E+03 -0.67721077121E+03  0.69572460184E+03  0.00000000000E+00 0.  1.
          1    1    3    3  501    0 -0.12108715652E+03 -0.60670801024E+02 -0.14448816676E+03  0.19804008661E+03  0.00000000000E+00 0.  1.
         21    1    1    2  502  501  0.87561506696E+02 -0.95195564057E+02 -0.11287086817E+03  0.17166550542E+03  0.00000000000E+00 0.  1.
<mgrwt>
<rscale>  1 0.30000000E+03</rscale>
<asrwt>0</asrwt>
<pdfrwt beam="1">  1        1 0.23792848E+00 0.30000000E+03</pdfrwt>
<pdfrwt beam="2">0</pdfrwt>
<totfact> 0.67941055E+00</totfact>
</mgrwt>
</event>
<event>
 6    1  0.1929825E-004  0.3000000E+03  0.7818608E-02  0.1093470E+00
          1   -1    0    0  502    0  0.00000000000E+00  0.00000000000E+00  0.36209697202E+02  0.36209697202E+02  0.00000000000E+00 0.  1.
         13   -1    0    0    0    0 -0.00000000000E+00 -0.00000000000E+00 -0.10000000000E+04  0.10000000000E+04  0.00000000000E+00 0.  1.
    9000005    2    1    2  501    0 -0.38074434652E+02  0.36636020266E+02 -0.76508501988E+03  0.83059926455E+03  0.31897992111E+03 0.  0.
         13    1    3    3    0    0 -0.13634101264E+03 -0.21219048612E+02 -0.66408668664E+03  0.67827003998E+03  0.00000000000E+00 0.  1.
          3    1    3    3  501    0  0.98266577984E+02  0.57855068878E+02 -0.10099833324E+03  0.15232922458E+03  0.00000000000E+00 0.  1.
         21    1    1    2  502  501  0.38074434652E+02 -0.36636020266E+02 -0.19870528292E+03  0.20561043265E+03  0.00000000000E+00 0.  1.
<mgrwt>
<rscale>  1 0.30000000E+03</rscale>
<asrwt>0</asrwt>
<pdfrwt beam="1">  1        1 0.13167190E+00 0.30000000E+03</pdfrwt>
<pdfrwt beam="2">0</pdfrwt>
<totfact> 0.22406674E+01</totfact>
</mgrwt>
</event>
<event>
 6    1  0.1929825E-004  0.3000000E+03  0.7818608E-02  0.1093470E+00
          1   -1    0    0  502    0  0.00000000000E+00  0.00000000000E+00  0.38664836683E+02  0.38664836683E+02  0.00000000000E+00 0.  1.
         13   -1    0    0    0    0 -0.00000000000E+00 -0.00000000000E+00 -0.10000000000E+04  0.10000000000E+04  0.00000000000E+00 0.  1.
    9000005    2    1    2  501    0  0.44579751228E+02 -0.19886835979E+02 -0.92868879424E+03  0.97993983452E+03  0.30892776222E+03 0.  0.
         13    1    3    3    0    0 -0.41539092193E+02 -0.59814827260E+02 -0.34246195150E+02  0.80474291688E+02  0.00000000000E+00 0.  1.
          1    1    3    3  501    0  0.86118843421E+02  0.39927991281E+02 -0.89444259909E+03  0.89946554284E+03  0.00000000000E+00 0.  1.
         21    1    1    2  502  501 -0.44579751228E+02  0.19886835979E+02 -0.32646369076E+02  0.58725002160E+02  0.00000000000E+00 0.  1.
<mgrwt>
<rscale>  1 0.30000000E+03</rscale>
<asrwt>0</asrwt>
<pdfrwt beam="1">  1        1 0.14059970E+00 0.30000000E+03</pdfrwt>
<pdfrwt beam="2">0</pdfrwt>
<totfact> 0.20086407E+01</totfact>
</mgrwt>
</event>
<event>
 6    1  0.1929825E-004  0.3000000E+03  0.7818608E-02  0.1093470E+00
          1   -1    0    0  502    0  0.00000000000E+00  0.00000000000E+00  0.28401554380E+02  0.28401554380E+02  0.00000000000E+00 0.  1.
         13   -1    0    0    0    0 -0.00000000000E+00 -0.00000000000E+00 -0.10000000000E+04  0.10000000000E+04  0.00000000000E+00 0.  1.
    9000005    2    1    2  501    0 -0.55465126316E+01 -0.91904748631E+01 -0.96148926426E+03  0.10136562440E+04  0.32081481742E+03 0.  0.
         13    1    3    3    0    0  0.31870697969E+02  0.67975929847E+02 -0.34354055638E+02  0.82563124737E+02  0.00000000000E+00 0.  1.
          3    1    3    3  501    0 -0.37417210601E+02 -0.77166404710E+02 -0.92713520862E+03  0.93109311925E+03  0.00000000000E+00 0.  1.
         21    1    1    2  502  501  0.55465126316E+01  0.91904748631E+01 -0.10109181365E+02  0.14745310388E+02  0.00000000000E+00 0.  1.
<mgrwt>
<rscale>  1 0.30000000E+03</rscale>
<asrwt>0</asrwt>
<pdfrwt beam="1">  1        1 0.10327860E+00 0.30000000E+03</pdfrwt>
<pdfrwt beam="2">0</pdfrwt>
<totfact> 0.32642218E+01</totfact>
</mgrwt>
</event>
<event>
 6    1  0.1929825E-004  0.3000000E+03  0.7818608E-02  0.1093470E+00
          1   -1    0    0  502    0  0.00000000000E+00  0.00000000000E+00  0.40607039083E+02  0.40607039083E+02  0.00000000000E+00 0.  1.
         13   -1    0    0    0    0 -0.00000000000E+00 -0.00000000000E+00 -0.10000000000E+04  0.10000000000E+04  0.00000000000E+00 0.  1.
    9000005    2    1    2  501    0  0.32846131054E+02  0.58893504646E+01 -0.95376956418E+03  0.10067665993E+04  0.32060731608E+03 0.  0.
         13    1    3    3    0    0  0.15448238160E+03  0.69603215204E+02 -0.67598942026E+03  0.69690107626E+03  0.00000000000E+00 0.  1.
          3    1    3    3  501    0 -0.12163625055E+03 -0.63713864740E+02 -0.27778014392E+03  0.30986552304E+03  0.00000000000E+00 0.  1.
         21    1    1    2  502  501 -0.32846131054E+02 -0.58893504646E+01 -0.56233967366E+01  0.33840439787E+02  0.00000000000E+00 0.  1.
<mgrwt>
<rscale>  1 0.30000000E+03</rscale>
<asrwt>0</asrwt>
<pdfrwt beam="1">  1        1 0.14766227E+00 0.30000000E+03</pdfrwt>
<pdfrwt beam="2">0</pdfrwt>
<totfact> 0.18465147E+01</totfact>
</mgrwt>
</event>
<event>
 6    1  0.1929825E-004  0.3000000E+03  0.7818608E-02  0.1093470E+00
          1   -1    0    0  502    0  0.00000000000E+00  0.00000000000E+00  0.51630134304E+02  0.51630134304E+02  0.00000000000E+00 0.  1.
         13   -1    0    0    0    0 -0.00000000000E+00 -0.00000000000E+00 -0.10000000000E+04  0.10000000000E+04  0.00000000000E+00 0.  1.
    9000005    2    1    2  501    0 -0.35653061080E+02 -0.21478177629E+02 -0.95397120454E+03  0.10096321835E+04  0.32796895265E+03 0.  0.
         13    1    3    3    0    0 -0.29810285830E+02 -0.65626857320E+02 -0.96173031533E+03  0.96442767327E+03  0.00000000000E+00 0.  1.
          3    1    3    3  501    0 -0.58427752503E+01  0.44148679691E+02  0.77591107894E+01  0.45204510188E+02  0.00000000000E+00 0.  1.
         21    1    1    2  502  501  0.35653061080E+02  0.21478177629E+02  0.56013388430E+01  0.41997950848E+02  0.00000000000E+00 0.  1.
<mgrwt>
<rscale>  1 0.30000000E+03</rscale>
<asrwt>0</asrwt>
<pdfrwt beam="1">  1        1 0.18774634E+00 0.30000000E+03</pdfrwt>
<pdfrwt beam="2">0</pdfrwt>
<totfact> 0.11722522E+01</totfact>
</mgrwt>
</event>
<event>
 6    1  0.1929825E-004  0.3000000E+03  0.7818608E-02  0.1093470E+00
          1   -1    0    0  502    0  0.00000000000E+00  0.00000000000E+00  0.87245180322E+02  0.87245180322E+02  0.00000000000E+00 0.  1.
         13   -1    0    0    0    0 -0.00000000000E+00 -0.00000000000E+00 -0.10000000000E+04  0.10000000000E+04  0.00000000000E+00 0.  1.
    9000005    2    1    2  501    0  0.32205199603E+02  0.24401345327E+02 -0.96790947700E+03  0.10188738650E+04  0.31563047472E+03 0.  0.
         13    1    3    3    0    0 -0.10361701772E+03 -0.81756525598E+02 -0.27781620113E+03  0.30757512489E+03  0.00000000000E+00 0.  1.
          3    1    3    3  501    0  0.13582221733E+03  0.10615787092E+03 -0.69009327587E+03  0.71129874011E+03  0.00000000000E+00 0.  1.
         21    1    1    2  502  501 -0.32205199603E+02 -0.24401345327E+02  0.55154657321E+02  0.68371315326E+02  0.00000000000E+00 0.  1.
<mgrwt>
<rscale>  1 0.30000000E+03</rscale>
<asrwt>0</asrwt>
<pdfrwt beam="1">  1        1 0.31725587E+00 0.30000000E+03</pdfrwt>
<pdfrwt beam="2">0</pdfrwt>
<totfact> 0.28715128E+00</totfact>
</mgrwt>
</event>
<event>
 6    1  0.1929825E-004  0.3000000E+03  0.7818608E-02  0.1093470E+00
          1   -1    0    0  502    0  0.00000000000E+00  0.00000000000E+00  0.48221655888E+02  0.48221655888E+02  0.00000000000E+00 0.  1.
         13   -1    0    0    0    0 -0.00000000000E+00 -0.00000000000E+00 -0.10000000000E+04  0.10000000000E+04  0.00000000000E+00 0.  1.
    9000005    2    1    2  501    0 -0.61531574773E+01  0.18032932632E+02 -0.96795892946E+03  0.10232244691E+04  0.33118088257E+03 0.  0.
         13    1    3    3    0    0 -0.59795042644E+01 -0.12910399641E+03 -0.17969376632E+03  0.22134463178E+03  0.00000000000E+00 0.  1.
          3    1    3    3  501    0 -0.17365321291E+00  0.14713692904E+03 -0.78826516314E+03  0.80187983730E+03  0.00000000000E+00 0.  1.
         21    1    1    2  502  501  0.61531574773E+01 -0.18032932632E+02  0.16180585353E+02  0.24997186814E+02  0.00000000000E+00 0.  1.
<mgrwt>
<rscale>  1 0.30000000E+03</rscale>
<asrwt>0</asrwt>
<pdfrwt beam="1">  1        1 0.17535185E+00 0.30000000E+03</pdfrwt>
<pdfrwt beam="2">0</pdfrwt>
<totfact> 0.13454775E+01</totfact>
</mgrwt>
</event>
<event>
 6    1  0.1929825E-004  0.3000000E+03  0.7818608E-02  0.1093470E+00
          1   -1    0    0  502    0  0.00000000000E+00  0.00000000000E+00  0.30642193230E+02  0.30642193230E+02  0.00000000000E+00 0.  1.
         13   -1    0    0    0    0 -0.00000000000E+00 -0.00000000000E+00 -0.10000000000E+04  0.10000000000E+04  0.00000000000E+00 0.  1.
    9000005    2    1    2  501    0  0.65473219968E+01 -0.99408219299E+01 -0.94624569208E+03  0.10046449393E+04  0.33732603952E+03 0.  0.
         13    1    3    3    0    0 -0.75099832060E+02  0.46477619428E+02 -0.47203212606E+02  0.10014138587E+03  0.00000000000E+00 0.  1.
          1    1    3    3  501    0  0.81647154057E+02 -0.56418441358E+02 -0.89904247948E+03  0.90450355344E+03  0.00000000000E+00 0.  1.
         21    1    1    2  502  501 -0.65473219968E+01  0.99408219299E+01 -0.23112114687E+02  0.25997253918E+02  0.00000000000E+00 0. -1.
<mgrwt>
<rscale>  1 0.30000000E+03</rscale>
<asrwt>0</asrwt>
<pdfrwt beam="1">  1        1 0.11142639E+00 0.30000000E+03</pdfrwt>
<pdfrwt beam="2">0</pdfrwt>
<totfact> 0.29136013E+01</totfact>
</mgrwt>
</event>
<event>
 6    1  0.1929825E-004  0.3000000E+03  0.7818608E-02  0.1093470E+00
          1   -1    0    0  502    0  0.00000000000E+00  0.00000000000E+00  0.34900626548E+02  0.34900626548E+02  0.00000000000E+00 0.  1.
         13   -1    0    0    0    0 -0.00000000000E+00 -0.00000000000E+00 -0.10000000000E+04  0.10000000000E+04  0.00000000000E+00 0.  1.
    9000005    2    1    2  501    0 -0.68371199328E+01  0.91379900702E+01 -0.97156044912E+03  0.10217859565E+04  0.31620655519E+03 0.  0.
         13    1    3    3    0    0  0.75380984369E+02  0.40234812835E+02 -0.91110028264E+03  0.91509827778E+03  0.00000000000E+00 0.  1.
          3    1    3    3  501    0 -0.82218104302E+02 -0.31096822765E+02 -0.60460166482E+02  0.10668767873E+03  0.00000000000E+00 0.  1.
         21    1    1    2  502  501  0.68371199328E+01 -0.91379900702E+01  0.64610756692E+01  0.13114670042E+02  0.00000000000E+00 0.  1.
<mgrwt>
<rscale>  1 0.30000000E+03</rscale>
<asrwt>0</asrwt>
<pdfrwt beam="1">  1        1 0.12691164E+00 0.30000000E+03</pdfrwt>
<pdfrwt beam="2">0</pdfrwt>
<totfact> 0.23788317E+01</totfact>
</mgrwt>
</event>
<event>
 6    1  0.1929825E-004  0.3000000E+03  0.7818608E-02  0.1093470E+00
          1   -1    0    0  502    0  0.00000000000E+00  0.00000000000E+00  0.41868125930E+02  0.41868125930E+02  0.00000000000E+00 0.  1.
         13   -1    0    0    0    0 -0.00000000000E+00 -0.00000000000E+00 -0.10000000000E+04  0.10000000000E+04  0.00000000000E+00 0.  1.
    9000005    2    1    2  501    0  0.30608435507E+02  0.37258695582E+02 -0.92775213897E+03  0.98487676671E+03  0.32700631114E+03 0.  0.
         13    1    3    3    0    0  0.16475164432E+03  0.61271051224E+01 -0.69633729843E+03  0.71558806509E+03  0.00000000000E+00 0.  1.
          1    1    3    3  501    0 -0.13414320882E+03  0.31131590460E+02 -0.23141484054E+03  0.26928870162E+03  0.00000000000E+00 0.  1.
         21    1    1    2  502  501 -0.30608435507E+02 -0.37258695582E+02 -0.30379735101E+02  0.56991359217E+02  0.00000000000E+00 0.  1.
<mgrwt>
<rscale>  1 0.30000000E+03</rscale>
<asrwt>0</asrwt>
<pdfrwt beam="1">  1        1 0.15224805E+00 0.30000000E+03</pdfrwt>
<pdfrwt beam="2">0</pdfrwt>
<totfact> 0.17499673E+01</totfact>
</mgrwt>
</event>
<event>
 6    1  0.1929825E-004  0.3000000E+03  0.7818608E-02  0.1093470E+00
          1   -1    0    0  502    0  0.00000000000E+00  0.00000000000E+00  0.41408576853E+02  0.41408576853E+02  0.00000000000E+00 0.  1.
         13   -1    0    0    0    0 -0.00000000000E+00 -0.00000000000E+00 -0.10000000000E+04  0.10000000000E+04  0.00000000000E+00 0.  1.
    9000005    2    1    2  501    0 -0.21101606322E+02  0.43762934451E+02 -0.92325321114E+03  0.98133144768E+03  0.32902043419E+03 0.  0.
         13    1    3    3    0    0 -0.11634573537E+03  0.40063425609E+02 -0.11809676744E+03  0.17055279151E+03  0.00000000000E+00 0.  1.
          1    1    3    3  501    0  0.95244129053E+02  0.36995088416E+01 -0.80515644369E+03  0.81077865617E+03  0.00000000000E+00 0.  1.
         21    1    1    2  502  501  0.21101606322E+02 -0.43762934451E+02 -0.35338212011E+02  0.60077129169E+02  0.00000000000E+00 0.  1.
<mgrwt>
<rscale>  1 0.30000000E+03</rscale>
<asrwt>0</asrwt>
<pdfrwt beam="1">  1        1 0.15057696E+00 0.30000000E+03</pdfrwt>
<pdfrwt beam="2">0</pdfrwt>
<totfact> 0.17844103E+01</totfact>
</mgrwt>
</event>
<event>
 6    1  0.1929825E-004  0.3000000E+03  0.7818608E-02  0.1093470E+00
          1   -1    0    0  502    0  0.00000000000E+00  0.00000000000E+00  0.36334338362E+02  0.36334338362E+02  0.00000000000E+00 0.  1.
         13   -1    0    0    0    0 -0.00000000000E+00 -0.00000000000E+00 -0.10000000000E+04  0.10000000000E+04  0.00000000000E+00 0.  1.
    9000005    2    1    2  501    0  0.35991658656E+02 -0.15276038752E+02 -0.93382277631E+03  0.98714740252E+03  0.31765745685E+03 0.  0.
         13    1    3    3    0    0  0.24348325381E+02 -0.21901971200E+02 -0.95850478290E+03  0.95906410429E+03  0.00000000000E+00 0.  1.
          1    1    3    3  501    0  0.11643333275E+02  0.66259324480E+01  0.24682006587E+02  0.28083298234E+02  0.00000000000E+00 0.  1.
         21    1    1    2  502  501 -0.35991658656E+02  0.15276038752E+02 -0.29842885323E+02  0.49186935838E+02  0.00000000000E+00 0.  1.
<mgrwt>
<rscale>  1 0.30000000E+03</rscale>
<asrwt>0</asrwt>
<pdfrwt beam="1">  1        1 0.13212515E+00 0.30000000E+03</pdfrwt>
<pdfrwt beam="2">0</pdfrwt>
<totfact> 0.22280627E+01</totfact>
</mgrwt>
</event>
<event>
 6    1  0.1929825E-004  0.3000000E+03  0.7818608E-02  0.1093470E+00
          3   -1    0    0  502    0  0.00000000000E+00  0.00000000000E+00  0.29286572951E+02  0.29286572951E+02  0.00000000000E+00 0.  1.
         13   -1    0    0    0    0 -0.00000000000E+00 -0.00000000000E+00 -0.10000000000E+04  0.10000000000E+04  0.00000000000E+00 0.  1.
    9000005    2    1    2  501    0  0.14105359921E+02  0.67428815954E+01 -0.92218942729E+03  0.97830612392E+03  0.32619795319E+03 0.  0.
         13    1    3    3    0    0  0.47174824437E+02 -0.15470305235E+03 -0.44925991890E+03  0.47748609739E+03  0.00000000000E+00 0.  1.
          1    1    3    3  501    0 -0.33069464516E+02  0.16144593395E+03 -0.47292950838E+03  0.50082002653E+03  0.00000000000E+00 0.  1.
         21    1    1    2  502  501 -0.14105359921E+02 -0.67428815954E+01 -0.48523999764E+02  0.50980449035E+02  0.00000000000E+00 0. -1.
<mgrwt>
<rscale>  1 0.30000000E+03</rscale>
<asrwt>0</asrwt>
<pdfrwt beam="1">  1        3 0.10649685E+00 0.30000000E+03</pdfrwt>
<pdfrwt beam="2">0</pdfrwt>
<totfact> 0.33036121E+00</totfact>
</mgrwt>
</event>
<event>
 6    1  0.1929825E-004  0.3000000E+03  0.7818608E-02  0.1093470E+00
          1   -1    0    0  502    0  0.00000000000E+00  0.00000000000E+00  0.29423682670E+02  0.29423682670E+02  0.00000000000E+00 0.  1.
         13   -1    0    0    0    0 -0.00000000000E+00 -0.00000000000E+00 -0.10000000000E+04  0.10000000000E+04  0.00000000000E+00 0.  1.
    9000005    2    1    2  501    0 -0.13877976722E+02 -0.83889778353E+01 -0.96289391567E+03  0.10114795337E+04  0.30929465090E+03 0.  0.
         13    1    3    3    0    0 -0.16874442436E+02 -0.12231264302E+03 -0.81736610404E+03  0.82663926684E+03  0.00000000000E+00 0.  1.
          3    1    3    3  501    0  0.29964657134E+01  0.11392366518E+03 -0.14552781163E+03  0.18484026686E+03  0.00000000000E+00 0.  1.
         21    1    1    2  502  501  0.13877976722E+02  0.83889778353E+01 -0.76824016614E+01  0.17944148972E+02  0.00000000000E+00 0.  1.
<mgrwt>
<rscale>  1 0.30000000E+03</rscale>
<asrwt>0</asrwt>
<pdfrwt beam="1">  1        1 0.10699544E+00 0.30000000E+03</pdfrwt>
<pdfrwt beam="2">0</pdfrwt>
<totfact> 0.30971669E+01</totfact>
</mgrwt>
</event>
<event>
 6    1  0.1929825E-004  0.3000000E+03  0.7818608E-02  0.1093470E+00
          3   -1    0    0  502    0  0.00000000000E+00  0.00000000000E+00  0.40554264418E+02  0.40554264418E+02  0.00000000000E+00 0.  1.
         13   -1    0    0    0    0 -0.00000000000E+00 -0.00000000000E+00 -0.10000000000E+04  0.10000000000E+04  0.00000000000E+00 0.  1.
    9000005    2    1    2  501    0 -0.49417325396E+01  0.99655962743E+01 -0.97155340393E+03  0.10241125655E+04  0.32367699383E+03 0.  0.
         13    1    3    3    0    0 -0.11398002321E+03  0.42289042966E+02 -0.14257729228E+03  0.18737153764E+03  0.00000000000E+00 0.  1.
          3    1    3    3  501    0  0.10903829067E+03 -0.32323446691E+02 -0.82897611166E+03  0.83674102788E+03  0.00000000000E+00 0.  1.
         21    1    1    2  502  501  0.49417325396E+01 -0.99655962743E+01  0.12107668353E+02  0.16441698894E+02  0.00000000000E+00 0.  1.
<mgrwt>
<rscale>  1 0.30000000E+03</rscale>
<asrwt>0</asrwt>
<pdfrwt beam="1">  1        3 0.14747036E+00 0.30000000E+03</pdfrwt>
<pdfrwt beam="2">0</pdfrwt>
<totfact> 0.10712965E+00</totfact>
</mgrwt>
</event>
<event>
 6    1  0.1929825E-004  0.3000000E+03  0.7818608E-02  0.1093470E+00
          1   -1    0    0  502    0  0.00000000000E+00  0.00000000000E+00  0.68324655694E+02  0.68324655694E+02  0.00000000000E+00 0.  1.
         13   -1    0    0    0    0 -0.00000000000E+00 -0.00000000000E+00 -0.10000000000E+04  0.10000000000E+04  0.00000000000E+00 0.  1.
    9000005    2    1    2  501    0 -0.11467276953E+02 -0.78646656145E+00 -0.97232117332E+03  0.10260848595E+04  0.32758137576E+03 0.  0.
         13    1    3    3    0    0 -0.44733197671E+02 -0.74941847906E+02 -0.93067980473E+03  0.93476319915E+03  0.00000000000E+00 0.  1.
          3    1    3    3  501    0  0.33265920717E+02  0.74155381345E+02 -0.41641368585E+02  0.91321660307E+02  0.00000000000E+00 0.  1.
         21    1    1    2  502  501  0.11467276953E+02  0.78646656145E+00  0.40645829011E+02  0.42239796240E+02  0.00000000000E+00 0. -1.
<mgrwt>
<rscale>  1 0.30000000E+03</rscale>
<asrwt>0</asrwt>
<pdfrwt beam="1">  1        1 0.24845382E+00 0.30000000E+03</pdfrwt>
<pdfrwt beam="2">0</pdfrwt>
<totfact> 0.60658293E+00</totfact>
</mgrwt>
</event>
<event>
 6    1  0.1929825E-004  0.3000000E+03  0.7818608E-02  0.1093470E+00
          1   -1    0    0  502    0  0.00000000000E+00  0.00000000000E+00  0.36370213363E+02  0.36370213363E+02  0.00000000000E+00 0.  1.
         13   -1    0    0    0    0 -0.00000000000E+00 -0.00000000000E+00 -0.10000000000E+04  0.10000000000E+04  0.00000000000E+00 0.  1.
    9000005    2    1    2  501    0  0.18083133779E+02  0.44922330908E+01 -0.96224957581E+03  0.10176864004E+04  0.33077814845E+03 0.  0.
         13    1    3    3    0    0 -0.76962954856E+02 -0.10944330802E+03 -0.72948373789E+03  0.74165197899E+03  0.00000000000E+00 0.  1.
          3    1    3    3  501    0  0.95046088635E+02  0.11393554111E+03 -0.23276583793E+03  0.27603442140E+03  0.00000000000E+00 0.  1.
         21    1    1    2  502  501 -0.18083133779E+02 -0.44922330908E+01 -0.13802108226E+01  0.18683812976E+02  0.00000000000E+00 0. -1.
<mgrwt>
<rscale>  1 0.30000000E+03</rscale>
<asrwt>0</asrwt>
<pdfrwt beam="1">  1        1 0.13225560E+00 0.30000000E+03</pdfrwt>
<pdfrwt beam="2">0</pdfrwt>
<totfact> 0.22244520E+01</totfact>
</mgrwt>
</event>
<event>
 6    1  0.1929825E-004  0.3000000E+03  0.7818608E-02  0.1093470E+00
          1   -1    0    0  502    0  0.00000000000E+00  0.00000000000E+00  0.32846972501E+02  0.32846972501E+02  0.00000000000E+00 0.  1.
         13   -1    0    0    0    0 -0.00000000000E+00 -0.00000000000E+00 -0.10000000000E+04  0.10000000000E+04  0.00000000000E+00 0.  1.
    9000005    2    1    2  501    0 -0.17738205341E+02  0.40566104907E+01 -0.96270869160E+03  0.10141159250E+04  0.31826401701E+03 0.  0.
         13    1    3    3    0    0 -0.96403610602E+02  0.48928425187E+02 -0.89380731776E+03  0.90032170262E+03  0.00000000000E+00 0.  1.
          3    1    3    3  501    0  0.78665405261E+02 -0.44871814696E+02 -0.68901373837E+02  0.11379422242E+03  0.00000000000E+00 0.  1.
         21    1    1    2  502  501  0.17738205341E+02 -0.40566104907E+01 -0.44443359017E+01  0.18731047461E+02  0.00000000000E+00 0. -1.
<mgrwt>
<rscale>  1 0.30000000E+03</rscale>
<asrwt>0</asrwt>
<pdfrwt beam="1">  1        1 0.11944379E+00 0.30000000E+03</pdfrwt>
<pdfrwt beam="2">0</pdfrwt>
<totfact> 0.26185189E+01</totfact>
</mgrwt>
</event>
<event>
 6    1  0.1929825E-004  0.3000000E+03  0.7818608E-02  0.1093470E+00
          1   -1    0    0  502    0  0.00000000000E+00  0.00000000000E+00  0.33227042279E+02  0.33227042279E+02  0.00000000000E+00 0.  1.
         13   -1    0    0    0    0 -0.00000000000E+00 -0.00000000000E+00 -0.10000000000E+04  0.10000000000E+04  0.00000000000E+00 0.  1.
    9000005    2    1    2  501    0  0.74394736043E+01 -0.10437337235E+02 -0.96518624660E+03  0.10203118796E+04  0.33058668629E+03 0.  0.
         13    1    3    3    0    0 -0.15526194647E+03 -0.34210522053E+02 -0.58225513420E+03  0.60357076896E+03  0.00000000000E+00 0.  1.
          3    1    3    3  501    0  0.16270142008E+03  0.23773184818E+02 -0.38293111240E+03  0.41674111059E+03  0.00000000000E+00 0.  1.
         21    1    1    2  502  501 -0.74394736043E+01  0.10437337235E+02 -0.15867111168E+01  0.12915162726E+02  0.00000000000E+00 0.  1.
<mgrwt>
<rscale>  1 0.30000000E+03</rscale>
<asrwt>0</asrwt>
<pdfrwt beam="1">  1        1 0.12082586E+00 0.30000000E+03</pdfrwt>
<pdfrwt beam="2">0</pdfrwt>
<totfact> 0.25718506E+01</totfact>
</mgrwt>
</event>
<event>
 6    1  0.1929825E-004  0.3000000E+03  0.7818608E-02  0.1093470E+00
          1   -1    0    0  502    0  0.00000000000E+00  0.00000000000E+00  0.47627811423E+02  0.47627811423E+02  0.00000000000E+00 0.  1.
         13   -1    0    0    0    0 -0.00000000000E+00 -0.00000000000E+00 -0.10000000000E+04  0.10000000000E+04  0.00000000000E+00 0.  1.
    9000005    2    1    2  501    0 -0.15385857254E+02  0.17475494983E+00 -0.97023782957E+03  0.10240495106E+04  0.32722958154E+03 0.  0.
         13    1    3    3    0    0  0.97976533481E+02 -0.51593551364E+02 -0.82617742108E+03  0.83356489055E+03  0.00000000000E+00 0.  1.
          1    1    3    3  501    0 -0.11336239073E+03  0.51768306314E+02 -0.14406040849E+03  0.19048462003E+03  0.00000000000E+00 0.  1.
         21    1    1    2  502  501  0.15385857254E+02 -0.17475494983E+00  0.17865640994E+02  0.23578300848E+02  0.00000000000E+00 0.  1.
<mgrwt>
<rscale>  1 0.30000000E+03</rscale>
<asrwt>0</asrwt>
<pdfrwt beam="1">  1        1 0.17319241E+00 0.30000000E+03</pdfrwt>
<pdfrwt beam="2">0</pdfrwt>
<totfact> 0.13784079E+01</totfact>
</mgrwt>
</event>
<event>
 6    1  0.1929825E-004  0.3000000E+03  0.7818608E-02  0.1093470E+00
          1   -1    0    0  502    0  0.00000000000E+00  0.00000000000E+00  0.33053925277E+02  0.33053925277E+02  0.00000000000E+00 0.  1.
         13   -1    0    0    0    0 -0.00000000000E+00 -0.00000000000E+00 -0.10000000000E+04  0.10000000000E+04  0.00000000000E+00 0.  1.
    9000005    2    1    2  501    0 -0.14593316952E+02 -0.82502662080E+01 -0.95915589906E+03  0.10145682922E+04  0.33028434586E+03 0.  0.
         13    1    3    3    0    0  0.10609824588E+03 -0.11020516659E+03 -0.30011798274E+03  0.33685726961E+03  0.00000000000E+00 0.  1.
          3    1    3    3  501    0 -0.12069156283E+03  0.10195490038E+03 -0.65903791631E+03  0.67771102263E+03  0.00000000000E+00 0.  1.
         21    1    1    2  502  501  0.14593316952E+02  0.82502662080E+01 -0.77901756671E+01  0.18485633045E+02  0.00000000000E+00 0.  1.
<mgrwt>
<rscale>  1 0.30000000E+03</rscale>
<asrwt>0</asrwt>
<pdfrwt beam="1">  1        1 0.12019635E+00 0.30000000E+03</pdfrwt>
<pdfrwt beam="2">0</pdfrwt>
<totfact> 0.25929682E+01</totfact>
</mgrwt>
</event>
<event>
 6    1  0.1929825E-004  0.3000000E+03  0.7818608E-02  0.1093470E+00
          1   -1    0    0  502    0  0.00000000000E+00  0.00000000000E+00  0.39724638633E+02  0.39724638633E+02  0.00000000000E+00 0.  1.
         13   -1    0    0    0    0 -0.00000000000E+00 -0.00000000000E+00 -0.10000000000E+04  0.10000000000E+04  0.00000000000E+00 0.  1.
    9000005    2    1    2  501    0 -0.55616658321E+01  0.37992742095E+02 -0.94129697177E+03  0.99689287646E+03  0.32600772615E+03 0.  0.
         13    1    3    3    0    0  0.88988585718E+02 -0.91153384926E+02 -0.19011770998E+03  0.22885071907E+03  0.00000000000E+00 0.  1.
          1    1    3    3  501    0 -0.94550251550E+02  0.12914612702E+03 -0.75117926178E+03  0.76804215739E+03  0.00000000000E+00 0.  1.
         21    1    1    2  502  501  0.55616658321E+01 -0.37992742095E+02 -0.18978389599E+02  0.42831762169E+02  0.00000000000E+00 0.  1.
<mgrwt>
<rscale>  1 0.30000000E+03</rscale>
<asrwt>0</asrwt>
<pdfrwt beam="1">  1        1 0.14445354E+00 0.30000000E+03</pdfrwt>
<pdfrwt beam="2">0</pdfrwt>
<totfact> 0.19180443E+01</totfact>
</mgrwt>
</event>
<event>
 6    1  0.1929825E-004  0.3000000E+03  0.7818608E-02  0.1093470E+00
          1   -1    0    0  502    0  0.00000000000E+00  0.00000000000E+00  0.55314263170E+02  0.55314263170E+02  0.00000000000E+00 0.  1.
         13   -1    0    0    0    0 -0.00000000000E+00 -0.00000000000E+00 -0.10000000000E+04  0.10000000000E+04  0.00000000000E+00 0.  1.
    9000005    2    1    2  501    0 -0.42752848996E+02  0.10893363396E+00 -0.95801454810E+03  0.10105317312E+04  0.31867646183E+03 0.  0.
         13    1    3    3    0    0 -0.13485070950E+03 -0.10661972386E+03 -0.40797605490E+03  0.44271541733E+03  0.00000000000E+00 0.  1.
          1    1    3    3  501    0  0.92097860506E+02  0.10672865749E+03 -0.55003849320E+03  0.56781631383E+03  0.00000000000E+00 0.  1.
         21    1    1    2  502  501  0.42752848996E+02 -0.10893363396E+00  0.13328811275E+02  0.44782532016E+02  0.00000000000E+00 0.  1.
<mgrwt>
<rscale>  1 0.30000000E+03</rscale>
<asrwt>0</asrwt>
<pdfrwt beam="1">  1        1 0.20114320E+00 0.30000000E+03</pdfrwt>
<pdfrwt beam="2">0</pdfrwt>
<totfact> 0.10116078E+01</totfact>
</mgrwt>
</event>
<event>
 6    1  0.1929825E-004  0.3000000E+03  0.7818608E-02  0.1093470E+00
          1   -1    0    0  502    0  0.00000000000E+00  0.00000000000E+00  0.63533195096E+02  0.63533195096E+02  0.00000000000E+00 0.  1.
         13   -1    0    0    0    0 -0.00000000000E+00 -0.00000000000E+00 -0.10000000000E+04  0.10000000000E+04  0.00000000000E+00 0.  1.
    9000005    2    1    2  501    0  0.40534410708E+02  0.18065159096E+02 -0.96138069158E+03  0.10126402666E+04  0.31498902665E+03 0.  0.
         13    1    3    3    0    0  0.16499686245E+03  0.53276472916E+02 -0.69799622187E+03  0.71920864353E+03  0.00000000000E+00 0.  1.
          3    1    3    3  501    0 -0.12446245174E+03 -0.35211313820E+02 -0.26338446971E+03  0.29343162304E+03  0.00000000000E+00 0.  1.
         21    1    1    2  502  501 -0.40534410708E+02 -0.18065159096E+02  0.24913886677E+02  0.50892928526E+02  0.00000000000E+00 0.  1.
<mgrwt>
<rscale>  1 0.30000000E+03</rscale>
<asrwt>0</asrwt>
<pdfrwt beam="1">  1        1 0.23103029E+00 0.30000000E+03</pdfrwt>
<pdfrwt beam="2">0</pdfrwt>
<totfact> 0.73186906E+00</totfact>
</mgrwt>
</event>
<event>
 6    1  0.1929825E-004  0.3000000E+03  0.7818608E-02  0.1093470E+00
          1   -1    0    0  502    0  0.00000000000E+00  0.00000000000E+00  0.36677430281E+02  0.36677430281E+02  0.00000000000E+00 0.  1.
         13   -1    0    0    0    0 -0.00000000000E+00 -0.00000000000E+00 -0.10000000000E+04  0.10000000000E+04  0.00000000000E+00 0.  1.
    9000005    2    1    2  501    0  0.13332718068E+02 -0.12225502030E+02 -0.96470054669E+03  0.10185356803E+04  0.32625229965E+03 0.  0.
         13    1    3    3    0    0 -0.15319005524E+02  0.93395225028E+02 -0.86602319394E+03  0.87117938017E+03  0.00000000000E+00 0.  1.
          3    1    3    3  501    0  0.28651723592E+02 -0.10562072706E+03 -0.98677352756E+02  0.14735630016E+03  0.00000000000E+00 0.  1.
         21    1    1    2  502  501 -0.13332718068E+02  0.12225502030E+02  0.13779769753E+01  0.18141749957E+02  0.00000000000E+00 0. -1.
<mgrwt>
<rscale>  1 0.30000000E+03</rscale>
<asrwt>0</asrwt>
<pdfrwt beam="1">  1        1 0.13337275E+00 0.30000000E+03</pdfrwt>
<pdfrwt beam="2">0</pdfrwt>
<totfact> 0.21938447E+01</totfact>
</mgrwt>
</event>
<event>
 6    1  0.1929825E-004  0.3000000E+03  0.7818608E-02  0.1093470E+00
          1   -1    0    0  502    0  0.00000000000E+00  0.00000000000E+00  0.26243571031E+02  0.26243571031E+02  0.00000000000E+00 0.  1.
         13   -1    0    0    0    0 -0.00000000000E+00 -0.00000000000E+00 -0.10000000000E+04  0.10000000000E+04  0.00000000000E+00 0.  1.
    9000005    2    1    2  501    0  0.55160737379E+01 -0.11475606730E+02 -0.96649604334E+03  0.10115864970E+04  0.29837982929E+03 0.  0.
         13    1    3    3    0    0  0.13914051280E+03  0.29306949745E+02 -0.32004715363E+03  0.35021302111E+03  0.00000000000E+00 0.  1.
          1    1    3    3  501    0 -0.13362443906E+03 -0.40782556474E+02 -0.64644888971E+03  0.66137347591E+03  0.00000000000E+00 0.  1.
         21    1    1    2  502  501 -0.55160737379E+01  0.11475606730E+02 -0.72603856263E+01  0.14657074017E+02  0.00000000000E+00 0. -1.
<mgrwt>
<rscale>  1 0.30000000E+03</rscale>
<asrwt>0</asrwt>
<pdfrwt beam="1">  1        1 0.95431369E-01 0.30000000E+03</pdfrwt>
<pdfrwt beam="2">0</pdfrwt>
<totfact> 0.36631227E+01</totfact>
</mgrwt>
</event>
<event>
 6    1  0.1929825E-004  0.3000000E+03  0.7818608E-02  0.1093470E+00
          1   -1    0    0  502    0  0.00000000000E+00  0.00000000000E+00  0.48563197234E+02  0.48563197234E+02  0.00000000000E+00 0.  1.
         13   -1    0    0    0    0 -0.00000000000E+00 -0.00000000000E+00 -0.10000000000E+04  0.10000000000E+04  0.00000000000E+00 0.  1.
    9000005    2    1    2  501    0 -0.16085153556E+02  0.11758176747E+01 -0.94615713031E+03  0.10315929393E+04  0.41074391356E+03 0.  0.
         13    1    3    3    0    0  0.38380285520E+02  0.16494875428E+03 -0.18373346309E+03  0.24987821697E+03  0.00000000000E+00 0.  1.
          3    1    3    3  501    0 -0.54465439077E+02 -0.16377293661E+03 -0.76242366722E+03  0.78171472236E+03  0.00000000000E+00 0.  1.
         21    1    1    2  502  501  0.16085153556E+02 -0.11758176747E+01 -0.52796724558E+01  0.16970257906E+02  0.00000000000E+00 0.  1.
<mgrwt>
<rscale>  1 0.30000000E+03</rscale>
<asrwt>0</asrwt>
<pdfrwt beam="1">  1        1 0.17659382E+00 0.30000000E+03</pdfrwt>
<pdfrwt beam="2">0</pdfrwt>
<totfact> 0.13269228E+01</totfact>
</mgrwt>
</event>
<event>
 6    1  0.1929825E-004  0.3000000E+03  0.7818608E-02  0.1093470E+00
          1   -1    0    0  502    0  0.00000000000E+00  0.00000000000E+00  0.27599665235E+02  0.27599665235E+02  0.00000000000E+00 0.  1.
         13   -1    0    0    0    0 -0.00000000000E+00 -0.00000000000E+00 -0.10000000000E+04  0.10000000000E+04  0.00000000000E+00 0.  1.
    9000005    2    1    2  501    0 -0.80268312792E+01 -0.96410353611E+01 -0.95367420256E+03  0.10050597537E+04  0.31700669450E+03 0.  0.
         13    1    3    3    0    0 -0.92172584372E+02  0.41833094680E+02 -0.89020884603E+02  0.13479803788E+03  0.00000000000E+00 0.  1.
          1    1    3    3  501    0  0.84145753093E+02 -0.51474130041E+02 -0.86465331795E+03  0.87026171585E+03  0.00000000000E+00 0.  1.
         21    1    1    2  502  501  0.80268312792E+01  0.96410353611E+01 -0.18726132208E+02  0.22539911506E+02  0.00000000000E+00 0.  1.
<mgrwt>
<rscale>  1 0.30000000E+03</rscale>
<asrwt>0</asrwt>
<pdfrwt beam="1">  1        1 0.10036263E+00 0.30000000E+03</pdfrwt>
<pdfrwt beam="2">0</pdfrwt>
<totfact> 0.34046182E+01</totfact>
</mgrwt>
</event>
<event>
 6    1  0.1929825E-004  0.3000000E+03  0.7818608E-02  0.1093470E+00
          1   -1    0    0  502    0  0.00000000000E+00  0.00000000000E+00  0.27565025521E+02  0.27565025521E+02  0.00000000000E+00 0.  1.
         13   -1    0    0    0    0 -0.00000000000E+00 -0.00000000000E+00 -0.10000000000E+04  0.10000000000E+04  0.00000000000E+00 0.  1.
    9000005    2    1    2  501    0 -0.20126728863E+01 -0.83683516325E+01 -0.95042444054E+03  0.10039314950E+04  0.32326111627E+03 0.  0.
         13    1    3    3    0    0  0.15817118881E+03 -0.24485690041E+02 -0.41372401511E+03  0.44360481813E+03  0.00000000000E+00 0.  1.
          1    1    3    3  501    0 -0.16018386170E+03  0.16117338409E+02 -0.53670042542E+03  0.56032667686E+03  0.00000000000E+00 0.  1.
         21    1    1    2  502  501  0.20126728863E+01  0.83683516325E+01 -0.22010533942E+02  0.23633530536E+02  0.00000000000E+00 0. -1.
<mgrwt>
<rscale>  1 0.30000000E+03</rscale>
<asrwt>0</asrwt>
<pdfrwt beam="1">  1        1 0.10023667E+00 0.30000000E+03</pdfrwt>
<pdfrwt beam="2">0</pdfrwt>
<totfact> 0.34108813E+01</totfact>
</mgrwt>
</event>
<event>
 6    1  0.1929825E-004  0.3000000E+03  0.7818608E-02  0.1093470E+00
          1   -1    0    0  502    0  0.00000000000E+00  0.00000000000E+00  0.69962899623E+02  0.69962899623E+02  0.00000000000E+00 0.  1.
         13   -1    0    0    0    0 -0.00000000000E+00 -0.00000000000E+00 -0.10000000000E+04  0.10000000000E+04  0.00000000000E+00 0.  1.
    9000005    2    1    2  501    0  0.42524072945E+02  0.36924739588E+02 -0.95495978697E+03  0.10083765904E+04  0.31890973681E+03 0.  0.
         13    1    3    3    0    0  0.14805035432E+02  0.15451552714E+03 -0.25856101831E+03  0.30157592310E+03  0.00000000000E+00 0.  1.
          3    1    3    3  501    0  0.27719037513E+02 -0.11759078755E+03 -0.69639876865E+03  0.70680066733E+03  0.00000000000E+00 0.  1.
         21    1    1    2  502  501 -0.42524072945E+02 -0.36924739588E+02  0.24922686588E+02  0.61586309195E+02  0.00000000000E+00 0. -1.
<mgrwt>
<rscale>  1 0.30000000E+03</rscale>
<asrwt>0</asrwt>
<pdfrwt beam="1">  1        1 0.25441108E+00 0.30000000E+03</pdfrwt>
<pdfrwt beam="2">0</pdfrwt>
<totfact> 0.56904733E+00</totfact>
</mgrwt>
</event>
<event>
 6    1  0.1929825E-004  0.3000000E+03  0.7818608E-02  0.1093470E+00
          1   -1    0    0  502    0  0.00000000000E+00  0.00000000000E+00  0.35183016023E+02  0.35183016023E+02  0.00000000000E+00 0.  1.
         13   -1    0    0    0    0 -0.00000000000E+00 -0.00000000000E+00 -0.10000000000E+04  0.10000000000E+04  0.00000000000E+00 0.  1.
    9000005    2    1    2  501    0  0.35933575674E+00 -0.11369080988E+02 -0.96616359651E+03  0.10237288251E+04  0.33825911218E+03 0.  0.
         13    1    3    3    0    0 -0.14264480512E+03 -0.11778596417E+02 -0.75661551635E+03  0.77003461958E+03  0.00000000000E+00 0.  1.
          1    1    3    3  501    0  0.14300414088E+03  0.40951542914E+00 -0.20954808016E+03  0.25369420551E+03  0.00000000000E+00 0.  1.
         21    1    1    2  502  501 -0.35933575674E+00  0.11369080988E+02  0.13466125314E+01  0.11454190936E+02  0.00000000000E+00 0. -1.
<mgrwt>
<rscale>  1 0.30000000E+03</rscale>
<asrwt>0</asrwt>
<pdfrwt beam="1">  1        1 0.12793851E+00 0.30000000E+03</pdfrwt>
<pdfrwt beam="2">0</pdfrwt>
<totfact> 0.23481153E+01</totfact>
</mgrwt>
</event>
<event>
 6    1  0.1929825E-004  0.3000000E+03  0.7818608E-02  0.1093470E+00
          1   -1    0    0  502    0  0.00000000000E+00  0.00000000000E+00  0.33885734662E+02  0.33885734662E+02  0.00000000000E+00 0.  1.
         13   -1    0    0    0    0 -0.00000000000E+00 -0.00000000000E+00 -0.10000000000E+04  0.10000000000E+04  0.00000000000E+00 0.  1.
    9000005    2    1    2  501    0  0.11838821264E+02 -0.39802681469E+02 -0.88320454238E+03  0.94115799716E+03  0.32249604772E+03 0.  0.
         13    1    3    3    0    0 -0.23621388038E+02 -0.28567401226E+02  0.16578207570E+02  0.40606690975E+02  0.00000000000E+00 0.  1.
          1    1    3    3  501    0  0.35460209302E+02 -0.11235280242E+02 -0.89978274995E+03  0.90055130619E+03  0.00000000000E+00 0.  1.
         21    1    1    2  502  501 -0.11838821264E+02  0.39802681469E+02 -0.82909722958E+02  0.92727737501E+02  0.00000000000E+00 0. -1.
<mgrwt>
<rscale>  1 0.30000000E+03</rscale>
<asrwt>0</asrwt>
<pdfrwt beam="1">  1        1 0.12322111E+00 0.30000000E+03</pdfrwt>
<pdfrwt beam="2">0</pdfrwt>
<totfact> 0.24935487E+01</totfact>
</mgrwt>
</event>
<event>
 6    1  0.1929825E-004  0.3000000E+03  0.7818608E-02  0.1093470E+00
          1   -1    0    0  502    0  0.00000000000E+00  0.00000000000E+00  0.25871344332E+02  0.25871344332E+02  0.00000000000E+00 0.  1.
         13   -1    0    0    0    0 -0.00000000000E+00 -0.00000000000E+00 -0.10000000000E+04  0.10000000000E+04  0.00000000000E+00 0.  1.
    9000005    2    1    2  501    0 -0.37825068387E+01  0.15563878585E+02 -0.91483417383E+03  0.96445166303E+03  0.30494081892E+03 0.  0.
         13    1    3    3    0    0 -0.51235967709E+02  0.15213986061E+03 -0.50040429505E+03  0.52552461415E+03  0.00000000000E+00 0.  1.
          1    1    3    3  501    0  0.47453460870E+02 -0.13657598202E+03 -0.41442987878E+03  0.43892704888E+03  0.00000000000E+00 0.  1.
         21    1    1    2  502  501  0.37825068387E+01 -0.15563878585E+02 -0.59294481842E+02  0.61419681304E+02  0.00000000000E+00 0.  1.
<mgrwt>
<rscale>  1 0.30000000E+03</rscale>
<asrwt>0</asrwt>
<pdfrwt beam="1">  1        1 0.94077814E-01 0.30000000E+03</pdfrwt>
<pdfrwt beam="2">0</pdfrwt>
<totfact> 0.37391803E+01</totfact>
</mgrwt>
</event>
<event>
 6    1  0.1929825E-004  0.3000000E+03  0.7818608E-02  0.1093470E+00
          1   -1    0    0  502    0  0.00000000000E+00  0.00000000000E+00  0.57941031647E+02  0.57941031647E+02  0.00000000000E+00 0.  1.
         13   -1    0    0    0    0 -0.00000000000E+00 -0.00000000000E+00 -0.10000000000E+04  0.10000000000E+04  0.00000000000E+00 0.  1.
    9000005    2    1    2  501    0 -0.12056150683E+02 -0.12698120317E+02 -0.96967864249E+03  0.10252387469E+04  0.33246236690E+03 0.  0.
         13    1    3    3    0    0  0.72993743417E+02 -0.10065936646E+03 -0.83120453798E+03  0.84045307935E+03  0.00000000000E+00 0.  1.
          1    1    3    3  501    0 -0.85049894100E+02  0.87961246143E+02 -0.13847410450E+03  0.18478566754E+03  0.00000000000E+00 0.  1.
         21    1    1    2  502  501  0.12056150683E+02  0.12698120317E+02  0.27619674133E+02  0.32702284754E+02  0.00000000000E+00 0. -1.
<mgrwt>
<rscale>  1 0.30000000E+03</rscale>
<asrwt>0</asrwt>
<pdfrwt beam="1">  1        1 0.21069510E+00 0.30000000E+03</pdfrwt>
<pdfrwt beam="2">0</pdfrwt>
<totfact> 0.91163073E+00</totfact>
</mgrwt>
</event>
<event>
 6    1  0.1929825E-004  0.3000000E+03  0.7818608E-02  0.1093470E+00
          3   -1    0    0  502    0  0.00000000000E+00  0.00000000000E+00  0.39988364636E+02  0.39988364636E+02  0.00000000000E+00 0.  1.
         13   -1    0    0    0    0 -0.00000000000E+00 -0.00000000000E+00 -0.10000000000E+04  0.10000000000E+04  0.00000000000E+00 0.  1.
    9000005    2    1    2  501    0  0.27915474803E+02  0.12077951168E+02 -0.95157742008E+03  0.10084243563E+04  0.33240779959E+03 0.  0.
         13    1    3    3    0    0 -0.12541161490E+03  0.59612742007E+02 -0.67058728467E+03  0.68481315592E+03  0.00000000000E+00 0.  1.
          3    1    3    3  501    0  0.15332708971E+03 -0.47534790839E+02 -0.28099013541E+03  0.32361120033E+03  0.00000000000E+00 0.  1.
         21    1    1    2  502  501 -0.27915474803E+02 -0.12077951168E+02 -0.84342152794E+01  0.31564008384E+02  0.00000000000E+00 0.  1.
<mgrwt>
<rscale>  1 0.30000000E+03</rscale>
<asrwt>0</asrwt>
<pdfrwt beam="1">  1        3 0.14541254E+00 0.30000000E+03</pdfrwt>
<pdfrwt beam="2">0</pdfrwt>
<totfact> 0.11408260E+00</totfact>
</mgrwt>
</event>
<event>
 6    1  0.1929825E-004  0.3000000E+03  0.7818608E-02  0.1093470E+00
          3   -1    0    0  502    0  0.00000000000E+00  0.00000000000E+00  0.19110900641E+02  0.19110900641E+02  0.00000000000E+00 0.  1.
         13   -1    0    0    0    0 -0.00000000000E+00 -0.00000000000E+00 -0.10000000000E+04  0.10000000000E+04  0.00000000000E+00 0.  1.
    9000005    2    1    2  501    0 -0.41312480933E+02 -0.39253700630E+02 -0.89815448687E+03  0.91864901634E+03  0.18435552294E+03 0.  0.
         13    1    3    3    0    0  0.27167664746E+02 -0.28603589046E+02 -0.78477654161E+03  0.78576743860E+03  0.00000000000E+00 0.  1.
          1    1    3    3  501    0 -0.68480145679E+02 -0.10650111584E+02 -0.11337794527E+03  0.13288157774E+03  0.00000000000E+00 0.  1.
         21    1    1    2  502  501  0.41312480933E+02  0.39253700630E+02 -0.82734612485E+02  0.10046188430E+03  0.00000000000E+00 0. -1.
<mgrwt>
<rscale>  1 0.30000000E+03</rscale>
<asrwt>0</asrwt>
<pdfrwt beam="1">  1        3 0.69494331E-01 0.30000000E+03</pdfrwt>
<pdfrwt beam="2">0</pdfrwt>
<totfact> 0.90581423E+00</totfact>
</mgrwt>
</event>
<event>
 6    1  0.1929825E-004  0.3000000E+03  0.7818608E-02  0.1093470E+00
          1   -1    0    0  502    0  0.00000000000E+00  0.00000000000E+00  0.31353546860E+02  0.31353546860E+02  0.00000000000E+00 0.  1.
         13   -1    0    0    0    0 -0.00000000000E+00 -0.00000000000E+00 -0.10000000000E+04  0.10000000000E+04  0.00000000000E+00 0.  1.
    9000005    2    1    2  501    0  0.10559610081E+02  0.34207167635E+01 -0.96705825483E+03  0.10201406506E+04  0.32459524356E+03 0.  0.
         13    1    3    3    0    0  0.13973109439E+03 -0.89252532714E+02 -0.49093259541E+03  0.51817526627E+03  0.00000000000E+00 0.  1.
          1    1    3    3  501    0 -0.12917148431E+03  0.92673249477E+02 -0.47612565942E+03  0.50196538435E+03  0.00000000000E+00 0.  1.
         21    1    1    2  502  501 -0.10559610081E+02 -0.34207167635E+01 -0.15881983088E+01  0.11212896240E+02  0.00000000000E+00 0. -1.
<mgrwt>
<rscale>  1 0.30000000E+03</rscale>
<asrwt>0</asrwt>
<pdfrwt beam="1">  1        1 0.11401314E+00 0.30000000E+03</pdfrwt>
<pdfrwt beam="2">0</pdfrwt>
<totfact> 0.28135126E+01</totfact>
</mgrwt>
</event>
<event>
 6    1  0.1929825E-004  0.3000000E+03  0.7818608E-02  0.1093470E+00
          1   -1    0    0  502    0  0.00000000000E+00  0.00000000000E+00  0.36524694643E+02  0.36524694643E+02  0.00000000000E+00 0.  1.
         13   -1    0    0    0    0 -0.00000000000E+00 -0.00000000000E+00 -0.10000000000E+04  0.10000000000E+04  0.00000000000E+00 0.  1.
    9000005    2    1    2  501    0 -0.47854942918E+02  0.90671695082E+01 -0.92091966803E+03  0.97184632583E+03  0.30662670616E+03 0.  0.
         13    1    3    3    0    0 -0.10894208218E+03 -0.67946469375E+02 -0.82350597484E+03  0.83345497213E+03  0.00000000000E+00 0.  1.
          1    1    3    3  501    0  0.61087139260E+02  0.77013638883E+02 -0.97413693197E+02  0.13839135370E+03  0.00000000000E+00 0.  1.
         21    1    1    2  502  501  0.47854942918E+02 -0.90671695082E+01 -0.42555637322E+02  0.64678368814E+02  0.00000000000E+00 0. -1.
<mgrwt>
<rscale>  1 0.30000000E+03</rscale>
<asrwt>0</asrwt>
<pdfrwt beam="1">  1        1 0.13281735E+00 0.30000000E+03</pdfrwt>
<pdfrwt beam="2">0</pdfrwt>
<totfact> 0.22089915E+01</totfact>
</mgrwt>
</event>
<event>
 6    1  0.1929825E-004  0.3000000E+03  0.7818608E-02  0.1093470E+00
          1   -1    0    0  502    0  0.00000000000E+00  0.00000000000E+00  0.34789706208E+02  0.34789706208E+02  0.00000000000E+00 0.  1.
         13   -1    0    0    0    0 -0.00000000000E+00 -0.00000000000E+00 -0.10000000000E+04  0.10000000000E+04  0.00000000000E+00 0.  1.
    9000005    2    1    2  501    0 -0.80298642614E+01  0.41123016279E+02 -0.90722752761E+03  0.96325242669E+03  0.32099512374E+03 0.  0.
         13    1    3    3    0    0  0.34129966182E+02 -0.30377416925E+02 -0.87181151690E+03  0.87300799713E+03  0.00000000000E+00 0.  1.
          1    1    3    3  501    0 -0.42159830443E+02  0.71500433204E+02 -0.35416010717E+02  0.90244429559E+02  0.00000000000E+00 0.  1.
         21    1    1    2  502  501  0.80298642614E+01 -0.41123016279E+02 -0.57982766178E+02  0.71537279523E+02  0.00000000000E+00 0. -1.
<mgrwt>
<rscale>  1 0.30000000E+03</rscale>
<asrwt>0</asrwt>
<pdfrwt beam="1">  1        1 0.12650829E+00 0.30000000E+03</pdfrwt>
<pdfrwt beam="2">0</pdfrwt>
<totfact> 0.23910376E+01</totfact>
</mgrwt>
</event>
<event>
 6    1  0.1929825E-004  0.3000000E+03  0.7818608E-02  0.1093470E+00
          1   -1    0    0  502    0  0.00000000000E+00  0.00000000000E+00  0.68206158608E+02  0.68206158608E+02  0.00000000000E+00 0.  1.
         13   -1    0    0    0    0 -0.00000000000E+00 -0.00000000000E+00 -0.10000000000E+04  0.10000000000E+04  0.00000000000E+00 0.  1.
    9000005    2    1    2  501    0  0.18870472336E+01  0.22968130752E+02 -0.97415234003E+03  0.10199843961E+04  0.30143704257E+03 0.  0.
         13    1    3    3    0    0 -0.12870890403E+03 -0.49730448118E+01 -0.22706652553E+03  0.26105539674E+03  0.00000000000E+00 0.  1.
          3    1    3    3  501    0  0.13059595126E+03  0.27941175564E+02 -0.74708581449E+03  0.75892899931E+03  0.00000000000E+00 0.  1.
         21    1    1    2  502  501 -0.18870472336E+01 -0.22968130752E+02  0.42358498634E+02  0.48221762557E+02  0.00000000000E+00 0.  1.
<mgrwt>
<rscale>  1 0.30000000E+03</rscale>
<asrwt>0</asrwt>
<pdfrwt beam="1">  1        1 0.24802292E+00 0.30000000E+03</pdfrwt>
<pdfrwt beam="2">0</pdfrwt>
<totfact> 0.60939395E+00</totfact>
</mgrwt>
</event>
<event>
 6    1  0.1929825E-004  0.3000000E+03  0.7818608E-02  0.1093470E+00
          1   -1    0    0  502    0  0.00000000000E+00  0.00000000000E+00  0.36602933350E+02  0.36602933350E+02  0.00000000000E+00 0.  1.
         13   -1    0    0    0    0 -0.00000000000E+00 -0.00000000000E+00 -0.10000000000E+04  0.10000000000E+04  0.00000000000E+00 0.  1.
    9000005    2    1    2  501    0 -0.68504072940E+01  0.17867126696E+02 -0.96447309717E+03  0.10174373356E+04  0.32342574783E+03 0.  0.
         13    1    3    3    0    0 -0.52373987483E+02  0.50519623402E+02 -0.25970423113E+02  0.77264026495E+02  0.00000000000E+00 0.  1.
          1    1    3    3  501    0  0.45523580189E+02 -0.32652496706E+02 -0.93850267405E+03  0.94017330908E+03  0.00000000000E+00 0.  1.
         21    1    1    2  502  501  0.68504072940E+01 -0.17867126696E+02  0.10760305175E+01  0.19165597777E+02  0.00000000000E+00 0. -1.
<mgrwt>
<rscale>  1 0.30000000E+03</rscale>
<asrwt>0</asrwt>
<pdfrwt beam="1">  1        1 0.13310186E+00 0.30000000E+03</pdfrwt>
<pdfrwt beam="2">0</pdfrwt>
<totfact> 0.22012154E+01</totfact>
</mgrwt>
</event>
<event>
 6    1  0.1929825E-004  0.3000000E+03  0.7818608E-02  0.1093470E+00
          1   -1    0    0  502    0  0.00000000000E+00  0.00000000000E+00  0.39976806959E+02  0.39976806959E+02  0.00000000000E+00 0.  1.
         13   -1    0    0    0    0 -0.00000000000E+00 -0.00000000000E+00 -0.10000000000E+04  0.10000000000E+04  0.00000000000E+00 0.  1.
    9000005    2    1    2  501    0 -0.10147090777E+02  0.64542584431E+00 -0.96503056784E+03  0.10286430596E+04  0.35597635774E+03 0.  0.
         13    1    3    3    0    0  0.13162136646E+03  0.61952151275E+02 -0.19505520411E+03  0.24332855527E+03  0.00000000000E+00 0.  1.
          3    1    3    3  501    0 -0.14176845723E+03 -0.61306725431E+02 -0.76997536372E+03  0.78531450438E+03  0.00000000000E+00 0.  1.
         21    1    1    2  502  501  0.10147090777E+02 -0.64542584431E+00  0.50073747979E+01  0.11333747311E+02  0.00000000000E+00 0. -1.
<mgrwt>
<rscale>  1 0.30000000E+03</rscale>
<asrwt>0</asrwt>
<pdfrwt beam="1">  1        1 0.14537051E+00 0.30000000E+03</pdfrwt>
<pdfrwt beam="2">0</pdfrwt>
<totfact> 0.18972528E+01</totfact>
</mgrwt>
</event>
<event>
 6    1  0.1929825E-004  0.3000000E+03  0.7818608E-02  0.1093470E+00
          1   -1    0    0  502    0  0.00000000000E+00  0.00000000000E+00  0.26547781064E+02  0.26547781064E+02  0.00000000000E+00 0.  1.
         13   -1    0    0    0    0 -0.00000000000E+00 -0.00000000000E+00 -0.10000000000E+04  0.10000000000E+04  0.00000000000E+00 0.  1.
    9000005    2    1    2  501    0 -0.11408684914E+02  0.13824301263E+01 -0.96018572168E+03  0.10089958822E+04  0.30981284828E+03 0.  0.
         13    1    3    3    0    0 -0.47211098762E+02  0.14007462219E+03 -0.66049618831E+03  0.67683454581E+03  0.00000000000E+00 0.  1.
          1    1    3    3  501    0  0.35802413848E+02 -0.13869219207E+03 -0.29968953336E+03  0.33216133638E+03  0.00000000000E+00 0.  1.
         21    1    1    2  502  501  0.11408684914E+02 -0.13824301263E+01 -0.13266497259E+02  0.17551898873E+02  0.00000000000E+00 0.  1.
<mgrwt>
<rscale>  1 0.30000000E+03</rscale>
<asrwt>0</asrwt>
<pdfrwt beam="1">  1        1 0.96537589E-01 0.30000000E+03</pdfrwt>
<pdfrwt beam="2">0</pdfrwt>
<totfact> 0.36026620E+01</totfact>
</mgrwt>
</event>
<event>
 6    1  0.1929825E-004  0.3000000E+03  0.7818608E-02  0.1093470E+00
          1   -1    0    0  502    0  0.00000000000E+00  0.00000000000E+00  0.40162033125E+02  0.40162033125E+02  0.00000000000E+00 0.  1.
         13   -1    0    0    0    0 -0.00000000000E+00 -0.00000000000E+00 -0.10000000000E+04  0.10000000000E+04  0.00000000000E+00 0.  1.
    9000005    2    1    2  501    0  0.43040914577E+02 -0.41180856896E+02 -0.89427437935E+03  0.95157892349E+03  0.31973019686E+03 0.  0.
         13    1    3    3    0    0 -0.59370569086E+02 -0.12763855447E+03 -0.20053579235E+03  0.24501238556E+03  0.00000000000E+00 0.  1.
          1    1    3    3  501    0  0.10241148366E+03  0.86457697571E+02 -0.69373858699E+03  0.70656653794E+03  0.00000000000E+00 0.  1.
         21    1    1    2  502  501 -0.43040914577E+02  0.41180856896E+02 -0.65563587529E+02  0.88583109631E+02  0.00000000000E+00 0.  1.
<mgrwt>
<rscale>  1 0.30000000E+03</rscale>
<asrwt>0</asrwt>
<pdfrwt beam="1">  1        1 0.14604406E+00 0.30000000E+03</pdfrwt>
<pdfrwt beam="2">0</pdfrwt>
<totfact> 0.18821611E+01</totfact>
</mgrwt>
</event>
<event>
 6    1  0.1929825E-004  0.3000000E+03  0.7818608E-02  0.1093470E+00
          1   -1    0    0  502    0  0.00000000000E+00  0.00000000000E+00  0.30770788269E+02  0.30770788269E+02  0.00000000000E+00 0.  1.
         13   -1    0    0    0    0 -0.00000000000E+00 -0.00000000000E+00 -0.10000000000E+04  0.10000000000E+04  0.00000000000E+00 0.  1.
    9000005    2    1    2  501    0  0.10298703672E+02 -0.60254651348E+01 -0.96201078953E+03  0.10168253537E+04  0.32913017356E+03 0.  0.
         13    1    3    3    0    0  0.88449714615E+02 -0.47219260593E+02 -0.90749168537E+03  0.91301378391E+03  0.00000000000E+00 0.  1.
          1    1    3    3  501    0 -0.78151010944E+02  0.41193795458E+02 -0.54519104154E+02  0.10381156975E+03  0.00000000000E+00 0.  1.
         21    1    1    2  502  501 -0.10298703672E+02  0.60254651348E+01 -0.72184222034E+01  0.13945434612E+02  0.00000000000E+00 0.  1.
<mgrwt>
<rscale>  1 0.30000000E+03</rscale>
<asrwt>0</asrwt>
<pdfrwt beam="1">  1        1 0.11189401E+00 0.30000000E+03</pdfrwt>
<pdfrwt beam="2">0</pdfrwt>
<totfact> 0.28951366E+01</totfact>
</mgrwt>
</event>
<event>
 6    1  0.1929825E-004  0.3000000E+03  0.7818608E-02  0.1093470E+00
          1   -1    0    0  502    0  0.00000000000E+00  0.00000000000E+00  0.33684872403E+02  0.33684872403E+02  0.00000000000E+00 0.  1.
         13   -1    0    0    0    0 -0.00000000000E+00 -0.00000000000E+00 -0.10000000000E+04  0.10000000000E+04  0.00000000000E+00 0.  1.
    9000005    2    1    2  501    0  0.19684206235E+02  0.18648035970E+01 -0.94252719806E+03  0.10027525097E+04  0.34170766931E+03 0.  0.
         13    1    3    3    0    0  0.98820429158E+02 -0.13376541835E+03 -0.64774836120E+03  0.66875750747E+03  0.00000000000E+00 0.  1.
          3    1    3    3  501    0 -0.79136222923E+02  0.13563022195E+03 -0.29477883686E+03  0.33399500227E+03  0.00000000000E+00 0.  1.
         21    1    1    2  502  501 -0.19684206235E+02 -0.18648035970E+01 -0.23787929540E+02  0.30932362654E+02  0.00000000000E+00 0.  1.
<mgrwt>
<rscale>  1 0.30000000E+03</rscale>
<asrwt>0</asrwt>
<pdfrwt beam="1">  1        1 0.12249070E+00 0.30000000E+03</pdfrwt>
<pdfrwt beam="2">0</pdfrwt>
<totfact> 0.25170903E+01</totfact>
</mgrwt>
</event>
<event>
 6    1  0.1929825E-004  0.3000000E+03  0.7818608E-02  0.1093470E+00
          1   -1    0    0  502    0  0.00000000000E+00  0.00000000000E+00  0.70496791431E+02  0.70496791431E+02  0.00000000000E+00 0.  1.
         13   -1    0    0    0    0 -0.00000000000E+00 -0.00000000000E+00 -0.10000000000E+04  0.10000000000E+04  0.00000000000E+00 0.  1.
    9000005    2    1    2  501    0 -0.59893150469E+01  0.49819374011E+02 -0.95788866571E+03  0.10128463266E+04  0.32525243033E+03 0.  0.
         13    1    3    3    0    0 -0.14158048668E+03  0.98453256922E+02 -0.38039975438E+03  0.41766260443E+03  0.00000000000E+00 0.  1.
          1    1    3    3  501    0  0.13559117164E+03 -0.48633882912E+02 -0.57748891133E+03  0.59518372214E+03  0.00000000000E+00 0.  1.
         21    1    1    2  502  501  0.59893150469E+01 -0.49819374011E+02  0.28385457139E+02  0.57650464860E+02  0.00000000000E+00 0. -1.
<mgrwt>
<rscale>  1 0.30000000E+03</rscale>
<asrwt>0</asrwt>
<pdfrwt beam="1">  1        1 0.25635251E+00 0.30000000E+03</pdfrwt>
<pdfrwt beam="2">0</pdfrwt>
<totfact> 0.55730799E+00</totfact>
</mgrwt>
</event>
<event>
 6    1  0.1929825E-004  0.3000000E+03  0.7818608E-02  0.1093470E+00
          1   -1    0    0  502    0  0.00000000000E+00  0.00000000000E+00  0.30473040815E+02  0.30473040815E+02  0.00000000000E+00 0.  1.
         13   -1    0    0    0    0 -0.00000000000E+00 -0.00000000000E+00 -0.10000000000E+04  0.10000000000E+04  0.00000000000E+00 0.  1.
    9000005    2    1    2  501    0  0.92089641201E+01 -0.90343815366E+01 -0.96308569022E+03  0.10160537823E+04  0.32351942256E+03 0.  0.
         13    1    3    3    0    0  0.60847504137E+02  0.18549847681E+02 -0.95481098429E+03  0.95692765209E+03  0.00000000000E+00 0.  1.
          3    1    3    3  501    0 -0.51638540017E+02 -0.27584229218E+02 -0.82747059257E+01  0.59126130220E+02  0.00000000000E+00 0.  1.
         21    1    1    2  502  501 -0.92089641201E+01  0.90343815366E+01 -0.64412689676E+01  0.14419258505E+02  0.00000000000E+00 0.  1.
<mgrwt>
<rscale>  1 0.30000000E+03</rscale>
<asrwt>0</asrwt>
<pdfrwt beam="1">  1        1 0.11081129E+00 0.30000000E+03</pdfrwt>
<pdfrwt beam="2">0</pdfrwt>
<totfact> 0.29381438E+01</totfact>
</mgrwt>
</event>
<event>
 6    1  0.1929825E-004  0.3000000E+03  0.7818608E-02  0.1093470E+00
          1   -1    0    0  502    0  0.00000000000E+00  0.00000000000E+00  0.79508690125E+02  0.79508690125E+02  0.00000000000E+00 0.  1.
         13   -1    0    0    0    0 -0.00000000000E+00 -0.00000000000E+00 -0.10000000000E+04  0.10000000000E+04  0.00000000000E+00 0.  1.
    9000005    2    1    2  501    0  0.57902264505E+01 -0.92355725542E+01 -0.97291294911E+03  0.10259657094E+04  0.32546460304E+03 0.  0.
         13    1    3    3    0    0 -0.54957085021E+02  0.66917093420E+02 -0.90032922473E+03  0.90448377071E+03  0.00000000000E+00 0.  1.
          3    1    3    3  501    0  0.60747311472E+02 -0.76152665974E+02 -0.72583724385E+02  0.12148193871E+03  0.00000000000E+00 0.  1.
         21    1    1    2  502  501 -0.57902264505E+01  0.92355725542E+01  0.52421639236E+02  0.53542980707E+02  0.00000000000E+00 0.  1.
<mgrwt>
<rscale>  1 0.30000000E+03</rscale>
<asrwt>0</asrwt>
<pdfrwt beam="1">  1        1 0.28912312E+00 0.30000000E+03</pdfrwt>
<pdfrwt beam="2">0</pdfrwt>
<totfact> 0.39117514E+00</totfact>
</mgrwt>
</event>
<event>
 6    1  0.1929825E-004  0.3000000E+03  0.7818608E-02  0.1093470E+00
          1   -1    0    0  502    0  0.00000000000E+00  0.00000000000E+00  0.34250038991E+02  0.34250038991E+02  0.00000000000E+00 0.  1.
         13   -1    0    0    0    0 -0.00000000000E+00 -0.00000000000E+00 -0.10000000000E+04  0.10000000000E+04  0.00000000000E+00 0.  1.
    9000005    2    1    2  501    0  0.12632942261E+02  0.33642812519E+00 -0.96964666749E+03  0.10210254885E+04  0.31956014143E+03 0.  0.
         13    1    3    3    0    0 -0.12436369381E+03  0.86675285213E+02 -0.57013452334E+03  0.58994263120E+03  0.00000000000E+00 0.  1.
          3    1    3    3  501    0  0.13699663607E+03 -0.86338857088E+02 -0.39951214416E+03  0.43108285731E+03  0.00000000000E+00 0.  1.
         21    1    1    2  502  501 -0.12632942261E+02 -0.33642812519E+00  0.38967064845E+01  0.13224550483E+02  0.00000000000E+00 0. -1.
<mgrwt>
<rscale>  1 0.30000000E+03</rscale>
<asrwt>0</asrwt>
<pdfrwt beam="1">  1        1 0.12454586E+00 0.30000000E+03</pdfrwt>
<pdfrwt beam="2">0</pdfrwt>
<totfact> 0.24515753E+01</totfact>
</mgrwt>
</event>
<event>
 6    1  0.1929825E-004  0.3000000E+03  0.7818608E-02  0.1093470E+00
          1   -1    0    0  502    0  0.00000000000E+00  0.00000000000E+00  0.29381162272E+02  0.29381162272E+02  0.00000000000E+00 0.  1.
         13   -1    0    0    0    0 -0.00000000000E+00 -0.00000000000E+00 -0.10000000000E+04  0.10000000000E+04  0.00000000000E+00 0.  1.
    9000005    2    1    2  501    0  0.16069192386E+01  0.85798964247E+01 -0.94898555668E+03  0.10060531606E+04  0.33390594244E+03 0.  0.
         13    1    3    3    0    0  0.45987749366E+02 -0.12526984767E+03 -0.75227576360E+03  0.76401978530E+03  0.00000000000E+00 0.  1.
          3    1    3    3  501    0 -0.44380830127E+02  0.13384974409E+03 -0.19670979308E+03  0.24203337532E+03  0.00000000000E+00 0.  1.
         21    1    1    2  502  501 -0.16069192386E+01 -0.85798964247E+01 -0.21633281048E+02  0.23328001650E+02  0.00000000000E+00 0.  1.
<mgrwt>
<rscale>  1 0.30000000E+03</rscale>
<asrwt>0</asrwt>
<pdfrwt beam="1">  1        1 0.10684082E+00 0.30000000E+03</pdfrwt>
<pdfrwt beam="2">0</pdfrwt>
<totfact> 0.31038677E+01</totfact>
</mgrwt>
</event>
<event>
 6    1  0.1929825E-004  0.3000000E+03  0.7818608E-02  0.1093470E+00
          1   -1    0    0  502    0  0.00000000000E+00  0.00000000000E+00  0.36598202301E+02  0.36598202301E+02  0.00000000000E+00 0.  1.
         13   -1    0    0    0    0 -0.00000000000E+00 -0.00000000000E+00 -0.10000000000E+04  0.10000000000E+04  0.00000000000E+00 0.  1.
    9000005    2    1    2  501    0 -0.74157587541E+01  0.83160067123E+01 -0.97177111937E+03  0.10226628160E+04  0.31839594437E+03 0.  0.
         13    1    3    3    0    0  0.68117591617E+02  0.29038488862E+02 -0.33750311971E+02  0.81377660824E+02  0.00000000000E+00 0.  1.
          3    1    3    3  501    0 -0.75533350371E+02 -0.20722482150E+02 -0.93802080740E+03  0.94128515520E+03  0.00000000000E+00 0.  1.
         21    1    1    2  502  501  0.74157587541E+01 -0.83160067123E+01  0.83693216694E+01  0.13935386279E+02  0.00000000000E+00 0.  1.
<mgrwt>
<rscale>  1 0.30000000E+03</rscale>
<asrwt>0</asrwt>
<pdfrwt beam="1">  1        1 0.13308465E+00 0.30000000E+03</pdfrwt>
<pdfrwt beam="2">0</pdfrwt>
<totfact> 0.22016846E+01</totfact>
</mgrwt>
</event>
<event>
 6    1  0.1929825E-004  0.3000000E+03  0.7818608E-02  0.1093470E+00
          1   -1    0    0  502    0  0.00000000000E+00  0.00000000000E+00  0.30765569162E+02  0.30765569162E+02  0.00000000000E+00 0.  1.
         13   -1    0    0    0    0 -0.00000000000E+00 -0.00000000000E+00 -0.10000000000E+04  0.10000000000E+04  0.00000000000E+00 0.  1.
    9000005    2    1    2  501    0  0.12879555611E+02  0.45283978644E+01 -0.96407514339E+03  0.10161707897E+04  0.32089843010E+03 0.  0.
         13    1    3    3    0    0  0.63955841223E+01  0.10957557759E+03 -0.10916085575E+03  0.15480246486E+03  0.00000000000E+00 0.  1.
          1    1    3    3  501    0  0.64839714890E+01 -0.10504717972E+03 -0.85491428764E+03  0.86136832486E+03  0.00000000000E+00 0.  1.
         21    1    1    2  502  501 -0.12879555611E+02 -0.45283978644E+01 -0.51592874491E+01  0.14594779441E+02  0.00000000000E+00 0.  1.
<mgrwt>
<rscale>  1 0.30000000E+03</rscale>
<asrwt>0</asrwt>
<pdfrwt beam="1">  1        1 0.11187503E+00 0.30000000E+03</pdfrwt>
<pdfrwt beam="2">0</pdfrwt>
<totfact> 0.28958828E+01</totfact>
</mgrwt>
</event>
<event>
 6    1  0.1929825E-004  0.3000000E+03  0.7818608E-02  0.1093470E+00
          1   -1    0    0  502    0  0.00000000000E+00  0.00000000000E+00  0.30529648545E+02  0.30529648545E+02  0.00000000000E+00 0.  1.
         13   -1    0    0    0    0 -0.00000000000E+00 -0.00000000000E+00 -0.10000000000E+04  0.10000000000E+04  0.00000000000E+00 0.  1.
    9000005    2    1    2  501    0  0.87848196150E+01 -0.11679038511E+02 -0.96126694984E+03  0.10137705079E+04  0.32168761383E+03 0.  0.
         13    1    3    3    0    0  0.72212560771E+02  0.13857263797E+03 -0.53563323548E+03  0.55796056570E+03  0.00000000000E+00 0.  1.
          3    1    3    3  501    0 -0.63427741156E+02 -0.15025167648E+03 -0.42563371436E+03  0.45580994222E+03  0.00000000000E+00 0.  1.
         21    1    1    2  502  501 -0.87848196150E+01  0.11679038511E+02 -0.82034016154E+01  0.16759140619E+02  0.00000000000E+00 0.  1.
<mgrwt>
<rscale>  1 0.30000000E+03</rscale>
<asrwt>0</asrwt>
<pdfrwt beam="1">  1        1 0.11101714E+00 0.30000000E+03</pdfrwt>
<pdfrwt beam="2">0</pdfrwt>
<totfact> 0.29298981E+01</totfact>
</mgrwt>
</event>
<event>
 6    1  0.1929825E-004  0.3000000E+03  0.7818608E-02  0.1093470E+00
          1   -1    0    0  502    0  0.00000000000E+00  0.00000000000E+00  0.98960398573E+02  0.98960398573E+02  0.00000000000E+00 0.  1.
         13   -1    0    0    0    0 -0.00000000000E+00 -0.00000000000E+00 -0.10000000000E+04  0.10000000000E+04  0.00000000000E+00 0.  1.
    9000005    2    1    2  501    0  0.25091861173E+02 -0.10538567990E+03 -0.92624691479E+03  0.98773471956E+03  0.32550082341E+03 0.  0.
         13    1    3    3    0    0  0.14573801930E+03 -0.11097456974E+02 -0.69627756355E+03  0.71145285811E+03  0.00000000000E+00 0.  1.
          3    1    3    3  501    0 -0.12064615812E+03 -0.94288222929E+02 -0.22996935124E+03  0.27628186144E+03  0.00000000000E+00 0.  1.
         21    1    1    2  502  501 -0.25091861173E+02  0.10538567990E+03  0.25207313359E+02  0.11122567902E+03  0.00000000000E+00 0.  1.
<mgrwt>
<rscale>  1 0.30000000E+03</rscale>
<asrwt>0</asrwt>
<pdfrwt beam="1">  1        1 0.35985675E+00 0.30000000E+03</pdfrwt>
<pdfrwt beam="2">0</pdfrwt>
<totfact> 0.17493337E+00</totfact>
</mgrwt>
</event>
<event>
 6    1  0.1929825E-004  0.3000000E+03  0.7818608E-02  0.1093470E+00
          1   -1    0    0  502    0  0.00000000000E+00  0.00000000000E+00  0.62944643175E+02  0.62944643175E+02  0.00000000000E+00 0.  1.
         13   -1    0    0    0    0 -0.00000000000E+00 -0.00000000000E+00 -0.10000000000E+04  0.10000000000E+04  0.00000000000E+00 0.  1.
    9000005    2    1    2  501    0 -0.12713077994E+03 -0.19126206079E+02 -0.54569035944E+03  0.65100458911E+03  0.33090929223E+03 0.  0.
         13    1    3    3    0    0 -0.22879423815E+03 -0.30064600201E+02 -0.47063628228E+03  0.52416523521E+03  0.00000000000E+00 0.  1.
          3    1    3    3  501    0  0.10166345821E+03  0.10938394123E+02 -0.75054077156E+02  0.12683935390E+03  0.00000000000E+00 0.  1.
         21    1    1    2  502  501  0.12713077994E+03  0.19126206079E+02 -0.39136499738E+03  0.41194005407E+03  0.00000000000E+00 0.  1.
<mgrwt>
<rscale>  1 0.30000000E+03</rscale>
<asrwt>0</asrwt>
<pdfrwt beam="1">  1        1 0.22889009E+00 0.30000000E+03</pdfrwt>
<pdfrwt beam="2">0</pdfrwt>
<totfact> 0.74894994E+00</totfact>
</mgrwt>
</event>
<event>
 6    1  0.1929825E-004  0.3000000E+03  0.7818608E-02  0.1093470E+00
          1   -1    0    0  502    0  0.00000000000E+00  0.00000000000E+00  0.34602024115E+02  0.34602024115E+02  0.00000000000E+00 0.  1.
         13   -1    0    0    0    0 -0.00000000000E+00 -0.00000000000E+00 -0.10000000000E+04  0.10000000000E+04  0.00000000000E+00 0.  1.
    9000005    2    1    2  501    0 -0.42917879243E+01 -0.22202105393E+02 -0.95224396267E+03  0.10084413477E+04  0.33117070275E+03 0.  0.
         13    1    3    3    0    0  0.14565889466E+03 -0.62251837733E+01 -0.24330689342E+03  0.28364328106E+03  0.00000000000E+00 0.  1.
          1    1    3    3  501    0 -0.14995068258E+03 -0.15976921620E+02 -0.70893706925E+03  0.72479806663E+03  0.00000000000E+00 0.  1.
         21    1    1    2  502  501  0.42917879243E+01  0.22202105393E+02 -0.13154013217E+02  0.26160676428E+02  0.00000000000E+00 0.  1.
<mgrwt>
<rscale>  1 0.30000000E+03</rscale>
<asrwt>0</asrwt>
<pdfrwt beam="1">  1        1 0.12582581E+00 0.30000000E+03</pdfrwt>
<pdfrwt beam="2">0</pdfrwt>
<totfact> 0.24118733E+01</totfact>
</mgrwt>
</event>
<event>
 6    1  0.1929825E-004  0.3000000E+03  0.7818608E-02  0.1093470E+00
          1   -1    0    0  502    0  0.00000000000E+00  0.00000000000E+00  0.34812463287E+02  0.34812463287E+02  0.00000000000E+00 0.  1.
         13   -1    0    0    0    0 -0.00000000000E+00 -0.00000000000E+00 -0.10000000000E+04  0.10000000000E+04  0.00000000000E+00 0.  1.
    9000005    2    1    2  501    0 -0.22854268528E+02 -0.25693882302E+02 -0.94410829469E+03  0.99447851206E+03  0.31058742031E+03 0.  0.
         13    1    3    3    0    0 -0.12887600133E+03 -0.11570385597E+03 -0.50528713772E+03  0.53414557711E+03  0.00000000000E+00 0.  1.
          1    1    3    3  501    0  0.10602173280E+03  0.90009973673E+02 -0.43882115697E+03  0.46033293494E+03  0.00000000000E+00 0.  1.
         21    1    1    2  502  501  0.22854268528E+02  0.25693882302E+02 -0.21079242021E+02  0.40333951231E+02  0.00000000000E+00 0. -1.
<mgrwt>
<rscale>  1 0.30000000E+03</rscale>
<asrwt>0</asrwt>
<pdfrwt beam="1">  1        1 0.12659104E+00 0.30000000E+03</pdfrwt>
<pdfrwt beam="2">0</pdfrwt>
<totfact> 0.23885269E+01</totfact>
</mgrwt>
</event>
<event>
 6    1  0.1929825E-004  0.3000000E+03  0.7818608E-02  0.1093470E+00
          1   -1    0    0  502    0  0.00000000000E+00  0.00000000000E+00  0.37957914686E+02  0.37957914686E+02  0.00000000000E+00 0.  1.
         13   -1    0    0    0    0 -0.00000000000E+00 -0.00000000000E+00 -0.10000000000E+04  0.10000000000E+04  0.00000000000E+00 0.  1.
    9000005    2    1    2  501    0  0.22345218337E+02  0.27978487433E+02 -0.92181806626E+03  0.98410555866E+03  0.34268513061E+03 0.  0.
         13    1    3    3    0    0 -0.56364961440E+02 -0.13305662130E+03 -0.58478517507E+03  0.60237428093E+03  0.00000000000E+00 0.  1.
          1    1    3    3  501    0  0.78710179778E+02  0.16103510873E+03 -0.33703289119E+03  0.38173127772E+03  0.00000000000E+00 0.  1.
         21    1    1    2  502  501 -0.22345218337E+02 -0.27978487433E+02 -0.40224019049E+02  0.53852356031E+02  0.00000000000E+00 0.  1.
<mgrwt>
<rscale>  1 0.30000000E+03</rscale>
<asrwt>0</asrwt>
<pdfrwt beam="1">  1        1 0.13802907E+00 0.30000000E+03</pdfrwt>
<pdfrwt beam="2">0</pdfrwt>
<totfact> 0.20721099E+01</totfact>
</mgrwt>
</event>
<event>
 6    1  0.1929825E-004  0.3000000E+03  0.7818608E-02  0.1093470E+00
          1   -1    0    0  502    0  0.00000000000E+00  0.00000000000E+00  0.33413193119E+02  0.33413193119E+02  0.00000000000E+00 0.  1.
         13   -1    0    0    0    0 -0.00000000000E+00 -0.00000000000E+00 -0.10000000000E+04  0.10000000000E+04  0.00000000000E+00 0.  1.
    9000005    2    1    2  501    0  0.86774468287E+01 -0.35207429496E+02 -0.88848121049E+03  0.94730079353E+03  0.32659618929E+03 0.  0.
         13    1    3    3    0    0 -0.88074339007E+02  0.36045891339E+02 -0.65342977796E+02  0.11543872930E+03  0.00000000000E+00 0.  1.
          3    1    3    3  501    0  0.96751785836E+02 -0.71253320835E+02 -0.82313823269E+03  0.83186206423E+03  0.00000000000E+00 0.  1.
         21    1    1    2  502  501 -0.86774468287E+01  0.35207429496E+02 -0.78105596392E+02  0.86112399589E+02  0.00000000000E+00 0.  1.
<mgrwt>
<rscale>  1 0.30000000E+03</rscale>
<asrwt>0</asrwt>
<pdfrwt beam="1">  1        1 0.12150278E+00 0.30000000E+03</pdfrwt>
<pdfrwt beam="2">0</pdfrwt>
<totfact> 0.25493975E+01</totfact>
</mgrwt>
</event>
<event>
 6    1  0.1929825E-004  0.3000000E+03  0.7818608E-02  0.1093470E+00
          1   -1    0    0  502    0  0.00000000000E+00  0.00000000000E+00  0.41820504937E+02  0.41820504937E+02  0.00000000000E+00 0.  1.
         13   -1    0    0    0    0 -0.00000000000E+00 -0.00000000000E+00 -0.10000000000E+04  0.10000000000E+04  0.00000000000E+00 0.  1.
    9000005    2    1    2  501    0  0.12838629376E+02  0.38220998349E+02 -0.84552440962E+03  0.92216749245E+03  0.36586292756E+03 0.  0.
         13    1    3    3    0    0  0.15328945093E+03 -0.58067619826E+02 -0.22294807638E+03  0.27672251264E+03  0.00000000000E+00 0.  1.
          1    1    3    3  501    0 -0.14045082156E+03  0.96288618175E+02 -0.62257633323E+03  0.64544497981E+03  0.00000000000E+00 0.  1.
         21    1    1    2  502  501 -0.12838629376E+02 -0.38220998349E+02 -0.11265508545E+03  0.11965301248E+03  0.00000000000E+00 0. -1.
<mgrwt>
<rscale>  1 0.30000000E+03</rscale>
<asrwt>0</asrwt>
<pdfrwt beam="1">  1        1 0.15207488E+00 0.30000000E+03</pdfrwt>
<pdfrwt beam="2">0</pdfrwt>
<totfact> 0.17534984E+01</totfact>
</mgrwt>
</event>
<event>
 6    1  0.1929825E-004  0.3000000E+03  0.7818608E-02  0.1093470E+00
          1   -1    0    0  502    0  0.00000000000E+00  0.00000000000E+00  0.39164648709E+02  0.39164648709E+02  0.00000000000E+00 0.  1.
         13   -1    0    0    0    0 -0.00000000000E+00 -0.00000000000E+00 -0.10000000000E+04  0.10000000000E+04  0.00000000000E+00 0.  1.
    9000005    2    1    2  501    0 -0.38697730583E+02 -0.93000771076E-01 -0.93632532980E+03  0.99335783530E+03  0.32948010975E+03 0.  0.
         13    1    3    3    0    0 -0.71782389038E+01  0.99487338267E+00 -0.95610351871E+03  0.95613098233E+03  0.00000000000E+00 0.  1.
          3    1    3    3  501    0 -0.31519491679E+02 -0.10878741537E+01  0.19778188904E+02  0.37226852972E+02  0.00000000000E+00 0.  1.
         21    1    1    2  502  501  0.38697730583E+02  0.93000771076E-01 -0.24510021489E+02  0.45806813410E+02  0.00000000000E+00 0.  1.
<mgrwt>
<rscale>  1 0.30000000E+03</rscale>
<asrwt>0</asrwt>
<pdfrwt beam="1">  1        1 0.14241720E+00 0.30000000E+03</pdfrwt>
<pdfrwt beam="2">0</pdfrwt>
<totfact> 0.19652543E+01</totfact>
</mgrwt>
</event>
<event>
 6    1  0.1929825E-004  0.3000000E+03  0.7818608E-02  0.1093470E+00
          1   -1    0    0  502    0  0.00000000000E+00  0.00000000000E+00  0.35476425530E+02  0.35476425530E+02  0.00000000000E+00 0.  1.
         13   -1    0    0    0    0 -0.00000000000E+00 -0.00000000000E+00 -0.10000000000E+04  0.10000000000E+04  0.00000000000E+00 0.  1.
    9000005    2    1    2  501    0  0.34763086557E+02  0.27590917250E+02 -0.89965136589E+03  0.95687531645E+03  0.32290565216E+03 0.  0.
         13    1    3    3    0    0  0.63879762304E+02 -0.81499490570E+02 -0.79879878796E+03  0.80548264702E+03  0.00000000000E+00 0.  1.
          3    1    3    3  501    0 -0.29116675746E+02  0.10909040782E+03 -0.10085257792E+03  0.15139266944E+03  0.00000000000E+00 0.  1.
         21    1    1    2  502  501 -0.34763086557E+02 -0.27590917250E+02 -0.64872208583E+02  0.78601109077E+02  0.00000000000E+00 0.  1.
<mgrwt>
<rscale>  1 0.30000000E+03</rscale>
<asrwt>0</asrwt>
<pdfrwt beam="1">  1        1 0.12900546E+00 0.30000000E+03</pdfrwt>
<pdfrwt beam="2">0</pdfrwt>
<totfact> 0.23167387E+01</totfact>
</mgrwt>
</event>
<event>
 6    1  0.1929825E-004  0.3000000E+03  0.7818608E-02  0.1093470E+00
          1   -1    0    0  502    0  0.00000000000E+00  0.00000000000E+00  0.28902398177E+02  0.28902398177E+02  0.00000000000E+00 0.  1.
         13   -1    0    0    0    0 -0.00000000000E+00 -0.00000000000E+00 -0.10000000000E+04  0.10000000000E+04  0.00000000000E+00 0.  1.
    9000005    2    1    2  501    0  0.40480211778E+01  0.90703630442E+01 -0.96707210254E+03  0.10181850008E+04  0.31839218971E+03 0.  0.
         13    1    3    3    0    0  0.55866319605E+02  0.12181091633E+03 -0.79400567778E+03  0.80523534532E+03  0.00000000000E+00 0.  1.
          1    1    3    3  501    0 -0.51818298427E+02 -0.11274055329E+03 -0.17306642475E+03  0.21294965552E+03  0.00000000000E+00 0.  1.
         21    1    1    2  502  501 -0.40480211778E+01 -0.90703630442E+01 -0.40254992881E+01  0.10717397339E+02  0.00000000000E+00 0.  1.
<mgrwt>
<rscale>  1 0.30000000E+03</rscale>
<asrwt>0</asrwt>
<pdfrwt beam="1">  1        1 0.10509985E+00 0.30000000E+03</pdfrwt>
<pdfrwt beam="2">0</pdfrwt>
<totfact> 0.31807784E+01</totfact>
</mgrwt>
</event>
<event>
 6    1  0.1929825E-004  0.3000000E+03  0.7818608E-02  0.1093470E+00
          1   -1    0    0  502    0  0.00000000000E+00  0.00000000000E+00  0.41748747820E+02  0.41748747820E+02  0.00000000000E+00 0.  1.
         13   -1    0    0    0    0 -0.00000000000E+00 -0.00000000000E+00 -0.10000000000E+04  0.10000000000E+04  0.00000000000E+00 0.  1.
    9000005    2    1    2  501    0 -0.43238213503E+01 -0.59805712792E+02 -0.78099350129E+03  0.85462384578E+03  0.34181230230E+03 0.  0.
         13    1    3    3    0    0 -0.15476631468E+03  0.12365908953E+02 -0.21948514783E+03  0.26884802023E+03  0.00000000000E+00 0.  1.
          1    1    3    3  501    0  0.15044249333E+03 -0.72171621745E+02 -0.56150835346E+03  0.58577582555E+03  0.00000000000E+00 0.  1.
         21    1    1    2  502  501  0.43238213503E+01  0.59805712792E+02 -0.17725775089E+03  0.18712490204E+03  0.00000000000E+00 0.  1.
<mgrwt>
<rscale>  1 0.30000000E+03</rscale>
<asrwt>0</asrwt>
<pdfrwt beam="1">  1        1 0.15181395E+00 0.30000000E+03</pdfrwt>
<pdfrwt beam="2">0</pdfrwt>
<totfact> 0.17588357E+01</totfact>
</mgrwt>
</event>
<event>
 6    1  0.1929825E-004  0.3000000E+03  0.7818608E-02  0.1093470E+00
          1   -1    0    0  502    0  0.00000000000E+00  0.00000000000E+00  0.67979847987E+02  0.67979847987E+02  0.00000000000E+00 0.  1.
         13   -1    0    0    0    0 -0.00000000000E+00 -0.00000000000E+00 -0.10000000000E+04  0.10000000000E+04  0.00000000000E+00 0.  1.
    9000005    2    1    2  501    0 -0.32341684288E+02 -0.23478463858E+02 -0.96209280994E+03  0.10179639749E+04  0.33019820777E+03 0.  0.
         13    1    3    3    0    0  0.10348128747E+03 -0.62345968577E+02 -0.77051702925E+03  0.77993069501E+03  0.00000000000E+00 0.  1.
          3    1    3    3  501    0 -0.13582297176E+03  0.38867504719E+02 -0.19157578069E+03  0.23803327987E+03  0.00000000000E+00 0.  1.
         21    1    1    2  502  501  0.32341684288E+02  0.23478463858E+02  0.30072657926E+02  0.50015873105E+02  0.00000000000E+00 0.  1.
<mgrwt>
<rscale>  1 0.30000000E+03</rscale>
<asrwt>0</asrwt>
<pdfrwt beam="1">  1        1 0.24719997E+00 0.30000000E+03</pdfrwt>
<pdfrwt beam="2">0</pdfrwt>
<totfact> 0.61480111E+00</totfact>
</mgrwt>
</event>
<event>
 6    1  0.1929825E-004  0.3000000E+03  0.7818608E-02  0.1093470E+00
          1   -1    0    0  502    0  0.00000000000E+00  0.00000000000E+00  0.39328507671E+02  0.39328507671E+02  0.00000000000E+00 0.  1.
         13   -1    0    0    0    0 -0.00000000000E+00 -0.00000000000E+00 -0.10000000000E+04  0.10000000000E+04  0.00000000000E+00 0.  1.
    9000005    2    1    2  501    0  0.78853421693E+01  0.85393382201E+01 -0.96989462586E+03  0.10244905459E+04  0.32977294368E+03 0.  0.
         13    1    3    3    0    0  0.81931771096E+02 -0.13858177655E+03 -0.39729437673E+03  0.42867300555E+03  0.00000000000E+00 0.  1.
          1    1    3    3  501    0 -0.74046428927E+02  0.14712111477E+03 -0.57260024913E+03  0.59581754032E+03  0.00000000000E+00 0.  1.
         21    1    1    2  502  501 -0.78853421693E+01 -0.85393382201E+01  0.92231335303E+01  0.14837961803E+02  0.00000000000E+00 0.  1.
<mgrwt>
<rscale>  1 0.30000000E+03</rscale>
<asrwt>0</asrwt>
<pdfrwt beam="1">  1        1 0.14301306E+00 0.30000000E+03</pdfrwt>
<pdfrwt beam="2">0</pdfrwt>
<totfact> 0.19512896E+01</totfact>
</mgrwt>
</event>
<event>
 6    1  0.1929825E-004  0.3000000E+03  0.7818608E-02  0.1093470E+00
          3   -1    0    0  502    0  0.00000000000E+00  0.00000000000E+00  0.26379971762E+02  0.26379971762E+02  0.00000000000E+00 0.  1.
         13   -1    0    0    0    0 -0.00000000000E+00 -0.00000000000E+00 -0.10000000000E+04  0.10000000000E+04  0.00000000000E+00 0.  1.
    9000005    2    1    2  501    0 -0.42125963066E+01  0.11399567640E+02 -0.95634657089E+03  0.10052596394E+04  0.30951653083E+03 0.  0.
         13    1    3    3    0    0  0.12632168414E+03  0.48784074393E+01 -0.19240497005E+03  0.23021867701E+03  0.00000000000E+00 0.  1.
          3    1    3    3  501    0 -0.13053428045E+03  0.65211602005E+01 -0.76394160084E+03  0.77504096240E+03  0.00000000000E+00 0.  1.
         21    1    1    2  502  501  0.42125963066E+01 -0.11399567640E+02 -0.17273457353E+02  0.21120332358E+02  0.00000000000E+00 0.  1.
<mgrwt>
<rscale>  1 0.30000000E+03</rscale>
<asrwt>0</asrwt>
<pdfrwt beam="1">  1        3 0.95927372E-01 0.30000000E+03</pdfrwt>
<pdfrwt beam="2">0</pdfrwt>
<totfact> 0.43595985E+00</totfact>
</mgrwt>
</event>
<event>
 6    1  0.1929825E-004  0.3000000E+03  0.7818608E-02  0.1093470E+00
          1   -1    0    0  502    0  0.00000000000E+00  0.00000000000E+00  0.41454687763E+02  0.41454687763E+02  0.00000000000E+00 0.  1.
         13   -1    0    0    0    0 -0.00000000000E+00 -0.00000000000E+00 -0.10000000000E+04  0.10000000000E+04  0.00000000000E+00 0.  1.
    9000005    2    1    2  501    0 -0.12821475040E+02  0.17168633660E+02 -0.96107136008E+03  0.10198784712E+04  0.34063878908E+03 0.  0.
         13    1    3    3    0    0 -0.12498584301E+03 -0.11194236909E+03 -0.41443814496E+03  0.44711467316E+03  0.00000000000E+00 0.  1.
          3    1    3    3  501    0  0.11216436797E+03  0.12911100275E+03 -0.54663321511E+03  0.57276379803E+03  0.00000000000E+00 0.  1.
         21    1    1    2  502  501  0.12821475040E+02 -0.17168633660E+02  0.25260478420E+01  0.21576216574E+02  0.00000000000E+00 0.  1.
<mgrwt>
<rscale>  1 0.30000000E+03</rscale>
<asrwt>0</asrwt>
<pdfrwt beam="1">  1        1 0.15074464E+00 0.30000000E+03</pdfrwt>
<pdfrwt beam="2">0</pdfrwt>
<totfact> 0.17809170E+01</totfact>
</mgrwt>
</event>
<event>
 6    1  0.1929825E-004  0.3000000E+03  0.7818608E-02  0.1093470E+00
          1   -1    0    0  502    0  0.00000000000E+00  0.00000000000E+00  0.70683276896E+02  0.70683276896E+02  0.00000000000E+00 0.  1.
         13   -1    0    0    0    0 -0.00000000000E+00 -0.00000000000E+00 -0.10000000000E+04  0.10000000000E+04  0.00000000000E+00 0.  1.
    9000005    2    1    2  501    0 -0.45660736825E+02 -0.30635353694E+02 -0.95545451938E+03  0.10098013241E+04  0.32215205688E+03 0.  0.
         13    1    3    3    0    0 -0.41650319395E+02 -0.12167246343E+03 -0.88584337573E+03  0.89512983628E+03  0.00000000000E+00 0.  1.
          3    1    3    3  501    0 -0.40104174300E+01  0.91037109739E+02 -0.69611143648E+02  0.11467148781E+03  0.00000000000E+00 0.  1.
         21    1    1    2  502  501  0.45660736825E+02  0.30635353694E+02  0.26137796275E+02  0.60881952806E+02  0.00000000000E+00 0.  1.
<mgrwt>
<rscale>  1 0.30000000E+03</rscale>
<asrwt>0</asrwt>
<pdfrwt beam="1">  1        1 0.25703064E+00 0.30000000E+03</pdfrwt>
<pdfrwt beam="2">0</pdfrwt>
<totfact> 0.55326001E+00</totfact>
</mgrwt>
</event>
<event>
 6    1  0.1929825E-004  0.3000000E+03  0.7818608E-02  0.1093470E+00
          1   -1    0    0  502    0  0.00000000000E+00  0.00000000000E+00  0.44771188503E+02  0.44771188503E+02  0.00000000000E+00 0.  1.
         13   -1    0    0    0    0 -0.00000000000E+00 -0.00000000000E+00 -0.10000000000E+04  0.10000000000E+04  0.00000000000E+00 0.  1.
    9000005    2    1    2  501    0  0.10558117775E+01  0.12899557400E+02 -0.96980429650E+03  0.10252786750E+04  0.33242814951E+03 0.  0.
         13    1    3    3    0    0  0.12993247158E+03 -0.18532439032E+01 -0.16469540223E+03  0.20978669452E+03  0.00000000000E+00 0.  1.
          3    1    3    3  501    0 -0.12887665981E+03  0.14752801303E+02 -0.80510889427E+03  0.81549198048E+03  0.00000000000E+00 0.  1.
         21    1    1    2  502  501 -0.10558117775E+01 -0.12899557400E+02  0.14575485000E+02  0.19492513501E+02  0.00000000000E+00 0.  1.
<mgrwt>
<rscale>  1 0.30000000E+03</rscale>
<asrwt>0</asrwt>
<pdfrwt beam="1">  1        1 0.16280467E+00 0.30000000E+03</pdfrwt>
<pdfrwt beam="2">0</pdfrwt>
<totfact> 0.15499058E+01</totfact>
</mgrwt>
</event>
<event>
 6    1  0.1929825E-004  0.3000000E+03  0.7818608E-02  0.1093470E+00
          1   -1    0    0  502    0  0.00000000000E+00  0.00000000000E+00  0.30299621575E+02  0.30299621575E+02  0.00000000000E+00 0.  1.
         13   -1    0    0    0    0 -0.00000000000E+00 -0.00000000000E+00 -0.10000000000E+04  0.10000000000E+04  0.00000000000E+00 0.  1.
    9000005    2    1    2  501    0 -0.77278707861E+01  0.33063195325E+01 -0.93995435723E+03  0.99938882229E+03  0.33940119726E+03 0.  0.
         13    1    3    3    0    0  0.15464879637E+03 -0.37580195473E+02 -0.59537984433E+03  0.61628376609E+03  0.00000000000E+00 0.  1.
          3    1    3    3  501    0 -0.16237666715E+03  0.40886515005E+02 -0.34457451290E+03  0.38310505620E+03  0.00000000000E+00 0.  1.
         21    1    1    2  502  501  0.77278707861E+01 -0.33063195325E+01 -0.29746021195E+02  0.30910799288E+02  0.00000000000E+00 0.  1.
<mgrwt>
<rscale>  1 0.30000000E+03</rscale>
<asrwt>0</asrwt>
<pdfrwt beam="1">  1        1 0.11018067E+00 0.30000000E+03</pdfrwt>
<pdfrwt beam="2">0</pdfrwt>
<totfact> 0.29636102E+01</totfact>
</mgrwt>
</event>
<event>
 6    1  0.1929825E-004  0.3000000E+03  0.7818608E-02  0.1093470E+00
          1   -1    0    0  502    0  0.00000000000E+00  0.00000000000E+00  0.98494136180E+02  0.98494136180E+02  0.00000000000E+00 0.  1.
         13   -1    0    0    0    0 -0.00000000000E+00 -0.00000000000E+00 -0.10000000000E+04  0.10000000000E+04  0.00000000000E+00 0.  1.
    9000005    2    1    2  501    0  0.26186761359E+02  0.23337500893E+02 -0.94174430453E+03  0.10451132639E+04  0.45182852253E+03 0.  0.
         13    1    3    3    0    0 -0.21218128179E+03  0.31240967282E+02 -0.46217921352E+03  0.50951596617E+03  0.00000000000E+00 0.  1.
          3    1    3    3  501    0  0.23836804315E+03 -0.79034663889E+01 -0.47956509101E+03  0.53559729769E+03  0.00000000000E+00 0.  1.
         21    1    1    2  502  501 -0.26186761359E+02 -0.23337500893E+02  0.40238440712E+02  0.53380872317E+02  0.00000000000E+00 0.  1.
<mgrwt>
<rscale>  1 0.30000000E+03</rscale>
<asrwt>0</asrwt>
<pdfrwt beam="1">  1        1 0.35816125E+00 0.30000000E+03</pdfrwt>
<pdfrwt beam="2">0</pdfrwt>
<totfact> 0.17858807E+00</totfact>
</mgrwt>
</event>
<event>
 6    1  0.1929825E-004  0.3000000E+03  0.7818608E-02  0.1093470E+00
          1   -1    0    0  502    0  0.00000000000E+00  0.00000000000E+00  0.38853235008E+02  0.38853235008E+02  0.00000000000E+00 0.  1.
         13   -1    0    0    0    0 -0.00000000000E+00 -0.00000000000E+00 -0.10000000000E+04  0.10000000000E+04  0.00000000000E+00 0.  1.
    9000005    2    1    2  501    0 -0.14560936213E+01  0.31997376218E+02 -0.94548310104E+03  0.10031979035E+04  0.33382897871E+03 0.  0.
         13    1    3    3    0    0  0.14904549494E+03  0.88478946745E+02 -0.53418520210E+03  0.56160209555E+03  0.00000000000E+00 0.  1.
          1    1    3    3  501    0 -0.15050158856E+03 -0.56481570527E+02 -0.41129789894E+03  0.44159580800E+03  0.00000000000E+00 0.  1.
         21    1    1    2  502  501  0.14560936213E+01 -0.31997376218E+02 -0.15663663951E+02  0.35655331464E+02  0.00000000000E+00 0.  1.
<mgrwt>
<rscale>  1 0.30000000E+03</rscale>
<asrwt>0</asrwt>
<pdfrwt beam="1">  1        1 0.14128479E+00 0.30000000E+03</pdfrwt>
<pdfrwt beam="2">0</pdfrwt>
<totfact> 0.19921453E+01</totfact>
</mgrwt>
</event>
<event>
 6    1  0.1929825E-004  0.3000000E+03  0.7818608E-02  0.1093470E+00
          1   -1    0    0  502    0  0.00000000000E+00  0.00000000000E+00  0.39296783631E+02  0.39296783631E+02  0.00000000000E+00 0.  1.
         13   -1    0    0    0    0 -0.00000000000E+00 -0.00000000000E+00 -0.10000000000E+04  0.10000000000E+04  0.00000000000E+00 0.  1.
    9000005    2    1    2  501    0 -0.25751250127E+01  0.20665220948E+02 -0.95917610572E+03  0.10184158188E+04  0.34164059413E+03 0.  0.
         13    1    3    3    0    0 -0.14035459381E+03 -0.87695301130E+02 -0.41849473378E+03  0.45003079900E+03  0.00000000000E+00 0.  1.
          1    1    3    3  501    0  0.13777946880E+03  0.10836052208E+03 -0.54068137194E+03  0.56838501979E+03  0.00000000000E+00 0.  1.
         21    1    1    2  502  501  0.25751250127E+01 -0.20665220948E+02 -0.15271106520E+01  0.20880964839E+02  0.00000000000E+00 0.  1.
<mgrwt>
<rscale>  1 0.30000000E+03</rscale>
<asrwt>0</asrwt>
<pdfrwt beam="1">  1        1 0.14289770E+00 0.30000000E+03</pdfrwt>
<pdfrwt beam="2">0</pdfrwt>
<totfact> 0.19539834E+01</totfact>
</mgrwt>
</event>
<event>
 6    1  0.1929825E-004  0.3000000E+03  0.7818608E-02  0.1093470E+00
          1   -1    0    0  502    0  0.00000000000E+00  0.00000000000E+00  0.49451343737E+02  0.49451343737E+02  0.00000000000E+00 0.  1.
         13   -1    0    0    0    0 -0.00000000000E+00 -0.00000000000E+00 -0.10000000000E+04  0.10000000000E+04  0.00000000000E+00 0.  1.
    9000005    2    1    2  501    0 -0.43396997365E+02  0.15957757933E+02 -0.94823827720E+03  0.10031556931E+04  0.32407956551E+03 0.  0.
         13    1    3    3    0    0  0.13172560710E+03 -0.46004388022E+02 -0.46336614599E+03  0.48391758031E+03  0.00000000000E+00 0.  1.
          3    1    3    3  501    0 -0.17512260446E+03  0.61962145955E+02 -0.48487213121E+03  0.51923811276E+03  0.00000000000E+00 0.  1.
         21    1    1    2  502  501  0.43396997365E+02 -0.15957757933E+02 -0.23103790608E+01  0.46295650659E+02  0.00000000000E+00 0. -1.
<mgrwt>
<rscale>  1 0.30000000E+03</rscale>
<asrwt>0</asrwt>
<pdfrwt beam="1">  1        1 0.17982345E+00 0.30000000E+03</pdfrwt>
<pdfrwt beam="2">0</pdfrwt>
<totfact> 0.12799596E+01</totfact>
</mgrwt>
</event>
<event>
 6    1  0.1929825E-004  0.3000000E+03  0.7818608E-02  0.1093470E+00
          1   -1    0    0  502    0  0.00000000000E+00  0.00000000000E+00  0.30587123533E+02  0.30587123533E+02  0.00000000000E+00 0.  1.
         13   -1    0    0    0    0 -0.00000000000E+00 -0.00000000000E+00 -0.10000000000E+04  0.10000000000E+04  0.00000000000E+00 0.  1.
    9000005    2    1    2  501    0 -0.24789215013E+02  0.18692466257E+01 -0.88028521733E+03  0.93805745863E+03  0.32315898963E+03 0.  0.
         13    1    3    3    0    0  0.43048145105E+02  0.31654267424E+01 -0.86803884459E+03  0.86911138437E+03  0.00000000000E+00 0.  1.
          3    1    3    3  501    0 -0.67837360119E+02 -0.12961801167E+01 -0.12246372741E+02  0.68946074261E+02  0.00000000000E+00 0.  1.
         21    1    1    2  502  501  0.24789215013E+02 -0.18692466257E+01 -0.89127659135E+02  0.92529664901E+02  0.00000000000E+00 0.  1.
<mgrwt>
<rscale>  1 0.30000000E+03</rscale>
<asrwt>0</asrwt>
<pdfrwt beam="1">  1        1 0.11122614E+00 0.30000000E+03</pdfrwt>
<pdfrwt beam="2">0</pdfrwt>
<totfact> 0.29215595E+01</totfact>
</mgrwt>
</event>
<event>
 6    1  0.1929825E-004  0.3000000E+03  0.7818608E-02  0.1093470E+00
          1   -1    0    0  502    0  0.00000000000E+00  0.00000000000E+00  0.39307948926E+02  0.39307948926E+02  0.00000000000E+00 0.  1.
         13   -1    0    0    0    0 -0.00000000000E+00 -0.00000000000E+00 -0.10000000000E+04  0.10000000000E+04  0.00000000000E+00 0.  1.
    9000005    2    1    2  501    0 -0.28368600217E+02  0.23497614273E+02 -0.94209301147E+03  0.99804247148E+03  0.32740283637E+03 0.  0.
         13    1    3    3    0    0  0.25343676171E+02 -0.14179471381E+03 -0.56086113035E+03  0.57906238897E+03  0.00000000000E+00 0.  1.
          1    1    3    3  501    0 -0.53712276389E+02  0.16529232808E+03 -0.38123188112E+03  0.41898008251E+03  0.00000000000E+00 0.  1.
         21    1    1    2  502  501  0.28368600217E+02 -0.23497614273E+02 -0.18599039608E+02  0.41265477450E+02  0.00000000000E+00 0.  1.
<mgrwt>
<rscale>  1 0.30000000E+03</rscale>
<asrwt>0</asrwt>
<pdfrwt beam="1">  1        1 0.14293830E+00 0.30000000E+03</pdfrwt>
<pdfrwt beam="2">0</pdfrwt>
<totfact> 0.19530348E+01</totfact>
</mgrwt>
</event>
<event>
 6    1  0.1929825E-004  0.3000000E+03  0.7818608E-02  0.1093470E+00
          1   -1    0    0  502    0  0.00000000000E+00  0.00000000000E+00  0.41111741628E+02  0.41111741628E+02  0.00000000000E+00 0.  1.
         13   -1    0    0    0    0 -0.00000000000E+00 -0.00000000000E+00 -0.10000000000E+04  0.10000000000E+04  0.00000000000E+00 0.  1.
    9000005    2    1    2  501    0 -0.22164114280E+02 -0.29594389141E+02 -0.94921097849E+03  0.10028923019E+04  0.32159665983E+03 0.  0.
         13    1    3    3    0    0  0.17034992476E+01 -0.17123804521E+03 -0.39809084600E+03  0.43336092545E+03  0.00000000000E+00 0.  1.
          1    1    3    3  501    0 -0.23867613528E+02  0.14164365607E+03 -0.55112013249E+03  0.56953137641E+03  0.00000000000E+00 0.  1.
         21    1    1    2  502  501  0.22164114280E+02  0.29594389141E+02 -0.96772798849E+01  0.38219439771E+02  0.00000000000E+00 0.  1.
<mgrwt>
<rscale>  1 0.30000000E+03</rscale>
<asrwt>0</asrwt>
<pdfrwt beam="1">  1        1 0.14949756E+00 0.30000000E+03</pdfrwt>
<pdfrwt beam="2">0</pdfrwt>
<totfact> 0.18071024E+01</totfact>
</mgrwt>
</event>
<event>
 6    1  0.1929825E-004  0.3000000E+03  0.7818608E-02  0.1093470E+00
          1   -1    0    0  502    0  0.00000000000E+00  0.00000000000E+00  0.35403554053E+02  0.35403554053E+02  0.00000000000E+00 0.  1.
         13   -1    0    0    0    0 -0.00000000000E+00 -0.00000000000E+00 -0.10000000000E+04  0.10000000000E+04  0.00000000000E+00 0.  1.
    9000005    2    1    2  501    0 -0.98981788671E+01 -0.33653495478E+01 -0.97456238621E+03  0.10209598880E+04  0.30410187252E+03 0.  0.
         13    1    3    3    0    0  0.63156182906E+02  0.28744609569E+02 -0.34457721805E+02  0.77474451340E+02  0.00000000000E+00 0.  1.
          3    1    3    3  501    0 -0.73054361773E+02 -0.32109959117E+02 -0.94010466440E+03  0.94348543671E+03  0.00000000000E+00 0.  1.
         21    1    1    2  502  501  0.98981788671E+01  0.33653495478E+01  0.99659402587E+01  0.14443666006E+02  0.00000000000E+00 0.  1.
<mgrwt>
<rscale>  1 0.30000000E+03</rscale>
<asrwt>0</asrwt>
<pdfrwt beam="1">  1        1 0.12874047E+00 0.30000000E+03</pdfrwt>
<pdfrwt beam="2">0</pdfrwt>
<totfact> 0.23244807E+01</totfact>
</mgrwt>
</event>
<event>
 6    1  0.1929825E-004  0.3000000E+03  0.7818608E-02  0.1093470E+00
          1   -1    0    0  502    0  0.00000000000E+00  0.00000000000E+00  0.19722493672E+02  0.19722493672E+02  0.00000000000E+00 0.  1.
         13   -1    0    0    0    0 -0.00000000000E+00 -0.00000000000E+00 -0.10000000000E+04  0.10000000000E+04  0.00000000000E+00 0.  1.
    9000005    2    1    2  501    0  0.10640486278E+02  0.10308637577E+02 -0.95876700550E+03  0.99360373407E+03  0.26037419530E+03 0.  0.
         13    1    3    3    0    0  0.38695023677E+02  0.19460274955E+02 -0.10096155257E+02  0.44474031858E+02  0.00000000000E+00 0.  1.
          3    1    3    3  501    0 -0.28054537399E+02 -0.91516373773E+01 -0.94867085024E+03  0.94912970222E+03  0.00000000000E+00 0.  1.
         21    1    1    2  502  501 -0.10640486278E+02 -0.10308637577E+02 -0.21510500832E+02  0.26118759599E+02  0.00000000000E+00 0. -1.
<mgrwt>
<rscale>  1 0.30000000E+03</rscale>
<asrwt>0</asrwt>
<pdfrwt beam="1">  1        1 0.71718310E-01 0.30000000E+03</pdfrwt>
<pdfrwt beam="2">0</pdfrwt>
<totfact> 0.54556443E+01</totfact>
</mgrwt>
</event>
<event>
 6    1  0.1929825E-004  0.3000000E+03  0.7818608E-02  0.1093470E+00
          1   -1    0    0  502    0  0.00000000000E+00  0.00000000000E+00  0.44577598258E+02  0.44577598258E+02  0.00000000000E+00 0.  1.
         13   -1    0    0    0    0 -0.00000000000E+00 -0.00000000000E+00 -0.10000000000E+04  0.10000000000E+04  0.00000000000E+00 0.  1.
    9000005    2    1    2  501    0 -0.12521638356E+01  0.13680056591E+02 -0.97099916672E+03  0.10238086919E+04  0.32427788090E+03 0.  0.
         13    1    3    3    0    0 -0.29321006152E+02 -0.14747744850E+03 -0.59614797816E+03  0.61481845375E+03  0.00000000000E+00 0.  1.
          3    1    3    3  501    0  0.28068842317E+02  0.16115750509E+03 -0.37485118857E+03  0.40899023818E+03  0.00000000000E+00 0.  1.
         21    1    1    2  502  501  0.12521638356E+01 -0.13680056591E+02  0.15576764982E+02  0.20768906324E+02  0.00000000000E+00 0.  1.
<mgrwt>
<rscale>  1 0.30000000E+03</rscale>
<asrwt>0</asrwt>
<pdfrwt beam="1">  1        1 0.16210070E+00 0.30000000E+03</pdfrwt>
<pdfrwt beam="2">0</pdfrwt>
<totfact> 0.15623811E+01</totfact>
</mgrwt>
</event>
<event>
 6    1  0.1929825E-004  0.3000000E+03  0.7818608E-02  0.1093470E+00
          1   -1    0    0  502    0  0.00000000000E+00  0.00000000000E+00  0.37719054344E+02  0.37719054344E+02  0.00000000000E+00 0.  1.
         13   -1    0    0    0    0 -0.00000000000E+00 -0.00000000000E+00 -0.10000000000E+04  0.10000000000E+04  0.00000000000E+00 0.  1.
    9000005    2    1    2  501    0  0.57830660312E+01 -0.11747344283E+02 -0.96962429871E+03  0.10227067666E+04  0.32494061885E+03 0.  0.
         13    1    3    3    0    0  0.98848856863E+02  0.24871591999E+02 -0.88739957369E+03  0.89323440147E+03  0.00000000000E+00 0.  1.
          3    1    3    3  501    0 -0.93065790832E+02 -0.36618936282E+02 -0.82224725016E+02  0.12947236509E+03  0.00000000000E+00 0.  1.
         21    1    1    2  502  501 -0.57830660312E+01  0.11747344283E+02  0.73433530497E+01  0.15012287782E+02  0.00000000000E+00 0. -1.
<mgrwt>
<rscale>  1 0.30000000E+03</rscale>
<asrwt>0</asrwt>
<pdfrwt beam="1">  1        1 0.13716049E+00 0.30000000E+03</pdfrwt>
<pdfrwt beam="2">0</pdfrwt>
<totfact> 0.20941335E+01</totfact>
</mgrwt>
</event>
<event>
 6    1  0.1929825E-004  0.3000000E+03  0.7818608E-02  0.1093470E+00
          1   -1    0    0  502    0  0.00000000000E+00  0.00000000000E+00  0.32861886571E+02  0.32861886571E+02  0.00000000000E+00 0.  1.
         13   -1    0    0    0    0 -0.00000000000E+00 -0.00000000000E+00 -0.10000000000E+04  0.10000000000E+04  0.00000000000E+00 0.  1.
    9000005    2    1    2  501    0  0.92582824325E+01 -0.10601119915E+02 -0.96336899550E+03  0.10182911698E+04  0.32960428620E+03 0.  0.
         13    1    3    3    0    0  0.14784022985E+03  0.50877648081E+02 -0.30556182458E+03  0.34323941685E+03  0.00000000000E+00 0.  1.
          3    1    3    3  501    0 -0.13858194742E+03 -0.61478767996E+02 -0.65780717092E+03  0.67505175296E+03  0.00000000000E+00 0.  1.
         21    1    1    2  502  501 -0.92582824325E+01  0.10601119915E+02 -0.37691179290E+01  0.14570716764E+02  0.00000000000E+00 0. -1.
<mgrwt>
<rscale>  1 0.30000000E+03</rscale>
<asrwt>0</asrwt>
<pdfrwt beam="1">  1        1 0.11949802E+00 0.30000000E+03</pdfrwt>
<pdfrwt beam="2">0</pdfrwt>
<totfact> 0.26166663E+01</totfact>
</mgrwt>
</event>
<event>
 6    1  0.1929825E-004  0.3000000E+03  0.7818608E-02  0.1093470E+00
          1   -1    0    0  502    0  0.00000000000E+00  0.00000000000E+00  0.29064119799E+02  0.29064119799E+02  0.00000000000E+00 0.  1.
         13   -1    0    0    0    0 -0.00000000000E+00 -0.00000000000E+00 -0.10000000000E+04  0.10000000000E+04  0.00000000000E+00 0.  1.
    9000005    2    1    2  501    0  0.50247673182E+01  0.61690177465E+01 -0.94834434146E+03  0.10051124458E+04  0.33291250138E+03 0.  0.
         13    1    3    3    0    0  0.16439929167E+03  0.38054080023E+02 -0.53410584552E+03  0.56012881940E+03  0.00000000000E+00 0.  1.
          1    1    3    3  501    0 -0.15937452435E+03 -0.31885062277E+02 -0.41423849594E+03  0.44498362636E+03  0.00000000000E+00 0.  1.
         21    1    1    2  502  501 -0.50247673182E+01 -0.61690177465E+01 -0.22591538743E+02  0.23951674040E+02  0.00000000000E+00 0. -1.
<mgrwt>
<rscale>  1 0.30000000E+03</rscale>
<asrwt>0</asrwt>
<pdfrwt beam="1">  1        1 0.10568793E+00 0.30000000E+03</pdfrwt>
<pdfrwt beam="2">0</pdfrwt>
<totfact> 0.31544944E+01</totfact>
</mgrwt>
</event>
<event>
 6    1  0.1929825E-004  0.3000000E+03  0.7818608E-02  0.1093470E+00
          1   -1    0    0  502    0  0.00000000000E+00  0.00000000000E+00  0.29274885179E+02  0.29274885179E+02  0.00000000000E+00 0.  1.
         13   -1    0    0    0    0 -0.00000000000E+00 -0.00000000000E+00 -0.10000000000E+04  0.10000000000E+04  0.00000000000E+00 0.  1.
    9000005    2    1    2  501    0  0.14839990929E+02  0.10750095967E+02 -0.92214081237E+03  0.97734970498E+03  0.32331560138E+03 0.  0.
         13    1    3    3    0    0  0.78510755094E+01 -0.55642040429E+02 -0.35168393768E+01  0.56303145640E+02  0.00000000000E+00 0.  1.
          3    1    3    3  501    0  0.69889154192E+01  0.66392136396E+02 -0.91862397300E+03  0.92104655934E+03  0.00000000000E+00 0.  1.
         21    1    1    2  502  501 -0.14839990929E+02 -0.10750095967E+02 -0.48584302449E+02  0.51925180197E+02  0.00000000000E+00 0.  1.
<mgrwt>
<rscale>  1 0.30000000E+03</rscale>
<asrwt>0</asrwt>
<pdfrwt beam="1">  1        1 0.10645435E+00 0.30000000E+03</pdfrwt>
<pdfrwt beam="2">0</pdfrwt>
<totfact> 0.31207073E+01</totfact>
</mgrwt>
</event>
<event>
 6    1  0.1929825E-004  0.3000000E+03  0.7818608E-02  0.1093470E+00
          1   -1    0    0  502    0  0.00000000000E+00  0.00000000000E+00  0.29718713950E+02  0.29718713950E+02  0.00000000000E+00 0.  1.
         13   -1    0    0    0    0 -0.00000000000E+00 -0.00000000000E+00 -0.10000000000E+04  0.10000000000E+04  0.00000000000E+00 0.  1.
    9000005    2    1    2  501    0  0.10556114265E+02 -0.90336658203E+01 -0.96228843273E+03  0.10136898534E+04  0.31839449185E+03 0.  0.
         13    1    3    3    0    0 -0.10311488124E+02 -0.89887500320E+02 -0.62336711337E+02  0.10987244915E+03  0.00000000000E+00 0.  1.
          1    1    3    3  501    0  0.20867602388E+02  0.80853834500E+02 -0.89995172139E+03  0.90381740425E+03  0.00000000000E+00 0.  1.
         21    1    1    2  502  501 -0.10556114265E+02  0.90336658203E+01 -0.79928533212E+01  0.16028860556E+02  0.00000000000E+00 0. -1.
<mgrwt>
<rscale>  1 0.30000000E+03</rscale>
<asrwt>0</asrwt>
<pdfrwt beam="1">  1        1 0.10806828E+00 0.30000000E+03</pdfrwt>
<pdfrwt beam="2">0</pdfrwt>
<totfact> 0.30512394E+01</totfact>
</mgrwt>
</event>
<event>
 6    1  0.1929825E-004  0.3000000E+03  0.7818608E-02  0.1093470E+00
          1   -1    0    0  502    0  0.00000000000E+00  0.00000000000E+00  0.44906350315E+02  0.44906350315E+02  0.00000000000E+00 0.  1.
         13   -1    0    0    0    0 -0.00000000000E+00 -0.00000000000E+00 -0.10000000000E+04  0.10000000000E+04  0.00000000000E+00 0.  1.
    9000005    2    1    2  501    0  0.15339534688E+03  0.35256485875E+02 -0.65935658448E+03  0.70989356850E+03  0.21077148969E+03 0.  0.
         13    1    3    3    0    0  0.13684327118E+03 -0.71853547097E+02 -0.39775049850E+03  0.42672528886E+03  0.00000000000E+00 0.  1.
          3    1    3    3  501    0  0.16552075702E+02  0.10711003297E+03 -0.26160608598E+03  0.28316827964E+03  0.00000000000E+00 0.  1.
         21    1    1    2  502  501 -0.15339534688E+03 -0.35256485875E+02 -0.29573706521E+03  0.33501278181E+03  0.00000000000E+00 0.  1.
<mgrwt>
<rscale>  1 0.30000000E+03</rscale>
<asrwt>0</asrwt>
<pdfrwt beam="1">  1        1 0.16329616E+00 0.30000000E+03</pdfrwt>
<pdfrwt beam="2">0</pdfrwt>
<totfact> 0.15412638E+01</totfact>
</mgrwt>
</event>
<event>
 6    1  0.1929825E-004  0.3000000E+03  0.7818608E-02  0.1093470E+00
          1   -1    0    0  502    0  0.00000000000E+00  0.00000000000E+00  0.58246304206E+02  0.58246304206E+02  0.00000000000E+00 0.  1.
         13   -1    0    0    0    0 -0.00000000000E+00 -0.00000000000E+00 -0.10000000000E+04  0.10000000000E+04  0.00000000000E+00 0.  1.
    9000005    2    1    2  501    0 -0.44538916159E+02  0.55258088999E+02 -0.91898255661E+03  0.98370976127E+03  0.34368413351E+03 0.  0.
         13    1    3    3    0    0  0.98774745005E+02  0.41460850193E+02 -0.76667464482E+03  0.77412238267E+03  0.00000000000E+00 0.  1.
          1    1    3    3  501    0 -0.14331366116E+03  0.13797238807E+02 -0.15230791179E+03  0.20958737860E+03  0.00000000000E+00 0.  1.
         21    1    1    2  502  501  0.44538916159E+02 -0.55258088999E+02 -0.22771139189E+02  0.74536542933E+02  0.00000000000E+00 0. -1.
<mgrwt>
<rscale>  1 0.30000000E+03</rscale>
<asrwt>0</asrwt>
<pdfrwt beam="1">  1        1 0.21180519E+00 0.30000000E+03</pdfrwt>
<pdfrwt beam="2">0</pdfrwt>
<totfact> 0.90072367E+00</totfact>
</mgrwt>
</event>
<event>
 6    1  0.1929825E-004  0.3000000E+03  0.7818608E-02  0.1093470E+00
          1   -1    0    0  502    0  0.00000000000E+00  0.00000000000E+00  0.40130316427E+02  0.40130316427E+02  0.00000000000E+00 0.  1.
         13   -1    0    0    0    0 -0.00000000000E+00 -0.00000000000E+00 -0.10000000000E+04  0.10000000000E+04  0.00000000000E+00 0.  1.
    9000005    2    1    2  501    0 -0.22958484839E+02  0.89473393502E+01 -0.90323307706E+03  0.97836582740E+03  0.37518336026E+03 0.  0.
         13    1    3    3    0    0 -0.14011296441E+03  0.14146763493E+03 -0.47945109350E+03  0.51915131280E+03  0.00000000000E+00 0.  1.
          1    1    3    3  501    0  0.11715447957E+03 -0.13252029558E+03 -0.42378198356E+03  0.45921451460E+03  0.00000000000E+00 0.  1.
         21    1    1    2  502  501  0.22958484839E+02 -0.89473393502E+01 -0.56636606511E+02  0.61764489026E+02  0.00000000000E+00 0. -1.
<mgrwt>
<rscale>  1 0.30000000E+03</rscale>
<asrwt>0</asrwt>
<pdfrwt beam="1">  1        1 0.14592873E+00 0.30000000E+03</pdfrwt>
<pdfrwt beam="2">0</pdfrwt>
<totfact> 0.18847346E+01</totfact>
</mgrwt>
</event>
<event>
 6    1  0.1929825E-004  0.3000000E+03  0.7818608E-02  0.1093470E+00
          1   -1    0    0  502    0  0.00000000000E+00  0.00000000000E+00  0.26672547216E+02  0.26672547216E+02  0.00000000000E+00 0.  1.
         13   -1    0    0    0    0 -0.00000000000E+00 -0.00000000000E+00 -0.10000000000E+04  0.10000000000E+04  0.00000000000E+00 0.  1.
    9000005    2    1    2  501    0  0.12719138123E+02  0.98415385813E+01 -0.95107722394E+03  0.99921885822E+03  0.30599315083E+03 0.  0.
         13    1    3    3    0    0 -0.27476015770E+02 -0.56563603514E+02 -0.90852325747E+03  0.91069692107E+03  0.00000000000E+00 0.  1.
          3    1    3    3  501    0  0.40195153893E+02  0.66405142095E+02 -0.42553966471E+02  0.88521937143E+02  0.00000000000E+00 0.  1.
         21    1    1    2  502  501 -0.12719138123E+02 -0.98415385813E+01 -0.22250228842E+02  0.27453689001E+02  0.00000000000E+00 0. -1.
<mgrwt>
<rscale>  1 0.30000000E+03</rscale>
<asrwt>0</asrwt>
<pdfrwt beam="1">  1        1 0.96991285E-01 0.30000000E+03</pdfrwt>
<pdfrwt beam="2">0</pdfrwt>
<totfact> 0.35782933E+01</totfact>
</mgrwt>
</event>
<event>
 6    1  0.1929825E-004  0.3000000E+03  0.7818608E-02  0.1093470E+00
          1   -1    0    0  502    0  0.00000000000E+00  0.00000000000E+00  0.28076144720E+02  0.28076144720E+02  0.00000000000E+00 0.  1.
         13   -1    0    0    0    0 -0.00000000000E+00 -0.00000000000E+00 -0.10000000000E+04  0.10000000000E+04  0.00000000000E+00 0.  1.
    9000005    2    1    2  501    0 -0.26607175415E+02 -0.70511010417E+01 -0.92331091130E+03  0.97221132455E+03  0.30320646573E+03 0.  0.
         13    1    3    3    0    0 -0.11090568870E+03 -0.48248844378E+02 -0.14749702057E+03  0.19074431537E+03  0.00000000000E+00 0.  1.
          1    1    3    3  501    0  0.84298513282E+02  0.41197743336E+02 -0.77581389072E+03  0.78146700918E+03  0.00000000000E+00 0.  1.
         21    1    1    2  502  501  0.26607175415E+02  0.70511010417E+01 -0.48612943982E+02  0.55864820165E+02  0.00000000000E+00 0.  1.
<mgrwt>
<rscale>  1 0.30000000E+03</rscale>
<asrwt>0</asrwt>
<pdfrwt beam="1">  1        1 0.10209529E+00 0.30000000E+03</pdfrwt>
<pdfrwt beam="2">0</pdfrwt>
<totfact> 0.33201545E+01</totfact>
</mgrwt>
</event>
<event>
 6    1  0.1929825E-004  0.3000000E+03  0.7818608E-02  0.1093470E+00
          1   -1    0    0  502    0  0.00000000000E+00  0.00000000000E+00  0.27089960822E+02  0.27089960822E+02  0.00000000000E+00 0.  1.
         13   -1    0    0    0    0 -0.00000000000E+00 -0.00000000000E+00 -0.10000000000E+04  0.10000000000E+04  0.00000000000E+00 0.  1.
    9000005    2    1    2  501    0  0.62832325034E+01 -0.11377094402E+02 -0.94499686244E+03  0.99629933362E+03  0.31531630923E+03 0.  0.
         13    1    3    3    0    0  0.12730474143E+03 -0.80220265458E+02 -0.68538560283E+03  0.70170878058E+03  0.00000000000E+00 0.  1.
          3    1    3    3  501    0 -0.12102150893E+03  0.68843171056E+02 -0.25961125961E+03  0.29459055304E+03  0.00000000000E+00 0.  1.
         21    1    1    2  502  501 -0.62832325034E+01  0.11377094402E+02 -0.27913176738E+02  0.30790627199E+02  0.00000000000E+00 0.  1.
<mgrwt>
<rscale>  1 0.30000000E+03</rscale>
<asrwt>0</asrwt>
<pdfrwt beam="1">  1        1 0.98509156E-01 0.30000000E+03</pdfrwt>
<pdfrwt beam="2">0</pdfrwt>
<totfact> 0.34985180E+01</totfact>
</mgrwt>
</event>
<event>
 6    1  0.1929825E-004  0.3000000E+03  0.7818608E-02  0.1093470E+00
          1   -1    0    0  502    0  0.00000000000E+00  0.00000000000E+00  0.36620190678E+02  0.36620190678E+02  0.00000000000E+00 0.  1.
         13   -1    0    0    0    0 -0.00000000000E+00 -0.00000000000E+00 -0.10000000000E+04  0.10000000000E+04  0.00000000000E+00 0.  1.
    9000005    2    1    2  501    0  0.52085637110E+01  0.56004998071E+02 -0.81859207163E+03  0.88129093416E+03  0.32158520170E+03 0.  0.
         13    1    3    3    0    0 -0.83969188754E+00  0.16819601125E+03 -0.24744814368E+03  0.29920091426E+03  0.00000000000E+00 0.  1.
          3    1    3    3  501    0  0.60482555986E+01 -0.11219101318E+03 -0.57114392795E+03  0.58209001990E+03  0.00000000000E+00 0.  1.
         21    1    1    2  502  501 -0.52085637110E+01 -0.56004998071E+02 -0.14478773769E+03  0.15532925652E+03  0.00000000000E+00 0. -1.
<mgrwt>
<rscale>  1 0.30000000E+03</rscale>
<asrwt>0</asrwt>
<pdfrwt beam="1">  1        1 0.13316461E+00 0.30000000E+03</pdfrwt>
<pdfrwt beam="2">0</pdfrwt>
<totfact> 0.21995051E+01</totfact>
</mgrwt>
</event>
<event>
 6    1  0.1929825E-004  0.3000000E+03  0.7818608E-02  0.1093470E+00
          1   -1    0    0  502    0  0.00000000000E+00  0.00000000000E+00  0.30972170706E+02  0.30972170706E+02  0.00000000000E+00 0.  1.
         13   -1    0    0    0    0 -0.00000000000E+00 -0.00000000000E+00 -0.10000000000E+04  0.10000000000E+04  0.00000000000E+00 0.  1.
    9000005    2    1    2  501    0  0.48919599687E+01  0.23708241932E+02 -0.93987601186E+03  0.99307968507E+03  0.31977231153E+03 0.  0.
         13    1    3    3    0    0  0.26987079088E+02  0.97275895485E+02 -0.77444766627E+02  0.12723440635E+03  0.00000000000E+00 0.  1.
          1    1    3    3  501    0 -0.22095119119E+02 -0.73567653554E+02 -0.86243124523E+03  0.86584527873E+03  0.00000000000E+00 0.  1.
         21    1    1    2  502  501 -0.48919599687E+01 -0.23708241932E+02 -0.29151817434E+02  0.37892485634E+02  0.00000000000E+00 0. -1.
<mgrwt>
<rscale>  1 0.30000000E+03</rscale>
<asrwt>0</asrwt>
<pdfrwt beam="1">  1        1 0.11262631E+00 0.30000000E+03</pdfrwt>
<pdfrwt beam="2">0</pdfrwt>
<totfact> 0.28665519E+01</totfact>
</mgrwt>
</event>
<event>
 6    1  0.1929825E-004  0.3000000E+03  0.7818608E-02  0.1093470E+00
          1   -1    0    0  502    0  0.00000000000E+00  0.00000000000E+00  0.27005617707E+02  0.27005617707E+02  0.00000000000E+00 0.  1.
         13   -1    0    0    0    0 -0.00000000000E+00 -0.00000000000E+00 -0.10000000000E+04  0.10000000000E+04  0.00000000000E+00 0.  1.
    9000005    2    1    2  501    0  0.10636736948E+02  0.35625416611E+01 -0.97017129356E+03  0.10154383490E+04  0.29959450903E+03 0.  0.
         13    1    3    3    0    0 -0.12667487613E+03 -0.64768752161E+02 -0.38316894055E+03  0.40872968145E+03  0.00000000000E+00 0.  1.
          3    1    3    3  501    0  0.13731161308E+03  0.68331293822E+02 -0.58700235302E+03  0.60670866752E+03  0.00000000000E+00 0.  1.
         21    1    1    2  502  501 -0.10636736948E+02 -0.35625416611E+01 -0.28230887307E+01  0.11567268734E+02  0.00000000000E+00 0. -1.
<mgrwt>
<rscale>  1 0.30000000E+03</rscale>
<asrwt>0</asrwt>
<pdfrwt beam="1">  1        1 0.98202453E-01 0.30000000E+03</pdfrwt>
<pdfrwt beam="2">0</pdfrwt>
<totfact> 0.35144238E+01</totfact>
</mgrwt>
</event>
<event>
 6    1  0.1929825E-004  0.3000000E+03  0.7818608E-02  0.1093470E+00
          1   -1    0    0  502    0  0.00000000000E+00  0.00000000000E+00  0.44653720061E+02  0.44653720061E+02  0.00000000000E+00 0.  1.
         13   -1    0    0    0    0 -0.00000000000E+00 -0.00000000000E+00 -0.10000000000E+04  0.10000000000E+04  0.00000000000E+00 0.  1.
    9000005    2    1    2  501    0 -0.84712321566E+01  0.24066925445E+02 -0.96507469398E+03  0.10173476637E+04  0.32089893300E+03 0.  0.
         13    1    3    3    0    0 -0.31251028326E+02  0.16876433113E+03 -0.44212124595E+03  0.47426703697E+03  0.00000000000E+00 0.  1.
          3    1    3    3  501    0  0.22779796170E+02 -0.14469740568E+03 -0.52295344802E+03  0.54308062673E+03  0.00000000000E+00 0.  1.
         21    1    1    2  502  501  0.84712321566E+01 -0.24066925445E+02  0.97284140370E+01  0.27306056367E+02  0.00000000000E+00 0.  1.
<mgrwt>
<rscale>  1 0.30000000E+03</rscale>
<asrwt>0</asrwt>
<pdfrwt beam="1">  1        1 0.16237751E+00 0.30000000E+03</pdfrwt>
<pdfrwt beam="2">0</pdfrwt>
<totfact> 0.15574619E+01</totfact>
</mgrwt>
</event>
<event>
 6    1  0.1929825E-004  0.3000000E+03  0.7818608E-02  0.1093470E+00
          1   -1    0    0  502    0  0.00000000000E+00  0.00000000000E+00  0.26648012230E+02  0.26648012230E+02  0.00000000000E+00 0.  1.
         13   -1    0    0    0    0 -0.00000000000E+00 -0.00000000000E+00 -0.10000000000E+04  0.10000000000E+04  0.00000000000E+00 0.  1.
    9000005    2    1    2  501    0  0.79431918919E+01  0.71139124101E+01 -0.95641242325E+03  0.10066317465E+04  0.31379778152E+03 0.  0.
         13    1    3    3    0    0 -0.76039763678E+02 -0.99478571292E+02 -0.74475914905E+03  0.75521137564E+03  0.00000000000E+00 0.  1.
          1    1    3    3  501    0  0.83982955569E+02  0.10659248370E+03 -0.21165327420E+03  0.25142037087E+03  0.00000000000E+00 0.  1.
         21    1    1    2  502  501 -0.79431918919E+01 -0.71139124101E+01 -0.16939564525E+02  0.20016265723E+02  0.00000000000E+00 0.  1.
<mgrwt>
<rscale>  1 0.30000000E+03</rscale>
<asrwt>0</asrwt>
<pdfrwt beam="1">  1        1 0.96902067E-01 0.30000000E+03</pdfrwt>
<pdfrwt beam="2">0</pdfrwt>
<totfact> 0.35830659E+01</totfact>
</mgrwt>
</event>
<event>
 6    1  0.1929825E-004  0.3000000E+03  0.7818608E-02  0.1093470E+00
          1   -1    0    0  502    0  0.00000000000E+00  0.00000000000E+00  0.28114938477E+02  0.28114938477E+02  0.00000000000E+00 0.  1.
         13   -1    0    0    0    0 -0.00000000000E+00 -0.00000000000E+00 -0.10000000000E+04  0.10000000000E+04  0.00000000000E+00 0.  1.
    9000005    2    1    2  501    0 -0.10629016449E+02 -0.17762884391E+02 -0.89928234374E+03  0.95261890757E+03  0.31360094588E+03 0.  0.
         13    1    3    3    0    0  0.18134728784E+02 -0.16305628870E+03 -0.41729502480E+03  0.44838751030E+03  0.00000000000E+00 0.  1.
          3    1    3    3  501    0 -0.28763745233E+02  0.14529340431E+03 -0.48198731894E+03  0.50423139727E+03  0.00000000000E+00 0.  1.
         21    1    1    2  502  501  0.10629016449E+02  0.17762884391E+02 -0.72602717784E+02  0.75496030903E+02  0.00000000000E+00 0.  1.
<mgrwt>
<rscale>  1 0.30000000E+03</rscale>
<asrwt>0</asrwt>
<pdfrwt beam="1">  1        1 0.10223636E+00 0.30000000E+03</pdfrwt>
<pdfrwt beam="2">0</pdfrwt>
<totfact> 0.33134133E+01</totfact>
</mgrwt>
</event>
<event>
 6    1  0.1929825E-004  0.3000000E+03  0.7818608E-02  0.1093470E+00
          1   -1    0    0  502    0  0.00000000000E+00  0.00000000000E+00  0.41327685651E+02  0.41327685651E+02  0.00000000000E+00 0.  1.
         13   -1    0    0    0    0 -0.00000000000E+00 -0.00000000000E+00 -0.10000000000E+04  0.10000000000E+04  0.00000000000E+00 0.  1.
    9000005    2    1    2  501    0 -0.63166162527E+01 -0.29566029243E+02 -0.93429159979E+03  0.10024886722E+04  0.36217218924E+03 0.  0.
         13    1    3    3    0    0 -0.93252789248E+02  0.14259084695E+03 -0.42196490248E+03  0.45506330468E+03  0.00000000000E+00 0.  1.
          1    1    3    3  501    0  0.86936172995E+02 -0.17215687620E+03 -0.51232669730E+03  0.54742536749E+03  0.00000000000E+00 0.  1.
         21    1    1    2  502  501  0.63166162527E+01  0.29566029243E+02 -0.24380714560E+02  0.38839013486E+02  0.00000000000E+00 0.  1.
<mgrwt>
<rscale>  1 0.30000000E+03</rscale>
<asrwt>0</asrwt>
<pdfrwt beam="1">  1        1 0.15028281E+00 0.30000000E+03</pdfrwt>
<pdfrwt beam="2">0</pdfrwt>
<totfact> 0.17905591E+01</totfact>
</mgrwt>
</event>
<event>
 6    1  0.1929825E-004  0.3000000E+03  0.7818608E-02  0.1093470E+00
          3   -1    0    0  502    0  0.00000000000E+00  0.00000000000E+00  0.33351130369E+02  0.33351130369E+02  0.00000000000E+00 0.  1.
         13   -1    0    0    0    0 -0.00000000000E+00 -0.00000000000E+00 -0.10000000000E+04  0.10000000000E+04  0.00000000000E+00 0.  1.
    9000005    2    1    2  501    0  0.98649879682E+01 -0.88065925290E+00 -0.94880160798E+03  0.10129399007E+04  0.35457673015E+03 0.  0.
         13    1    3    3    0    0  0.11705460347E+03  0.11984911816E+03 -0.67132587304E+03  0.69191330319E+03  0.00000000000E+00 0.  1.
          3    1    3    3  501    0 -0.10718961550E+03 -0.12072977742E+03 -0.27747573494E+03  0.32102659750E+03  0.00000000000E+00 0.  1.
         21    1    1    2  502  501 -0.98649879682E+01  0.88065925290E+00 -0.17847261653E+02  0.20411229675E+02  0.00000000000E+00 0.  1.
<mgrwt>
<rscale>  1 0.30000000E+03</rscale>
<asrwt>0</asrwt>
<pdfrwt beam="1">  1        3 0.12127709E+00 0.30000000E+03</pdfrwt>
<pdfrwt beam="2">0</pdfrwt>
<totfact> 0.22354119E+00</totfact>
</mgrwt>
</event>
<event>
 6    1  0.1929825E-004  0.3000000E+03  0.7818608E-02  0.1093470E+00
          1   -1    0    0  502    0  0.00000000000E+00  0.00000000000E+00  0.79658922008E+02  0.79658922008E+02  0.00000000000E+00 0.  1.
         13   -1    0    0    0    0 -0.00000000000E+00 -0.00000000000E+00 -0.10000000000E+04  0.10000000000E+04  0.00000000000E+00 0.  1.
    9000005    2    1    2  501    0  0.67567682258E+02  0.63199440029E+02 -0.92744554838E+03  0.98686865094E+03  0.32433767603E+03 0.  0.
         13    1    3    3    0    0 -0.91820819381E+02 -0.68301196486E+02 -0.19770190687E+03  0.22843414870E+03  0.00000000000E+00 0.  1.
          1    1    3    3  501    0  0.15938850164E+03  0.13150063652E+03 -0.72974364151E+03  0.75843450224E+03  0.00000000000E+00 0.  1.
         21    1    1    2  502  501 -0.67567682258E+02 -0.63199440029E+02  0.71044703878E+01  0.92790271070E+02  0.00000000000E+00 0.  1.
<mgrwt>
<rscale>  1 0.30000000E+03</rscale>
<asrwt>0</asrwt>
<pdfrwt beam="1">  1        1 0.28966942E+00 0.30000000E+03</pdfrwt>
<pdfrwt beam="2">0</pdfrwt>
<totfact> 0.38885601E+00</totfact>
</mgrwt>
</event>
<event>
 6    1  0.1929825E-004  0.3000000E+03  0.7818608E-02  0.1093470E+00
          1   -1    0    0  502    0  0.00000000000E+00  0.00000000000E+00  0.36004063642E+02  0.36004063642E+02  0.00000000000E+00 0.  1.
         13   -1    0    0    0    0 -0.00000000000E+00 -0.00000000000E+00 -0.10000000000E+04  0.10000000000E+04  0.00000000000E+00 0.  1.
    9000005    2    1    2  501    0 -0.10033060679E+02  0.13545587359E+01 -0.97232815593E+03  0.10228921218E+04  0.31746456951E+03 0.  0.
         13    1    3    3    0    0  0.90980088969E+02  0.40015901800E+02 -0.86439994095E+03  0.87009534357E+03  0.00000000000E+00 0.  1.
          3    1    3    3  501    0 -0.10101314965E+03 -0.38661343065E+02 -0.10792821497E+03  0.15279677823E+03  0.00000000000E+00 0.  1.
         21    1    1    2  502  501  0.10033060679E+02 -0.13545587359E+01  0.83322195679E+01  0.13111941843E+02  0.00000000000E+00 0.  1.
<mgrwt>
<rscale>  1 0.30000000E+03</rscale>
<asrwt>0</asrwt>
<pdfrwt beam="1">  1        1 0.13092414E+00 0.30000000E+03</pdfrwt>
<pdfrwt beam="2">0</pdfrwt>
<totfact> 0.22616676E+01</totfact>
</mgrwt>
</event>
<event>
 6    1  0.1929825E-004  0.3000000E+03  0.7818608E-02  0.1093470E+00
          3   -1    0    0  502    0  0.00000000000E+00  0.00000000000E+00  0.29629414648E+02  0.29629414648E+02  0.00000000000E+00 0.  1.
         13   -1    0    0    0    0 -0.00000000000E+00 -0.00000000000E+00 -0.10000000000E+04  0.10000000000E+04  0.00000000000E+00 0.  1.
    9000005    2    1    2  501    0 -0.14020877021E+02  0.38086051153E+01 -0.95531758594E+03  0.10087085338E+04  0.32349671657E+03 0.  0.
         13    1    3    3    0    0 -0.16047725891E+03 -0.34674255107E+02 -0.60878390982E+03  0.63053398278E+03  0.00000000000E+00 0.  1.
          3    1    3    3  501    0  0.14645638189E+03  0.38482860222E+02 -0.34653367612E+03  0.37817455098E+03  0.00000000000E+00 0.  1.
         21    1    1    2  502  501  0.14020877021E+02 -0.38086051153E+01 -0.15052999415E+02  0.20920880879E+02  0.00000000000E+00 0.  1.
<mgrwt>
<rscale>  1 0.30000000E+03</rscale>
<asrwt>0</asrwt>
<pdfrwt beam="1">  1        3 0.10774355E+00 0.30000000E+03</pdfrwt>
<pdfrwt beam="2">0</pdfrwt>
<totfact> 0.31973845E+00</totfact>
</mgrwt>
</event>
<event>
 6    1  0.1929825E-004  0.3000000E+03  0.7818608E-02  0.1093470E+00
          1   -1    0    0  502    0  0.00000000000E+00  0.00000000000E+00  0.72685196710E+02  0.72685196710E+02  0.00000000000E+00 0.  1.
         13   -1    0    0    0    0 -0.00000000000E+00 -0.00000000000E+00 -0.10000000000E+04  0.10000000000E+04  0.00000000000E+00 0.  1.
    9000005    2    1    2  501    0 -0.88310023644E+01 -0.78070564794E+01 -0.97167236214E+03  0.10267882495E+04  0.33167452914E+03 0.  0.
         13    1    3    3    0    0  0.15663870520E+03  0.30375037204E-01 -0.35053963034E+03  0.38394494049E+03  0.00000000000E+00 0.  1.
          1    1    3    3  501    0 -0.16546970756E+03 -0.78374315166E+01 -0.62113273181E+03  0.64284330904E+03  0.00000000000E+00 0.  1.
         21    1    1    2  502  501  0.88310023644E+01  0.78070564794E+01  0.44357558852E+02  0.45896947186E+02  0.00000000000E+00 0.  1.
<mgrwt>
<rscale>  1 0.30000000E+03</rscale>
<asrwt>0</asrwt>
<pdfrwt beam="1">  1        1 0.26431036E+00 0.30000000E+03</pdfrwt>
<pdfrwt beam="2">0</pdfrwt>
<totfact> 0.51137951E+00</totfact>
</mgrwt>
</event>
<event>
 6    1  0.1929825E-004  0.3000000E+03  0.7818608E-02  0.1093470E+00
          1   -1    0    0  502    0  0.00000000000E+00  0.00000000000E+00  0.34078408880E+02  0.34078408880E+02  0.00000000000E+00 0.  1.
         13   -1    0    0    0    0 -0.00000000000E+00 -0.00000000000E+00 -0.10000000000E+04  0.10000000000E+04  0.00000000000E+00 0.  1.
    9000005    2    1    2  501    0 -0.68271164274E+01  0.13940309015E+02 -0.96314823115E+03  0.10183102999E+04  0.33024295611E+03 0.  0.
         13    1    3    3    0    0  0.14883089190E+02 -0.14513679881E+03 -0.27092225129E+03  0.30770938068E+03  0.00000000000E+00 0.  1.
          3    1    3    3  501    0 -0.21710205617E+02  0.15907710782E+03 -0.69222597986E+03  0.71060091926E+03  0.00000000000E+00 0.  1.
         21    1    1    2  502  501  0.68271164274E+01 -0.13940309015E+02 -0.27733599741E+01  0.15768108945E+02  0.00000000000E+00 0. -1.
<mgrwt>
<rscale>  1 0.30000000E+03</rscale>
<asrwt>0</asrwt>
<pdfrwt beam="1">  1        1 0.12392175E+00 0.30000000E+03</pdfrwt>
<pdfrwt beam="2">0</pdfrwt>
<totfact> 0.24712352E+01</totfact>
</mgrwt>
</event>
<event>
 6    1  0.1929825E-004  0.3000000E+03  0.7818608E-02  0.1093470E+00
          3   -1    0    0  502    0  0.00000000000E+00  0.00000000000E+00  0.38926867133E+02  0.38926867133E+02  0.00000000000E+00 0.  1.
         13   -1    0    0    0    0 -0.00000000000E+00 -0.00000000000E+00 -0.10000000000E+04  0.10000000000E+04  0.00000000000E+00 0.  1.
    9000005    2    1    2  501    0 -0.65268557298E+01  0.45768780576E+02 -0.92012331303E+03  0.97716709976E+03  0.32571651563E+03 0.  0.
         13    1    3    3    0    0  0.69563209185E+02  0.12849356130E+03 -0.79770476736E+03  0.81097628278E+03  0.00000000000E+00 0.  1.
          1    1    3    3  501    0 -0.76090064914E+02 -0.82724780722E+02 -0.12241854567E+03  0.16619081698E+03  0.00000000000E+00 0.  1.
         21    1    1    2  502  501  0.65268557298E+01 -0.45768780576E+02 -0.40949819835E+02  0.61759767370E+02  0.00000000000E+00 0.  1.
<mgrwt>
<rscale>  1 0.30000000E+03</rscale>
<asrwt>0</asrwt>
<pdfrwt beam="1">  1        3 0.14155254E+00 0.30000000E+03</pdfrwt>
<pdfrwt beam="2">0</pdfrwt>
<totfact> 0.12799976E+00</totfact>
</mgrwt>
</event>
<event>
 6    1  0.1929825E-004  0.3000000E+03  0.7818608E-02  0.1093470E+00
          1   -1    0    0  502    0  0.00000000000E+00  0.00000000000E+00  0.43983356283E+02  0.43983356283E+02  0.00000000000E+00 0.  1.
         13   -1    0    0    0    0 -0.00000000000E+00 -0.00000000000E+00 -0.10000000000E+04  0.10000000000E+04  0.00000000000E+00 0.  1.
    9000005    2    1    2  501    0  0.41616378849E+02  0.85445018734E+01 -0.94175596626E+03  0.99916931359E+03  0.33110434268E+03 0.  0.
         13    1    3    3    0    0 -0.10702610653E+03 -0.10107856612E+03 -0.36524435700E+03  0.39379551080E+03  0.00000000000E+00 0.  1.
          1    1    3    3  501    0  0.14864248538E+03  0.10962306799E+03 -0.57651160926E+03  0.60537380279E+03  0.00000000000E+00 0.  1.
         21    1    1    2  502  501 -0.41616378849E+02 -0.85445018734E+01 -0.14260677459E+02  0.44814042691E+02  0.00000000000E+00 0.  1.
<mgrwt>
<rscale>  1 0.30000000E+03</rscale>
<asrwt>0</asrwt>
<pdfrwt beam="1">  1        1 0.15993981E+00 0.30000000E+03</pdfrwt>
<pdfrwt beam="2">0</pdfrwt>
<totfact> 0.16014067E+01</totfact>
</mgrwt>
</event>
<event>
 6    1  0.1929825E-004  0.3000000E+03  0.7818608E-02  0.1093470E+00
          1   -1    0    0  502    0  0.00000000000E+00  0.00000000000E+00  0.44068133032E+02  0.44068133032E+02  0.00000000000E+00 0.  1.
         13   -1    0    0    0    0 -0.00000000000E+00 -0.00000000000E+00 -0.10000000000E+04  0.10000000000E+04  0.00000000000E+00 0.  1.
    9000005    2    1    2  501    0  0.11496865273E+02  0.63365160978E+01 -0.97102908564E+03  0.10240617501E+04  0.32501177432E+03 0.  0.
         13    1    3    3    0    0  0.92283023531E+02 -0.11563325714E+03 -0.26946545504E+03  0.30740663306E+03  0.00000000000E+00 0.  1.
          3    1    3    3  501    0 -0.80786158259E+02  0.12196977324E+03 -0.70156363061E+03  0.71665511701E+03  0.00000000000E+00 0.  1.
         21    1    1    2  502  501 -0.11496865273E+02 -0.63365160978E+01  0.15097218676E+02  0.20006382960E+02  0.00000000000E+00 0.  1.
<mgrwt>
<rscale>  1 0.30000000E+03</rscale>
<asrwt>0</asrwt>
<pdfrwt beam="1">  1        1 0.16024809E+00 0.30000000E+03</pdfrwt>
<pdfrwt beam="2">0</pdfrwt>
<totfact> 0.15957706E+01</totfact>
</mgrwt>
</event>
<event>
 6    1  0.1929825E-004  0.3000000E+03  0.7818608E-02  0.1093470E+00
          1   -1    0    0  502    0  0.00000000000E+00  0.00000000000E+00  0.27625191469E+02  0.27625191469E+02  0.00000000000E+00 0.  1.
         13   -1    0    0    0    0 -0.00000000000E+00 -0.00000000000E+00 -0.10000000000E+04  0.10000000000E+04  0.00000000000E+00 0.  1.
    9000005    2    1    2  501    0  0.17249133314E+02  0.89181662996E+01 -0.92679432720E+03  0.97808080159E+03  0.31195714964E+03 0.  0.
         13    1    3    3    0    0 -0.11418332175E+03  0.94420559178E+02 -0.34377500605E+03  0.37434519864E+03  0.00000000000E+00 0.  1.
          3    1    3    3  501    0  0.13143245506E+03 -0.85502392878E+02 -0.58301932115E+03  0.60373560295E+03  0.00000000000E+00 0.  1.
         21    1    1    2  502  501 -0.17249133314E+02 -0.89181662996E+01 -0.45580481328E+02  0.49544389877E+02  0.00000000000E+00 0.  1.
<mgrwt>
<rscale>  1 0.30000000E+03</rscale>
<asrwt>0</asrwt>
<pdfrwt beam="1">  1        1 0.10045545E+00 0.30000000E+03</pdfrwt>
<pdfrwt beam="2">0</pdfrwt>
<totfact> 0.34000136E+01</totfact>
</mgrwt>
</event>
<event>
 6    1  0.1929825E-004  0.3000000E+03  0.7818608E-02  0.1093470E+00
          1   -1    0    0  502    0  0.00000000000E+00  0.00000000000E+00  0.27657579420E+02  0.27657579420E+02  0.00000000000E+00 0.  1.
         13   -1    0    0    0    0 -0.00000000000E+00 -0.00000000000E+00 -0.10000000000E+04  0.10000000000E+04  0.00000000000E+00 0.  1.
    9000005    2    1    2  501    0 -0.36925252082E+01 -0.87561082419E+01 -0.95189950850E+03  0.10051139145E+04  0.32256937650E+03 0.  0.
         13    1    3    3    0    0  0.31613897010E+02 -0.15428233463E+03 -0.64052492420E+03  0.65960189189E+03  0.00000000000E+00 0.  1.
          3    1    3    3  501    0 -0.35306422218E+02  0.14552622639E+03 -0.31137458430E+03  0.34551202261E+03  0.00000000000E+00 0.  1.
         21    1    1    2  502  501  0.36925252082E+01  0.87561082419E+01 -0.20442912079E+02  0.22543664924E+02  0.00000000000E+00 0. -1.
<mgrwt>
<rscale>  1 0.30000000E+03</rscale>
<asrwt>0</asrwt>
<pdfrwt beam="1">  1        1 0.10057323E+00 0.30000000E+03</pdfrwt>
<pdfrwt beam="2">0</pdfrwt>
<totfact> 0.33941845E+01</totfact>
</mgrwt>
</event>
<event>
 6    1  0.1929825E-004  0.3000000E+03  0.7818608E-02  0.1093470E+00
          3   -1    0    0  502    0  0.00000000000E+00  0.00000000000E+00  0.39818094739E+02  0.39818094739E+02  0.00000000000E+00 0.  1.
         13   -1    0    0    0    0 -0.00000000000E+00 -0.00000000000E+00 -0.10000000000E+04  0.10000000000E+04  0.00000000000E+00 0.  1.
    9000005    2    1    2  501    0  0.16417613881E+02 -0.90714917993E+01 -0.96673013922E+03  0.10199508006E+04  0.32462384929E+03 0.  0.
         13    1    3    3    0    0  0.50533708220E+02 -0.78455886602E+02 -0.62265104914E+02  0.11218700949E+03  0.00000000000E+00 0.  1.
          1    1    3    3  501    0 -0.34116094339E+02  0.69384394803E+02 -0.90446503431E+03  0.90776379109E+03  0.00000000000E+00 0.  1.
         21    1    1    2  502  501 -0.16417613881E+02  0.90714917993E+01  0.65482339591E+01  0.19867294154E+02  0.00000000000E+00 0.  1.
<mgrwt>
<rscale>  1 0.30000000E+03</rscale>
<asrwt>0</asrwt>
<pdfrwt beam="1">  1        3 0.14479338E+00 0.30000000E+03</pdfrwt>
<pdfrwt beam="2">0</pdfrwt>
<totfact> 0.11623740E+00</totfact>
</mgrwt>
</event>
<event>
 6    1  0.1929825E-004  0.3000000E+03  0.7818608E-02  0.1093470E+00
          1   -1    0    0  502    0  0.00000000000E+00  0.00000000000E+00  0.38589909873E+02  0.38589909873E+02  0.00000000000E+00 0.  1.
         13   -1    0    0    0    0 -0.00000000000E+00 -0.00000000000E+00 -0.10000000000E+04  0.10000000000E+04  0.00000000000E+00 0.  1.
    9000005    2    1    2  501    0  0.61856267166E+01  0.31254078423E+02 -0.90016009253E+03  0.96954904080E+03  0.35877858206E+03 0.  0.
         13    1    3    3    0    0  0.14950482613E+03  0.26024149827E+02 -0.73637456079E+03  0.75184868370E+03  0.00000000000E+00 0.  1.
          1    1    3    3  501    0 -0.14331919942E+03  0.52299285955E+01 -0.16378553174E+03  0.21770035710E+03  0.00000000000E+00 0.  1.
         21    1    1    2  502  501 -0.61856267166E+01 -0.31254078423E+02 -0.61249997601E+02  0.69040869071E+02  0.00000000000E+00 0.  1.
<mgrwt>
<rscale>  1 0.30000000E+03</rscale>
<asrwt>0</asrwt>
<pdfrwt beam="1">  1        1 0.14032724E+00 0.30000000E+03</pdfrwt>
<pdfrwt beam="2">0</pdfrwt>
<totfact> 0.20152493E+01</totfact>
</mgrwt>
</event>
<event>
 6    1  0.1929825E-004  0.3000000E+03  0.7818608E-02  0.1093470E+00
          1   -1    0    0  502    0  0.00000000000E+00  0.00000000000E+00  0.30917647985E+02  0.30917647985E+02  0.00000000000E+00 0.  1.
         13   -1    0    0    0    0 -0.00000000000E+00 -0.00000000000E+00 -0.10000000000E+04  0.10000000000E+04  0.00000000000E+00 0.  1.
    9000005    2    1    2  501    0  0.81401645811E+01  0.10755095443E+02 -0.95916499833E+03  0.10141758362E+04  0.32920084807E+03 0.  0.
         13    1    3    3    0    0 -0.13638906926E+03 -0.45008639409E+02 -0.67910186316E+03  0.69412325734E+03  0.00000000000E+00 0.  1.
          3    1    3    3  501    0  0.14452923384E+03  0.55763734853E+02 -0.28006313517E+03  0.32005257887E+03  0.00000000000E+00 0.  1.
         21    1    1    2  502  501 -0.81401645811E+01 -0.10755095443E+02 -0.99173536830E+01  0.16741811774E+02  0.00000000000E+00 0.  1.
<mgrwt>
<rscale>  1 0.30000000E+03</rscale>
<asrwt>0</asrwt>
<pdfrwt beam="1">  1        1 0.11242805E+00 0.30000000E+03</pdfrwt>
<pdfrwt beam="2">0</pdfrwt>
<totfact> 0.28742510E+01</totfact>
</mgrwt>
</event>
<event>
 6    1  0.1929825E-004  0.3000000E+03  0.7818608E-02  0.1093470E+00
          1   -1    0    0  502    0  0.00000000000E+00  0.00000000000E+00  0.31770847301E+02  0.31770847301E+02  0.00000000000E+00 0.  1.
         13   -1    0    0    0    0 -0.00000000000E+00 -0.00000000000E+00 -0.10000000000E+04  0.10000000000E+04  0.00000000000E+00 0.  1.
    9000005    2    1    2  501    0 -0.14011734664E+01 -0.14032061048E+02 -0.96341572855E+03  0.10168701401E+04  0.32504792523E+03 0.  0.
         13    1    3    3    0    0 -0.37271527398E+02 -0.54863439403E+02 -0.16436342400E+02  0.68332401459E+02  0.00000000000E+00 0.  1.
          3    1    3    3  501    0  0.35870353932E+02  0.40831378355E+02 -0.94697938615E+03  0.94853773860E+03  0.00000000000E+00 0.  1.
         21    1    1    2  502  501  0.14011734664E+01  0.14032061048E+02 -0.48134241466E+01  0.14900707243E+02  0.00000000000E+00 0.  1.
<mgrwt>
<rscale>  1 0.30000000E+03</rscale>
<asrwt>0</asrwt>
<pdfrwt beam="1">  1        1 0.11553060E+00 0.30000000E+03</pdfrwt>
<pdfrwt beam="2">0</pdfrwt>
<totfact> 0.27570539E+01</totfact>
</mgrwt>
</event>
<event>
 6    1  0.1929825E-004  0.3000000E+03  0.7818608E-02  0.1093470E+00
          1   -1    0    0  502    0  0.00000000000E+00  0.00000000000E+00  0.37843000544E+02  0.37843000544E+02  0.00000000000E+00 0.  1.
         13   -1    0    0    0    0 -0.00000000000E+00 -0.00000000000E+00 -0.10000000000E+04  0.10000000000E+04  0.00000000000E+00 0.  1.
    9000005    2    1    2  501    0  0.21309439705E+02 -0.49865443726E+02 -0.82474890866E+03  0.89012151222E+03  0.33040110392E+03 0.  0.
         13    1    3    3    0    0 -0.99157240191E+02 -0.14878151648E+03 -0.45395864655E+03  0.48790014420E+03  0.00000000000E+00 0.  1.
          3    1    3    3  501    0  0.12046667990E+03  0.98916072753E+02 -0.37079026211E+03  0.40222136802E+03  0.00000000000E+00 0.  1.
         21    1    1    2  502  501 -0.21309439705E+02  0.49865443726E+02 -0.13740809079E+03  0.14772148833E+03  0.00000000000E+00 0.  1.
<mgrwt>
<rscale>  1 0.30000000E+03</rscale>
<asrwt>0</asrwt>
<pdfrwt beam="1">  1        1 0.13761120E+00 0.30000000E+03</pdfrwt>
<pdfrwt beam="2">0</pdfrwt>
<totfact> 0.20826681E+01</totfact>
</mgrwt>
</event>
<event>
 6    1  0.1929825E-004  0.3000000E+03  0.7818608E-02  0.1093470E+00
          1   -1    0    0  502    0  0.00000000000E+00  0.00000000000E+00  0.23074450670E+02  0.23074450670E+02  0.00000000000E+00 0.  1.
         13   -1    0    0    0    0 -0.00000000000E+00 -0.00000000000E+00 -0.10000000000E+04  0.10000000000E+04  0.00000000000E+00 0.  1.
    9000005    2    1    2  501    0 -0.24795990812E+02 -0.14172928982E+01 -0.86459594765E+03  0.90803189640E+03  0.27636736838E+03 0.  0.
         13    1    3    3    0    0 -0.10909561003E+03  0.36792608265E+02 -0.75871357861E+03  0.76739940222E+03  0.00000000000E+00 0.  1.
          3    1    3    3  501    0  0.84299619218E+02 -0.38209901163E+02 -0.10588236904E+03  0.14063249418E+03  0.00000000000E+00 0.  1.
         21    1    1    2  502  501  0.24795990812E+02  0.14172928982E+01 -0.11232960168E+03  0.11504255427E+03  0.00000000000E+00 0.  1.
<mgrwt>
<rscale>  1 0.30000000E+03</rscale>
<asrwt>0</asrwt>
<pdfrwt beam="1">  1        1 0.83907270E-01 0.30000000E+03</pdfrwt>
<pdfrwt beam="2">0</pdfrwt>
<totfact> 0.43956527E+01</totfact>
</mgrwt>
</event>
<event>
 6    1  0.1929825E-004  0.3000000E+03  0.7818608E-02  0.1093470E+00
          1   -1    0    0  502    0  0.00000000000E+00  0.00000000000E+00  0.43950336167E+02  0.43950336167E+02  0.00000000000E+00 0.  1.
         13   -1    0    0    0    0 -0.00000000000E+00 -0.00000000000E+00 -0.10000000000E+04  0.10000000000E+04  0.00000000000E+00 0.  1.
    9000005    2    1    2  501    0  0.42044742020E+02 -0.49472264918E+02 -0.89692455074E+03  0.95613778396E+03  0.32482387052E+03 0.  0.
         13    1    3    3    0    0  0.47738373674E+02  0.13406127028E+03 -0.47809434111E+03  0.49882419299E+03  0.00000000000E+00 0.  1.
          3    1    3    3  501    0 -0.56936316546E+01 -0.18353353520E+03 -0.41883020963E+03  0.45731359096E+03  0.00000000000E+00 0.  1.
         21    1    1    2  502  501 -0.42044742020E+02  0.49472264918E+02 -0.59125113093E+02  0.87812552212E+02  0.00000000000E+00 0.  1.
<mgrwt>
<rscale>  1 0.30000000E+03</rscale>
<asrwt>0</asrwt>
<pdfrwt beam="1">  1        1 0.15981974E+00 0.30000000E+03</pdfrwt>
<pdfrwt beam="2">0</pdfrwt>
<totfact> 0.16036082E+01</totfact>
</mgrwt>
</event>
<event>
 6    1  0.1929825E-004  0.3000000E+03  0.7818608E-02  0.1093470E+00
          1   -1    0    0  502    0  0.00000000000E+00  0.00000000000E+00  0.30152192986E+02  0.30152192986E+02  0.00000000000E+00 0.  1.
         13   -1    0    0    0    0 -0.00000000000E+00 -0.00000000000E+00 -0.10000000000E+04  0.10000000000E+04  0.00000000000E+00 0.  1.
    9000005    2    1    2  501    0 -0.11904174560E+02 -0.89901057943E+01 -0.92694332385E+03  0.98472834408E+03  0.33202929784E+03 0.  0.
         13    1    3    3    0    0 -0.15643507730E+03  0.18930486086E+02 -0.67303370330E+03  0.69123415895E+03  0.00000000000E+00 0.  1.
          3    1    3    3  501    0  0.14453090274E+03 -0.27920591881E+02 -0.25390962055E+03  0.29349418513E+03  0.00000000000E+00 0.  1.
         21    1    1    2  502  501  0.11904174560E+02  0.89901057943E+01 -0.42904483165E+02  0.45423848910E+02  0.00000000000E+00 0.  1.
<mgrwt>
<rscale>  1 0.30000000E+03</rscale>
<asrwt>0</asrwt>
<pdfrwt beam="1">  1        1 0.10964457E+00 0.30000000E+03</pdfrwt>
<pdfrwt beam="2">0</pdfrwt>
<totfact> 0.29855070E+01</totfact>
</mgrwt>
</event>
<event>
 6    1  0.1929825E-004  0.3000000E+03  0.7818608E-02  0.1093470E+00
          1   -1    0    0  502    0  0.00000000000E+00  0.00000000000E+00  0.28323034612E+02  0.28323034612E+02  0.00000000000E+00 0.  1.
         13   -1    0    0    0    0 -0.00000000000E+00 -0.00000000000E+00 -0.10000000000E+04  0.10000000000E+04  0.00000000000E+00 0.  1.
    9000005    2    1    2  501    0 -0.94278848272E+01  0.57295639300E+01 -0.95966300271E+03  0.10120120501E+04  0.32108191782E+03 0.  0.
         13    1    3    3    0    0  0.73061705750E+01 -0.14938852842E+03 -0.62681600856E+03  0.64441339305E+03  0.00000000000E+00 0.  1.
          3    1    3    3  501    0 -0.16734055402E+02  0.15511809235E+03 -0.33284699415E+03  0.36759865710E+03  0.00000000000E+00 0.  1.
         21    1    1    2  502  501  0.94278848272E+01 -0.57295639300E+01 -0.12013962680E+02  0.16310984471E+02  0.00000000000E+00 0.  1.
<mgrwt>
<rscale>  1 0.30000000E+03</rscale>
<asrwt>0</asrwt>
<pdfrwt beam="1">  1        1 0.10299307E+00 0.30000000E+03</pdfrwt>
<pdfrwt beam="2">0</pdfrwt>
<totfact> 0.32775915E+01</totfact>
</mgrwt>
</event>
<event>
 6    1  0.1929825E-004  0.3000000E+03  0.7818608E-02  0.1093470E+00
          1   -1    0    0  502    0  0.00000000000E+00  0.00000000000E+00  0.22025727981E+02  0.22025727981E+02  0.00000000000E+00 0.  1.
         13   -1    0    0    0    0 -0.00000000000E+00 -0.00000000000E+00 -0.10000000000E+04  0.10000000000E+04  0.00000000000E+00 0.  1.
    9000005    2    1    2  501    0 -0.92001409604E+01 -0.16051361184E+02 -0.95489556068E+03  0.99244675392E+03  0.26978276218E+03 0.  0.
         13    1    3    3    0    0 -0.10664031130E+03 -0.46022272265E+02 -0.79064583286E+03  0.79913142759E+03  0.00000000000E+00 0.  1.
          1    1    3    3  501    0  0.97440170336E+02  0.29970911080E+02 -0.16424972782E+03  0.19331532633E+03  0.00000000000E+00 0.  1.
         21    1    1    2  502  501  0.92001409604E+01  0.16051361184E+02 -0.23078711342E+02  0.29578974066E+02  0.00000000000E+00 0. -1.
<mgrwt>
<rscale>  1 0.30000000E+03</rscale>
<asrwt>0</asrwt>
<pdfrwt beam="1">  1        1 0.80093725E-01 0.30000000E+03</pdfrwt>
<pdfrwt beam="2">0</pdfrwt>
<totfact> 0.46889827E+01</totfact>
</mgrwt>
</event>
<event>
 6    1  0.1929825E-004  0.3000000E+03  0.7818608E-02  0.1093470E+00
          1   -1    0    0  502    0  0.00000000000E+00  0.00000000000E+00  0.25150239036E+02  0.25150239036E+02  0.00000000000E+00 0.  1.
         13   -1    0    0    0    0 -0.00000000000E+00 -0.00000000000E+00 -0.10000000000E+04  0.10000000000E+04  0.00000000000E+00 0.  1.
    9000005    2    1    2  501    0 -0.14702780443E+02 -0.26192621072E+01 -0.96868752772E+03  0.10089945773E+04  0.28194236721E+03 0.  0.
         13    1    3    3    0    0 -0.62524989870E+02 -0.12420199835E+03 -0.64728396805E+03  0.66205139230E+03  0.00000000000E+00 0.  1.
          1    1    3    3  501    0  0.47822209427E+02  0.12158273625E+03 -0.32140355967E+03  0.34694318502E+03  0.00000000000E+00 0.  1.
         21    1    1    2  502  501  0.14702780443E+02  0.26192621072E+01 -0.61622332479E+01  0.16155661712E+02  0.00000000000E+00 0. -1.
<mgrwt>
<rscale>  1 0.30000000E+03</rscale>
<asrwt>0</asrwt>
<pdfrwt beam="1">  1        1 0.91455608E-01 0.30000000E+03</pdfrwt>
<pdfrwt beam="2">0</pdfrwt>
<totfact> 0.38934086E+01</totfact>
</mgrwt>
</event>
<event>
 6    1  0.1929825E-004  0.3000000E+03  0.7818608E-02  0.1093470E+00
          1   -1    0    0  502    0  0.00000000000E+00  0.00000000000E+00  0.32680800776E+02  0.32680800776E+02  0.00000000000E+00 0.  1.
         13   -1    0    0    0    0 -0.00000000000E+00 -0.00000000000E+00 -0.10000000000E+04  0.10000000000E+04  0.00000000000E+00 0.  1.
    9000005    2    1    2  501    0  0.10983281756E+02 -0.20179808740E+02 -0.95162024710E+03  0.10048542980E+04  0.32190558921E+03 0.  0.
         13    1    3    3    0    0 -0.99383450557E+02 -0.10762067059E+03 -0.25443736507E+03  0.29359436597E+03  0.00000000000E+00 0.  1.
          3    1    3    3  501    0  0.11036673231E+03  0.87440861853E+02 -0.69718288203E+03  0.71125993203E+03  0.00000000000E+00 0.  1.
         21    1    1    2  502  501 -0.10983281756E+02  0.20179808740E+02 -0.15698952127E+02  0.27826502777E+02  0.00000000000E+00 0.  1.
<mgrwt>
<rscale>  1 0.30000000E+03</rscale>
<asrwt>0</asrwt>
<pdfrwt beam="1">  1        1 0.11883953E+00 0.30000000E+03</pdfrwt>
<pdfrwt beam="2">0</pdfrwt>
<totfact> 0.26392806E+01</totfact>
</mgrwt>
</event>
<event>
 6    1  0.1929825E-004  0.3000000E+03  0.7818608E-02  0.1093470E+00
          1   -1    0    0  502    0  0.00000000000E+00  0.00000000000E+00  0.82259360103E+02  0.82259360103E+02  0.00000000000E+00 0.  1.
         13   -1    0    0    0    0 -0.00000000000E+00 -0.00000000000E+00 -0.10000000000E+04  0.10000000000E+04  0.00000000000E+00 0.  1.
    9000005    2    1    2  501    0 -0.22871962537E+02  0.10696597692E+03 -0.90878052725E+03  0.97250905028E+03  0.32852238779E+03 0.  0.
         13    1    3    3    0    0 -0.14425895390E+03  0.32831007355E+02 -0.19542172395E+03  0.24510848826E+03  0.00000000000E+00 0.  1.
          1    1    3    3  501    0  0.12138699136E+03  0.74134969564E+02 -0.71335880329E+03  0.72740056202E+03  0.00000000000E+00 0.  1.
         21    1    1    2  502  501  0.22871962537E+02 -0.10696597692E+03 -0.89601126505E+01  0.10975030983E+03  0.00000000000E+00 0.  1.
<mgrwt>
<rscale>  1 0.30000000E+03</rscale>
<asrwt>0</asrwt>
<pdfrwt beam="1">  1        1 0.29912558E+00 0.30000000E+03</pdfrwt>
<pdfrwt beam="2">0</pdfrwt>
<totfact> 0.35077330E+00</totfact>
</mgrwt>
</event>
<event>
 6    1  0.1929825E-004  0.3000000E+03  0.7818608E-02  0.1093470E+00
          1   -1    0    0  502    0  0.00000000000E+00  0.00000000000E+00  0.30071445096E+02  0.30071445096E+02  0.00000000000E+00 0.  1.
         13   -1    0    0    0    0 -0.00000000000E+00 -0.00000000000E+00 -0.10000000000E+04  0.10000000000E+04  0.00000000000E+00 0.  1.
    9000005    2    1    2  501    0  0.71345129197E+01 -0.13199570379E+02 -0.95693299359E+03  0.10102216454E+04  0.32342215253E+03 0.  0.
         13    1    3    3    0    0  0.74292831220E+02  0.12861075542E+03 -0.29927275928E+03  0.33410228318E+03  0.00000000000E+00 0.  1.
          1    1    3    3  501    0 -0.67158318300E+02 -0.14181032580E+03 -0.65766023431E+03  0.67611936225E+03  0.00000000000E+00 0.  1.
         21    1    1    2  502  501 -0.71345129197E+01  0.13199570379E+02 -0.12995561312E+02  0.19849799662E+02  0.00000000000E+00 0. -1.
<mgrwt>
<rscale>  1 0.30000000E+03</rscale>
<asrwt>0</asrwt>
<pdfrwt beam="1">  1        1 0.10935094E+00 0.30000000E+03</pdfrwt>
<pdfrwt beam="2">0</pdfrwt>
<totfact> 0.29975975E+01</totfact>
</mgrwt>
</event>
<event>
 6    1  0.1929825E-004  0.3000000E+03  0.7818608E-02  0.1093470E+00
          1   -1    0    0  502    0  0.00000000000E+00  0.00000000000E+00  0.27403926139E+02  0.27403926139E+02  0.00000000000E+00 0.  1.
         13   -1    0    0    0    0 -0.00000000000E+00 -0.00000000000E+00 -0.10000000000E+04  0.10000000000E+04  0.00000000000E+00 0.  1.
    9000005    2    1    2  501    0 -0.55936959725E+01  0.85054336205E+01 -0.94922358005E+03  0.10019106858E+04  0.32046214375E+03 0.  0.
         13    1    3    3    0    0 -0.69010285565E+02 -0.25983839956E+02 -0.29601448629E+02  0.79459582264E+02  0.00000000000E+00 0.  1.
          1    1    3    3  501    0  0.63416589593E+02  0.34489273577E+02 -0.91962213142E+03  0.92245110355E+03  0.00000000000E+00 0.  1.
         21    1    1    2  502  501  0.55936959725E+01 -0.85054336205E+01 -0.23372493808E+02  0.25493240330E+02  0.00000000000E+00 0.  1.
<mgrwt>
<rscale>  1 0.30000000E+03</rscale>
<asrwt>0</asrwt>
<pdfrwt beam="1">  1        1 0.99650851E-01 0.30000000E+03</pdfrwt>
<pdfrwt beam="2">0</pdfrwt>
<totfact> 0.34402336E+01</totfact>
</mgrwt>
</event>
<event>
 6    1  0.1929825E-004  0.3000000E+03  0.7818608E-02  0.1093470E+00
          1   -1    0    0  502    0  0.00000000000E+00  0.00000000000E+00  0.33298246946E+02  0.33298246946E+02  0.00000000000E+00 0.  1.
         13   -1    0    0    0    0 -0.00000000000E+00 -0.00000000000E+00 -0.10000000000E+04  0.10000000000E+04  0.00000000000E+00 0.  1.
    9000005    2    1    2  501    0 -0.97715416430E+01 -0.81038304942E+01 -0.96583486754E+03  0.10205739951E+04  0.32950437479E+03 0.  0.
         13    1    3    3    0    0 -0.84440925128E+02 -0.94241880312E+02 -0.14751226368E+03  0.19434934983E+03  0.00000000000E+00 0.  1.
          1    1    3    3  501    0  0.74669383485E+02  0.86138049818E+02 -0.81832260386E+03  0.82622464526E+03  0.00000000000E+00 0.  1.
         21    1    1    2  502  501  0.97715416430E+01  0.81038304942E+01 -0.86688551172E+00  0.12724251854E+02  0.00000000000E+00 0.  1.
<mgrwt>
<rscale>  1 0.30000000E+03</rscale>
<asrwt>0</asrwt>
<pdfrwt beam="1">  1        1 0.12108479E+00 0.30000000E+03</pdfrwt>
<pdfrwt beam="2">0</pdfrwt>
<totfact> 0.25632312E+01</totfact>
</mgrwt>
</event>
<event>
 6    1  0.1929825E-004  0.3000000E+03  0.7818608E-02  0.1093470E+00
          1   -1    0    0  502    0  0.00000000000E+00  0.00000000000E+00  0.35524420978E+02  0.35524420978E+02  0.00000000000E+00 0.  1.
         13   -1    0    0    0    0 -0.00000000000E+00 -0.00000000000E+00 -0.10000000000E+04  0.10000000000E+04  0.00000000000E+00 0.  1.
    9000005    2    1    2  501    0 -0.12088625496E+02  0.66738965252E+01 -0.96641798342E+03  0.10215799348E+04  0.33086427526E+03 0.  0.
         13    1    3    3    0    0  0.14637813949E+03 -0.40706213793E+01 -0.66437871327E+03  0.68032507254E+03  0.00000000000E+00 0.  1.
          3    1    3    3  501    0 -0.15846676499E+03  0.10744517904E+02 -0.30203927015E+03  0.34125486221E+03  0.00000000000E+00 0.  1.
         21    1    1    2  502  501  0.12088625496E+02 -0.66738965252E+01  0.19424044013E+01  0.13944486225E+02  0.00000000000E+00 0.  1.
<mgrwt>
<rscale>  1 0.30000000E+03</rscale>
<asrwt>0</asrwt>
<pdfrwt beam="1">  1        1 0.12917999E+00 0.30000000E+03</pdfrwt>
<pdfrwt beam="2">0</pdfrwt>
<totfact> 0.23116578E+01</totfact>
</mgrwt>
</event>
<event>
 6    1  0.1929825E-004  0.3000000E+03  0.7818608E-02  0.1093470E+00
          1   -1    0    0  502    0  0.00000000000E+00  0.00000000000E+00  0.30722996907E+02  0.30722996907E+02  0.00000000000E+00 0.  1.
         13   -1    0    0    0    0 -0.00000000000E+00 -0.00000000000E+00 -0.10000000000E+04  0.10000000000E+04  0.00000000000E+00 0.  1.
    9000005    2    1    2  501    0  0.12627059350E+02 -0.22702963033E+01 -0.96774026571E+03  0.10178017572E+04  0.31501523497E+03 0.  0.
         13    1    3    3    0    0  0.44526728376E+02 -0.40853749084E+02 -0.96581340056E+03  0.96770201150E+03  0.00000000000E+00 0.  1.
          3    1    3    3  501    0 -0.31899669026E+02  0.38583452781E+02 -0.19268651452E+01  0.50099745725E+02  0.00000000000E+00 0.  1.
         21    1    1    2  502  501 -0.12627059350E+02  0.22702963033E+01 -0.15367373859E+01  0.12921239682E+02  0.00000000000E+00 0. -1.
<mgrwt>
<rscale>  1 0.30000000E+03</rscale>
<asrwt>0</asrwt>
<pdfrwt beam="1">  1        1 0.11172022E+00 0.30000000E+03</pdfrwt>
<pdfrwt beam="2">0</pdfrwt>
<totfact> 0.29019795E+01</totfact>
</mgrwt>
</event>
<event>
 6    1  0.1929825E-004  0.3000000E+03  0.7818608E-02  0.1093470E+00
          1   -1    0    0  502    0  0.00000000000E+00  0.00000000000E+00  0.25944103134E+02  0.25944103134E+02  0.00000000000E+00 0.  1.
         13   -1    0    0    0    0 -0.00000000000E+00 -0.00000000000E+00 -0.10000000000E+04  0.10000000000E+04  0.00000000000E+00 0.  1.
    9000005    2    1    2  501    0  0.40656010062E+00  0.80287362759E+01 -0.95597434716E+03  0.10061560174E+04  0.31368511763E+03 0.  0.
         13    1    3    3    0    0  0.16028006356E+01  0.12900663221E+03 -0.18379925593E+03  0.22456056333E+03  0.00000000000E+00 0.  1.
          3    1    3    3  501    0 -0.11962405349E+01 -0.12097789594E+03 -0.77217509124E+03  0.78159545407E+03  0.00000000000E+00 0.  1.
         21    1    1    2  502  501 -0.40656010062E+00 -0.80287362759E+01 -0.18081549702E+02  0.19788085731E+02  0.00000000000E+00 0.  1.
<mgrwt>
<rscale>  1 0.30000000E+03</rscale>
<asrwt>0</asrwt>
<pdfrwt beam="1">  1        1 0.94342392E-01 0.30000000E+03</pdfrwt>
<pdfrwt beam="2">0</pdfrwt>
<totfact> 0.37241292E+01</totfact>
</mgrwt>
</event>
<event>
 6    1  0.1929825E-004  0.3000000E+03  0.7818608E-02  0.1093470E+00
          1   -1    0    0  502    0  0.00000000000E+00  0.00000000000E+00  0.49387177192E+02  0.49387177192E+02  0.00000000000E+00 0.  1.
         13   -1    0    0    0    0 -0.00000000000E+00 -0.00000000000E+00 -0.10000000000E+04  0.10000000000E+04  0.00000000000E+00 0.  1.
    9000005    2    1    2  501    0  0.82416160756E+02  0.94767718954E+01 -0.83629188504E+03  0.90813736455E+03  0.34416147830E+03 0.  0.
         13    1    3    3    0    0  0.16992334011E+03 -0.10685017908E+03 -0.38867751414E+03  0.43744841099E+03  0.00000000000E+00 0.  1.
          1    1    3    3  501    0 -0.87507179358E+02  0.11632695097E+03 -0.44761437090E+03  0.47068895355E+03  0.00000000000E+00 0.  1.
         21    1    1    2  502  501 -0.82416160756E+02 -0.94767718954E+01 -0.11432093777E+03  0.14124981265E+03  0.00000000000E+00 0.  1.
<mgrwt>
<rscale>  1 0.30000000E+03</rscale>
<asrwt>0</asrwt>
<pdfrwt beam="1">  1        1 0.17959011E+00 0.30000000E+03</pdfrwt>
<pdfrwt beam="2">0</pdfrwt>
<totfact> 0.12832911E+01</totfact>
</mgrwt>
</event>
<event>
 6    1  0.1929825E-004  0.3000000E+03  0.7818608E-02  0.1093470E+00
          1   -1    0    0  502    0  0.00000000000E+00  0.00000000000E+00  0.31389568648E+02  0.31389568648E+02  0.00000000000E+00 0.  1.
         13   -1    0    0    0    0 -0.00000000000E+00 -0.00000000000E+00 -0.10000000000E+04  0.10000000000E+04  0.00000000000E+00 0.  1.
    9000005    2    1    2  501    0 -0.46724484406E+01 -0.11061110695E+02 -0.95256456709E+03  0.10113483685E+04  0.33956161151E+03 0.  0.
         13    1    3    3    0    0 -0.68126122666E+02 -0.16188001339E+03 -0.46516694458E+03  0.49721885891E+03  0.00000000000E+00 0.  1.
          1    1    3    3  501    0  0.63453674225E+02  0.15081890270E+03 -0.48739762252E+03  0.51412950958E+03  0.00000000000E+00 0.  1.
         21    1    1    2  502  501  0.46724484406E+01  0.11061110695E+02 -0.16045864257E+02  0.20041200163E+02  0.00000000000E+00 0. -1.
<mgrwt>
<rscale>  1 0.30000000E+03</rscale>
<asrwt>0</asrwt>
<pdfrwt beam="1">  1        1 0.11414413E+00 0.30000000E+03</pdfrwt>
<pdfrwt beam="2">0</pdfrwt>
<totfact> 0.28085751E+01</totfact>
</mgrwt>
</event>
<event>
 6    1  0.1929825E-004  0.3000000E+03  0.7818608E-02  0.1093470E+00
          1   -1    0    0  502    0  0.00000000000E+00  0.00000000000E+00  0.31562569400E+02  0.31562569400E+02  0.00000000000E+00 0.  1.
         13   -1    0    0    0    0 -0.00000000000E+00 -0.00000000000E+00 -0.10000000000E+04  0.10000000000E+04  0.00000000000E+00 0.  1.
    9000005    2    1    2  501    0 -0.11965794854E+02  0.87622681787E+01 -0.95776035238E+03  0.10132880629E+04  0.33049636631E+03 0.  0.
         13    1    3    3    0    0 -0.14613055110E+02  0.83155880199E+02 -0.93002318430E+03  0.93384772053E+03  0.00000000000E+00 0.  1.
          3    1    3    3  501    0  0.26472602559E+01 -0.74393612021E+02 -0.27737168077E+02  0.79440342328E+02  0.00000000000E+00 0.  1.
         21    1    1    2  502  501  0.11965794854E+02 -0.87622681787E+01 -0.10677078219E+02  0.18274506544E+02  0.00000000000E+00 0.  1.
<mgrwt>
<rscale>  1 0.30000000E+03</rscale>
<asrwt>0</asrwt>
<pdfrwt beam="1">  1        1 0.11477322E+00 0.30000000E+03</pdfrwt>
<pdfrwt beam="2">0</pdfrwt>
<totfact> 0.27850318E+01</totfact>
</mgrwt>
</event>
<event>
 6    1  0.1929825E-004  0.3000000E+03  0.7818608E-02  0.1093470E+00
          1   -1    0    0  502    0  0.00000000000E+00  0.00000000000E+00  0.45948803913E+02  0.45948803913E+02  0.00000000000E+00 0.  1.
         13   -1    0    0    0    0 -0.00000000000E+00 -0.00000000000E+00 -0.10000000000E+04  0.10000000000E+04  0.00000000000E+00 0.  1.
    9000005    2    1    2  501    0 -0.55446814707E+02 -0.15960381282E+02 -0.89384512491E+03  0.96255903213E+03  0.35246517555E+03 0.  0.
         13    1    3    3    0    0  0.77272220157E+02 -0.76085104833E+02 -0.75004897387E+03  0.75784787549E+03  0.00000000000E+00 0.  1.
          1    1    3    3  501    0 -0.13271903486E+03  0.60124723551E+02 -0.14379615104E+03  0.20471115664E+03  0.00000000000E+00 0.  1.
         21    1    1    2  502  501  0.55446814707E+02  0.15960381282E+02 -0.60206071176E+02  0.83389771785E+02  0.00000000000E+00 0.  1.
<mgrwt>
<rscale>  1 0.30000000E+03</rscale>
<asrwt>0</asrwt>
<pdfrwt beam="1">  1        1 0.16708691E+00 0.30000000E+03</pdfrwt>
<pdfrwt beam="2">0</pdfrwt>
<totfact> 0.14764354E+01</totfact>
</mgrwt>
</event>
<event>
 6    1  0.1929825E-004  0.3000000E+03  0.7818608E-02  0.1093470E+00
          1   -1    0    0  502    0  0.00000000000E+00  0.00000000000E+00  0.33011854413E+02  0.33011854413E+02  0.00000000000E+00 0.  1.
         13   -1    0    0    0    0 -0.00000000000E+00 -0.00000000000E+00 -0.10000000000E+04  0.10000000000E+04  0.00000000000E+00 0.  1.
    9000005    2    1    2  501    0  0.32548467253E+02 -0.23077740571E+02 -0.90919700454E+03  0.96278507310E+03  0.31420362678E+03 0.  0.
         13    1    3    3    0    0  0.13640142256E+03 -0.32320153165E+02 -0.19024095532E+03  0.23630819168E+03  0.00000000000E+00 0.  1.
          1    1    3    3  501    0 -0.10385295530E+03  0.92424125941E+01 -0.71895604922E+03  0.72647688142E+03  0.00000000000E+00 0.  1.
         21    1    1    2  502  501 -0.32548467253E+02  0.23077740571E+02 -0.57791141045E+02  0.70226781314E+02  0.00000000000E+00 0.  1.
<mgrwt>
<rscale>  1 0.30000000E+03</rscale>
<asrwt>0</asrwt>
<pdfrwt beam="1">  1        1 0.12004336E+00 0.30000000E+03</pdfrwt>
<pdfrwt beam="2">0</pdfrwt>
<totfact> 0.25981351E+01</totfact>
</mgrwt>
</event>
<event>
 6    1  0.1929825E-004  0.3000000E+03  0.7818608E-02  0.1093470E+00
          3   -1    0    0  502    0  0.00000000000E+00  0.00000000000E+00  0.29731512622E+02  0.29731512622E+02  0.00000000000E+00 0.  1.
         13   -1    0    0    0    0 -0.00000000000E+00 -0.00000000000E+00 -0.10000000000E+04  0.10000000000E+04  0.00000000000E+00 0.  1.
    9000005    2    1    2  501    0  0.32180340777E+01  0.13018533540E+02 -0.95866742706E+03  0.10119995483E+04  0.32391358733E+03 0.  0.
         13    1    3    3    0    0 -0.71461668315E+01  0.16267200722E+03 -0.63023584815E+03  0.65093046781E+03  0.00000000000E+00 0.  1.
          3    1    3    3  501    0  0.10364200909E+02 -0.14965347368E+03 -0.32843157891E+03  0.36106908047E+03  0.00000000000E+00 0.  1.
         21    1    1    2  502  501 -0.32180340777E+01 -0.13018533540E+02 -0.11601060319E+02  0.17731964340E+02  0.00000000000E+00 0.  1.
<mgrwt>
<rscale>  1 0.30000000E+03</rscale>
<asrwt>0</asrwt>
<pdfrwt beam="1">  1        3 0.10811482E+00 0.30000000E+03</pdfrwt>
<pdfrwt beam="2">0</pdfrwt>
<totfact> 0.31664081E+00</totfact>
</mgrwt>
</event>
<event>
 6    1  0.1929825E-004  0.3000000E+03  0.7818608E-02  0.1093470E+00
          1   -1    0    0  502    0  0.00000000000E+00  0.00000000000E+00  0.29538997421E+02  0.29538997421E+02  0.00000000000E+00 0.  1.
         13   -1    0    0    0    0 -0.00000000000E+00 -0.00000000000E+00 -0.10000000000E+04  0.10000000000E+04  0.00000000000E+00 0.  1.
    9000005    2    1    2  501    0  0.15935472478E+02  0.11796561504E+02 -0.94975226648E+03  0.10008693288E+04  0.31514591471E+03 0.  0.
         13    1    3    3    0    0 -0.50929981986E+02  0.10102040718E+03 -0.12491867574E+03  0.16853385797E+03  0.00000000000E+00 0.  1.
          3    1    3    3  501    0  0.66865454464E+02 -0.89223845681E+02 -0.82483359074E+03  0.83233547086E+03  0.00000000000E+00 0.  1.
         21    1    1    2  502  501 -0.15935472478E+02 -0.11796561504E+02 -0.20708736095E+02  0.28669668590E+02  0.00000000000E+00 0.  1.
<mgrwt>
<rscale>  1 0.30000000E+03</rscale>
<asrwt>0</asrwt>
<pdfrwt beam="1">  1        1 0.10741476E+00 0.30000000E+03</pdfrwt>
<pdfrwt beam="2">0</pdfrwt>
<totfact> 0.30790987E+01</totfact>
</mgrwt>
</event>
<event>
 6    1  0.1929825E-004  0.3000000E+03  0.7818608E-02  0.1093470E+00
          1   -1    0    0  502    0  0.00000000000E+00  0.00000000000E+00  0.30442923545E+02  0.30442923545E+02  0.00000000000E+00 0.  1.
         13   -1    0    0    0    0 -0.00000000000E+00 -0.00000000000E+00 -0.10000000000E+04  0.10000000000E+04  0.00000000000E+00 0.  1.
    9000005    2    1    2  501    0 -0.13121757067E+02  0.19383011470E+02 -0.94194327421E+03  0.99424342470E+03  0.31735622585E+03 0.  0.
         13    1    3    3    0    0  0.70367390489E+01 -0.60952386776E+02 -0.14419386506E+02  0.63028785942E+02  0.00000000000E+00 0.  1.
          3    1    3    3  501    0 -0.20158496116E+02  0.80335398246E+02 -0.92752388770E+03  0.93121463875E+03  0.00000000000E+00 0.  1.
         21    1    1    2  502  501  0.13121757067E+02 -0.19383011470E+02 -0.27613802249E+02  0.36199498848E+02  0.00000000000E+00 0.  1.
<mgrwt>
<rscale>  1 0.30000000E+03</rscale>
<asrwt>0</asrwt>
<pdfrwt beam="1">  1        1 0.11070177E+00 0.30000000E+03</pdfrwt>
<pdfrwt beam="2">0</pdfrwt>
<totfact> 0.29425442E+01</totfact>
</mgrwt>
</event>
<event>
 6    1  0.1929825E-004  0.3000000E+03  0.7818608E-02  0.1093470E+00
          3   -1    0    0  502    0  0.00000000000E+00  0.00000000000E+00  0.33814604509E+02  0.33814604509E+02  0.00000000000E+00 0.  1.
         13   -1    0    0    0    0 -0.00000000000E+00 -0.00000000000E+00 -0.10000000000E+04  0.10000000000E+04  0.00000000000E+00 0.  1.
    9000005    2    1    2  501    0 -0.57561872402E+00 -0.26925913866E+02 -0.93195735162E+03  0.99026124457E+03  0.33368771492E+03 0.  0.
         13    1    3    3    0    0  0.12128081653E+03  0.23571955502E+02 -0.13719433562E+03  0.18462654000E+03  0.00000000000E+00 0.  1.
          1    1    3    3  501    0 -0.12185643525E+03 -0.50497869368E+02 -0.79476301600E+03  0.80563470458E+03  0.00000000000E+00 0.  1.
         21    1    1    2  502  501  0.57561872402E+00  0.26925913866E+02 -0.34228043868E+02  0.43553359934E+02  0.00000000000E+00 0. -1.
<mgrwt>
<rscale>  1 0.30000000E+03</rscale>
<asrwt>0</asrwt>
<pdfrwt beam="1">  1        3 0.12296246E+00 0.30000000E+03</pdfrwt>
<pdfrwt beam="2">0</pdfrwt>
<totfact> 0.21368770E+00</totfact>
</mgrwt>
</event>
<event>
 6    1  0.1929825E-004  0.3000000E+03  0.7818608E-02  0.1093470E+00
          1   -1    0    0  502    0  0.00000000000E+00  0.00000000000E+00  0.28796043028E+02  0.28796043028E+02  0.00000000000E+00 0.  1.
         13   -1    0    0    0    0 -0.00000000000E+00 -0.00000000000E+00 -0.10000000000E+04  0.10000000000E+04  0.00000000000E+00 0.  1.
    9000005    2    1    2  501    0  0.10187922486E+02  0.56694891666E+00 -0.96113185272E+03  0.10144585928E+04  0.32441899289E+03 0.  0.
         13    1    3    3    0    0  0.10634184896E+03  0.88983861962E+02 -0.20734179973E+03  0.24943403625E+03  0.00000000000E+00 0.  1.
          3    1    3    3  501    0 -0.96153926469E+02 -0.88416913046E+02 -0.75379005299E+03  0.76502455652E+03  0.00000000000E+00 0.  1.
         21    1    1    2  502  501 -0.10187922486E+02 -0.56694891666E+00 -0.10072104252E+02  0.14337450252E+02  0.00000000000E+00 0.  1.
<mgrwt>
<rscale>  1 0.30000000E+03</rscale>
<asrwt>0</asrwt>
<pdfrwt beam="1">  1        1 0.10471310E+00 0.30000000E+03</pdfrwt>
<pdfrwt beam="2">0</pdfrwt>
<totfact> 0.31982369E+01</totfact>
</mgrwt>
</event>
<event>
 6    1  0.1929825E-004  0.3000000E+03  0.7818608E-02  0.1093470E+00
          1   -1    0    0  502    0  0.00000000000E+00  0.00000000000E+00  0.26843795990E+02  0.26843795990E+02  0.00000000000E+00 0.  1.
         13   -1    0    0    0    0 -0.00000000000E+00 -0.00000000000E+00 -0.10000000000E+04  0.10000000000E+04  0.00000000000E+00 0.  1.
    9000005    2    1    2  501    0  0.28150541876E+00  0.10807514106E+02 -0.96559527500E+03  0.10136510232E+04  0.30821628789E+03 0.  0.
         13    1    3    3    0    0  0.82323938604E+02  0.12735541467E+03 -0.34429835010E+03  0.37621534577E+03  0.00000000000E+00 0.  1.
          1    1    3    3  501    0 -0.82042433185E+02 -0.11654790056E+03 -0.62129692490E+03  0.63743567743E+03  0.00000000000E+00 0.  1.
         21    1    1    2  502  501 -0.28150541876E+00 -0.10807514106E+02 -0.75609290104E+01  0.13192772792E+02  0.00000000000E+00 0.  1.
<mgrwt>
<rscale>  1 0.30000000E+03</rscale>
<asrwt>0</asrwt>
<pdfrwt beam="1">  1        1 0.97614009E-01 0.30000000E+03</pdfrwt>
<pdfrwt beam="2">0</pdfrwt>
<totfact> 0.35452419E+01</totfact>
</mgrwt>
</event>
<event>
 6    1  0.1929825E-004  0.3000000E+03  0.7818608E-02  0.1093470E+00
          1   -1    0    0  502    0  0.00000000000E+00  0.00000000000E+00  0.28600756113E+02  0.28600756113E+02  0.00000000000E+00 0.  1.
         13   -1    0    0    0    0 -0.00000000000E+00 -0.00000000000E+00 -0.10000000000E+04  0.10000000000E+04  0.00000000000E+00 0.  1.
    9000005    2    1    2  501    0 -0.13596639660E+02  0.11172914034E+01 -0.95904970368E+03  0.10101989058E+04  0.31707945106E+03 0.  0.
         13    1    3    3    0    0  0.68286283045E+02 -0.63032783339E+02 -0.86496256020E+03  0.86994044553E+03  0.00000000000E+00 0.  1.
          3    1    3    3  501    0 -0.81882922704E+02  0.64150074742E+02 -0.94087143487E+02  0.14025846031E+03  0.00000000000E+00 0.  1.
         21    1    1    2  502  501  0.13596639660E+02 -0.11172914034E+01 -0.12349540204E+02  0.18401850270E+02  0.00000000000E+00 0.  1.
<mgrwt>
<rscale>  1 0.30000000E+03</rscale>
<asrwt>0</asrwt>
<pdfrwt beam="1">  1        1 0.10400297E+00 0.30000000E+03</pdfrwt>
<pdfrwt beam="2">0</pdfrwt>
<totfact> 0.32306574E+01</totfact>
</mgrwt>
</event>
<event>
 6    1  0.1929825E-004  0.3000000E+03  0.7818608E-02  0.1093470E+00
          1   -1    0    0  502    0  0.00000000000E+00  0.00000000000E+00  0.28621396165E+02  0.28621396165E+02  0.00000000000E+00 0.  1.
         13   -1    0    0    0    0 -0.00000000000E+00 -0.00000000000E+00 -0.10000000000E+04  0.10000000000E+04  0.00000000000E+00 0.  1.
    9000005    2    1    2  501    0  0.54289389612E+01 -0.51725284625E+01 -0.94922405565E+03  0.10052322441E+04  0.33077080936E+03 0.  0.
         13    1    3    3    0    0  0.15308122706E+03  0.61756386728E+02 -0.55349517264E+03  0.57758516213E+03  0.00000000000E+00 0.  1.
          3    1    3    3  501    0 -0.14765228810E+03 -0.66928915191E+02 -0.39572888301E+03  0.42764708197E+03  0.00000000000E+00 0.  1.
         21    1    1    2  502  501 -0.54289389612E+01  0.51725284625E+01 -0.22154548183E+02  0.23389152061E+02  0.00000000000E+00 0.  1.
<mgrwt>
<rscale>  1 0.30000000E+03</rscale>
<asrwt>0</asrwt>
<pdfrwt beam="1">  1        1 0.10407802E+00 0.30000000E+03</pdfrwt>
<pdfrwt beam="2">0</pdfrwt>
<totfact> 0.32272083E+01</totfact>
</mgrwt>
</event>
<event>
 6    1  0.1929825E-004  0.3000000E+03  0.7818608E-02  0.1093470E+00
          1   -1    0    0  502    0  0.00000000000E+00  0.00000000000E+00  0.38420636506E+02  0.38420636506E+02  0.00000000000E+00 0.  1.
         13   -1    0    0    0    0 -0.00000000000E+00 -0.00000000000E+00 -0.10000000000E+04  0.10000000000E+04  0.00000000000E+00 0.  1.
    9000005    2    1    2  501    0  0.10237321679E+02  0.24942316793E+01 -0.97006377198E+03  0.10248925496E+04  0.33056011959E+03 0.  0.
         13    1    3    3    0    0  0.11370471762E+01  0.43473281768E+02 -0.98063964075E+03  0.98160344544E+03  0.00000000000E+00 0.  1.
          3    1    3    3  501    0  0.91002745029E+01 -0.40979050089E+02  0.10575868768E+02  0.43289104199E+02  0.00000000000E+00 0.  1.
         21    1    1    2  502  501 -0.10237321679E+02 -0.24942316793E+01  0.84844084850E+01  0.13528086863E+02  0.00000000000E+00 0.  1.
<mgrwt>
<rscale>  1 0.30000000E+03</rscale>
<asrwt>0</asrwt>
<pdfrwt beam="1">  1        1 0.13971170E+00 0.30000000E+03</pdfrwt>
<pdfrwt beam="2">0</pdfrwt>
<totfact> 0.20302816E+01</totfact>
</mgrwt>
</event>
<event>
 6    1  0.1929825E-004  0.3000000E+03  0.7818608E-02  0.1093470E+00
          1   -1    0    0  502    0  0.00000000000E+00  0.00000000000E+00  0.48374195975E+02  0.48374195975E+02  0.00000000000E+00 0.  1.
         13   -1    0    0    0    0 -0.00000000000E+00 -0.00000000000E+00 -0.10000000000E+04  0.10000000000E+04  0.00000000000E+00 0.  1.
    9000005    2    1    2  501    0  0.44378592894E+02 -0.62825497216E+02 -0.87541049176E+03  0.94009088040E+03  0.33393237598E+03 0.  0.
         13    1    3    3    0    0  0.18609561066E+03 -0.49865625068E+02 -0.40251767362E+03  0.44624952039E+03  0.00000000000E+00 0.  1.
          3    1    3    3  501    0 -0.14171701777E+03 -0.12959872148E+02 -0.47289281814E+03  0.49384136001E+03  0.00000000000E+00 0.  1.
         21    1    1    2  502  501 -0.44378592894E+02  0.62825497216E+02 -0.76215312264E+02  0.10828331557E+03  0.00000000000E+00 0.  1.
<mgrwt>
<rscale>  1 0.30000000E+03</rscale>
<asrwt>0</asrwt>
<pdfrwt beam="1">  1        1 0.17590654E+00 0.30000000E+03</pdfrwt>
<pdfrwt beam="2">0</pdfrwt>
<totfact> 0.13371561E+01</totfact>
</mgrwt>
</event>
<event>
 6    1  0.1929825E-004  0.3000000E+03  0.7818608E-02  0.1093470E+00
          1   -1    0    0  502    0  0.00000000000E+00  0.00000000000E+00  0.26671097039E+02  0.26671097039E+02  0.00000000000E+00 0.  1.
         13   -1    0    0    0    0 -0.00000000000E+00 -0.00000000000E+00 -0.10000000000E+04  0.10000000000E+04  0.00000000000E+00 0.  1.
    9000005    2    1    2  501    0  0.79704377291E+01 -0.78057323826E+01 -0.95390071110E+03  0.10042677050E+04  0.31385123760E+03 0.  0.
         13    1    3    3    0    0 -0.23863161111E+02 -0.48197369296E+02 -0.95125220913E+03  0.95277132736E+03  0.00000000000E+00 0.  1.
          1    1    3    3  501    0  0.31833598840E+02  0.40391636913E+02 -0.26485019671E+01  0.51496377643E+02  0.00000000000E+00 0.  1.
         21    1    1    2  502  501 -0.79704377291E+01  0.78057323826E+01 -0.19428191863E+02  0.22403392035E+02  0.00000000000E+00 0.  1.
<mgrwt>
<rscale>  1 0.30000000E+03</rscale>
<asrwt>0</asrwt>
<pdfrwt beam="1">  1        1 0.96986012E-01 0.30000000E+03</pdfrwt>
<pdfrwt beam="2">0</pdfrwt>
<totfact> 0.35785751E+01</totfact>
</mgrwt>
</event>
<event>
 6    1  0.1929825E-004  0.3000000E+03  0.7818608E-02  0.1093470E+00
          1   -1    0    0  502    0  0.00000000000E+00  0.00000000000E+00  0.67210249631E+02  0.67210249631E+02  0.00000000000E+00 0.  1.
         13   -1    0    0    0    0 -0.00000000000E+00 -0.00000000000E+00 -0.10000000000E+04  0.10000000000E+04  0.00000000000E+00 0.  1.
    9000005    2    1    2  501    0 -0.15078285838E+02  0.69149176949E+01 -0.97194047296E+03  0.10246902559E+04  0.32410903518E+03 0.  0.
         13    1    3    3    0    0 -0.43035373864E+01  0.67703278972E+01  0.25735093130E+02  0.26956498145E+02  0.00000000000E+00 0.  1.
          3    1    3    3  501    0 -0.10774748451E+02  0.14458979770E+00 -0.99767556609E+03  0.99773375772E+03  0.00000000000E+00 0.  1.
         21    1    1    2  502  501  0.15078285838E+02 -0.69149176949E+01  0.39150722593E+02  0.42519993769E+02  0.00000000000E+00 0.  1.
<mgrwt>
<rscale>  1 0.30000000E+03</rscale>
<asrwt>0</asrwt>
<pdfrwt beam="1">  1        1 0.24440142E+00 0.30000000E+03</pdfrwt>
<pdfrwt beam="2">0</pdfrwt>
<totfact> 0.63358285E+00</totfact>
</mgrwt>
</event>
<event>
 6    1  0.1929825E-004  0.3000000E+03  0.7818608E-02  0.1093470E+00
          1   -1    0    0  502    0  0.00000000000E+00  0.00000000000E+00  0.40194781757E+02  0.40194781757E+02  0.00000000000E+00 0.  1.
         13   -1    0    0    0    0 -0.00000000000E+00 -0.00000000000E+00 -0.10000000000E+04  0.10000000000E+04  0.00000000000E+00 0.  1.
    9000005    2    1    2  501    0  0.16956524406E+02  0.37087572518E+02 -0.93393899127E+03  0.99190323536E+03  0.33161269149E+03 0.  0.
         13    1    3    3    0    0 -0.84970872843E+01  0.34095781841E+02  0.18095188399E+02  0.39524153057E+02  0.00000000000E+00 0.  1.
          1    1    3    3  501    0  0.25453611691E+02  0.29917906768E+01 -0.95203417967E+03  0.95237908230E+03  0.00000000000E+00 0.  1.
         21    1    1    2  502  501 -0.16956524406E+02 -0.37087572518E+02 -0.25866226977E+02  0.48291546395E+02  0.00000000000E+00 0. -1.
<mgrwt>
<rscale>  1 0.30000000E+03</rscale>
<asrwt>0</asrwt>
<pdfrwt beam="1">  1        1 0.14616315E+00 0.30000000E+03</pdfrwt>
<pdfrwt beam="2">0</pdfrwt>
<totfact> 0.18795086E+01</totfact>
</mgrwt>
</event>
<event>
 6    1  0.1929825E-004  0.3000000E+03  0.7818608E-02  0.1093470E+00
          1   -1    0    0  502    0  0.00000000000E+00  0.00000000000E+00  0.28670588635E+02  0.28670588635E+02  0.00000000000E+00 0.  1.
         13   -1    0    0    0    0 -0.00000000000E+00 -0.00000000000E+00 -0.10000000000E+04  0.10000000000E+04  0.00000000000E+00 0.  1.
    9000005    2    1    2  501    0 -0.92410248276E+01 -0.34583480616E+01 -0.96041606423E+03  0.10139580818E+04  0.32498402813E+03 0.  0.
         13    1    3    3    0    0  0.11211423232E+03  0.99017409427E+02 -0.30682259020E+03  0.34134169144E+03  0.00000000000E+00 0.  1.
          3    1    3    3  501    0 -0.12135525715E+03 -0.10247575749E+03 -0.65359347403E+03  0.67261639038E+03  0.00000000000E+00 0.  1.
         21    1    1    2  502  501  0.92410248276E+01  0.34583480616E+01 -0.10913347135E+02  0.14712506818E+02  0.00000000000E+00 0. -1.
<mgrwt>
<rscale>  1 0.30000000E+03</rscale>
<asrwt>0</asrwt>
<pdfrwt beam="1">  1        1 0.10425691E+00 0.30000000E+03</pdfrwt>
<pdfrwt beam="2">0</pdfrwt>
<totfact> 0.32190096E+01</totfact>
</mgrwt>
</event>
<event>
 6    1  0.1929825E-004  0.3000000E+03  0.7818608E-02  0.1093470E+00
          1   -1    0    0  502    0  0.00000000000E+00  0.00000000000E+00  0.51755674818E+02  0.51755674818E+02  0.00000000000E+00 0.  1.
         13   -1    0    0    0    0 -0.00000000000E+00 -0.00000000000E+00 -0.10000000000E+04  0.10000000000E+04  0.00000000000E+00 0.  1.
    9000005    2    1    2  501    0 -0.87097117215E+02  0.35377491502E+02 -0.87295426422E+03  0.93131453562E+03  0.31058033116E+03 0.  0.
         13    1    3    3    0    0 -0.87949687077E+02  0.15570884296E+03 -0.33160567677E+03  0.37675285812E+03  0.00000000000E+00 0.  1.
          1    1    3    3  501    0  0.85256986221E+00 -0.12033135146E+03 -0.54134858745E+03  0.55456167750E+03  0.00000000000E+00 0.  1.
         21    1    1    2  502  501  0.87097117215E+02 -0.35377491502E+02 -0.75290060961E+02  0.12044113920E+03  0.00000000000E+00 0. -1.
<mgrwt>
<rscale>  1 0.30000000E+03</rscale>
<asrwt>0</asrwt>
<pdfrwt beam="1">  1        1 0.18820285E+00 0.30000000E+03</pdfrwt>
<pdfrwt beam="2">0</pdfrwt>
<totfact> 0.11663464E+01</totfact>
</mgrwt>
</event>
<event>
 6    1  0.1929825E-004  0.3000000E+03  0.7818608E-02  0.1093470E+00
          1   -1    0    0  502    0  0.00000000000E+00  0.00000000000E+00  0.30835324831E+02  0.30835324831E+02  0.00000000000E+00 0.  1.
         13   -1    0    0    0    0 -0.00000000000E+00 -0.00000000000E+00 -0.10000000000E+04  0.10000000000E+04  0.00000000000E+00 0.  1.
    9000005    2    1    2  501    0  0.12859853853E+00 -0.12199450314E+02 -0.96910026218E+03  0.10186350267E+04  0.31354928850E+03 0.  0.
         13    1    3    3    0    0  0.91651353534E+02 -0.97521990808E+02 -0.78317115325E+03  0.79452348271E+03  0.00000000000E+00 0.  1.
          3    1    3    3  501    0 -0.91522754996E+02  0.85322540494E+02 -0.18592910894E+03  0.22411154399E+03  0.00000000000E+00 0.  1.
         21    1    1    2  502  501 -0.12859853853E+00  0.12199450314E+02 -0.64412985521E-01  0.12200298135E+02  0.00000000000E+00 0. -1.
<mgrwt>
<rscale>  1 0.30000000E+03</rscale>
<asrwt>0</asrwt>
<pdfrwt beam="1">  1        1 0.11212869E+00 0.30000000E+03</pdfrwt>
<pdfrwt beam="2">0</pdfrwt>
<totfact> 0.28859321E+01</totfact>
</mgrwt>
</event>
<event>
 6    1  0.1929825E-004  0.3000000E+03  0.7818608E-02  0.1093470E+00
          1   -1    0    0  502    0  0.00000000000E+00  0.00000000000E+00  0.59907254971E+02  0.59907254971E+02  0.00000000000E+00 0.  1.
         13   -1    0    0    0    0 -0.00000000000E+00 -0.00000000000E+00 -0.10000000000E+04  0.10000000000E+04  0.00000000000E+00 0.  1.
    9000005    2    1    2  501    0  0.59767681606E+02  0.13360654651E+03 -0.67465180434E+03  0.75678718301E+03  0.31007885807E+03 0.  0.
         13    1    3    3    0    0  0.62933580839E+02 -0.94101520107E+02 -0.26329200741E+03  0.28659799869E+03  0.00000000000E+00 0.  1.
          1    1    3    3  501    0 -0.31658992323E+01  0.22770806662E+03 -0.41135979693E+03  0.47018918432E+03  0.00000000000E+00 0.  1.
         21    1    1    2  502  501 -0.59767681606E+02 -0.13360654651E+03 -0.26544094068E+03  0.30312007196E+03  0.00000000000E+00 0.  1.
<mgrwt>
<rscale>  1 0.30000000E+03</rscale>
<asrwt>0</asrwt>
<pdfrwt beam="1">  1        1 0.21784502E+00 0.30000000E+03</pdfrwt>
<pdfrwt beam="2">0</pdfrwt>
<totfact> 0.84373700E+00</totfact>
</mgrwt>
</event>
<event>
 6    1  0.1929825E-004  0.3000000E+03  0.7818608E-02  0.1093470E+00
          1   -1    0    0  502    0  0.00000000000E+00  0.00000000000E+00  0.61290307398E+02  0.61290307398E+02  0.00000000000E+00 0.  1.
         13   -1    0    0    0    0 -0.00000000000E+00 -0.00000000000E+00 -0.10000000000E+04  0.10000000000E+04  0.00000000000E+00 0.  1.
    9000005    2    1    2  501    0  0.86947443072E+01  0.53568728251E+02 -0.94097518059E+03  0.10069732782E+04  0.35442303157E+03 0.  0.
         13    1    3    3    0    0 -0.98599199922E+02  0.16038331265E+03 -0.35591245347E+03  0.40263914830E+03  0.00000000000E+00 0.  1.
          3    1    3    3  501    0  0.10729394423E+03 -0.10681458440E+03 -0.58506272711E+03  0.60433412990E+03  0.00000000000E+00 0.  1.
         21    1    1    2  502  501 -0.86947443072E+01 -0.53568728251E+02  0.22654879865E+01  0.54317029197E+02  0.00000000000E+00 0. -1.
<mgrwt>
<rscale>  1 0.30000000E+03</rscale>
<asrwt>0</asrwt>
<pdfrwt beam="1">  1        1 0.22287432E+00 0.30000000E+03</pdfrwt>
<pdfrwt beam="2">0</pdfrwt>
<totfact> 0.79915355E+00</totfact>
</mgrwt>
</event>
<event>
 6    1  0.1929825E-004  0.3000000E+03  0.7818608E-02  0.1093470E+00
          1   -1    0    0  502    0  0.00000000000E+00  0.00000000000E+00  0.42691942153E+02  0.42691942153E+02  0.00000000000E+00 0.  1.
         13   -1    0    0    0    0 -0.00000000000E+00 -0.00000000000E+00 -0.10000000000E+04  0.10000000000E+04  0.00000000000E+00 0.  1.
    9000005    2    1    2  501    0  0.56627049526E+02 -0.47375552376E+02 -0.85001014221E+03  0.91244637255E+03  0.32340388869E+03 0.  0.
         13    1    3    3    0    0  0.19051920013E+02 -0.87865124078E+02 -0.36452602655E+02  0.97015709686E+02  0.00000000000E+00 0.  1.
          3    1    3    3  501    0  0.37575129513E+02  0.40489571702E+02 -0.81355753955E+03  0.81543066286E+03  0.00000000000E+00 0.  1.
         21    1    1    2  502  501 -0.56627049526E+02  0.47375552376E+02 -0.10729791564E+03  0.13024556960E+03  0.00000000000E+00 0.  1.
<mgrwt>
<rscale>  1 0.30000000E+03</rscale>
<asrwt>0</asrwt>
<pdfrwt beam="1">  1        1 0.15524375E+00 0.30000000E+03</pdfrwt>
<pdfrwt beam="2">0</pdfrwt>
<totfact> 0.16902263E+01</totfact>
</mgrwt>
</event>
<event>
 6    1  0.1929825E-004  0.3000000E+03  0.7818608E-02  0.1093470E+00
          1   -1    0    0  502    0  0.00000000000E+00  0.00000000000E+00  0.41640771962E+02  0.41640771962E+02  0.00000000000E+00 0.  1.
         13   -1    0    0    0    0 -0.00000000000E+00 -0.00000000000E+00 -0.10000000000E+04  0.10000000000E+04  0.00000000000E+00 0.  1.
    9000005    2    1    2  501    0 -0.24731351886E+02  0.31051350516E+02 -0.93694567929E+03  0.99653682308E+03  0.33710919250E+03 0.  0.
         13    1    3    3    0    0  0.67785192938E+02  0.16729200027E+02 -0.88828960291E+03  0.89102924596E+03  0.00000000000E+00 0.  1.
          1    1    3    3  501    0 -0.92516544824E+02  0.14322150488E+02 -0.48656076384E+02  0.10550757712E+03  0.00000000000E+00 0.  1.
         21    1    1    2  502  501  0.24731351886E+02 -0.31051350516E+02 -0.21413548744E+02  0.45103948882E+02  0.00000000000E+00 0.  1.
<mgrwt>
<rscale>  1 0.30000000E+03</rscale>
<asrwt>0</asrwt>
<pdfrwt beam="1">  1        1 0.15142131E+00 0.30000000E+03</pdfrwt>
<pdfrwt beam="2">0</pdfrwt>
<totfact> 0.17669045E+01</totfact>
</mgrwt>
</event>
<event>
 6    1  0.1929825E-004  0.3000000E+03  0.7818608E-02  0.1093470E+00
          1   -1    0    0  502    0  0.00000000000E+00  0.00000000000E+00  0.27962277141E+02  0.27962277141E+02  0.00000000000E+00 0.  1.
         13   -1    0    0    0    0 -0.00000000000E+00 -0.00000000000E+00 -0.10000000000E+04  0.10000000000E+04  0.00000000000E+00 0.  1.
    9000005    2    1    2  501    0 -0.14743976586E+02  0.99741885189E+01 -0.93578724982E+03  0.98757705611E+03  0.31510918036E+03 0.  0.
         13    1    3    3    0    0 -0.11733062907E+03 -0.66138245032E+02 -0.20220274837E+03  0.24295410147E+03  0.00000000000E+00 0.  1.
          1    1    3    3  501    0  0.10258665248E+03  0.76112433551E+02 -0.73358450145E+03  0.74462295464E+03  0.00000000000E+00 0.  1.
         21    1    1    2  502  501  0.14743976586E+02 -0.99741885189E+01 -0.36250473036E+02  0.40385221029E+02  0.00000000000E+00 0.  1.
<mgrwt>
<rscale>  1 0.30000000E+03</rscale>
<asrwt>0</asrwt>
<pdfrwt beam="1">  1        1 0.10168122E+00 0.30000000E+03</pdfrwt>
<pdfrwt beam="2">0</pdfrwt>
<totfact> 0.33400576E+01</totfact>
</mgrwt>
</event>
<event>
 6    1  0.1929825E-004  0.3000000E+03  0.7818608E-02  0.1093470E+00
          1   -1    0    0  502    0  0.00000000000E+00  0.00000000000E+00  0.34861104039E+02  0.34861104039E+02  0.00000000000E+00 0.  1.
         13   -1    0    0    0    0 -0.00000000000E+00 -0.00000000000E+00 -0.10000000000E+04  0.10000000000E+04  0.00000000000E+00 0.  1.
    9000005    2    1    2  501    0  0.12241103061E+02 -0.23053624829E+02 -0.95056905761E+03  0.10049680545E+04  0.32511220069E+03 0.  0.
         13    1    3    3    0    0  0.31962308379E+02 -0.65826666789E+02 -0.23722171598E+02  0.76925162611E+02  0.00000000000E+00 0.  1.
          1    1    3    3  501    0 -0.19721205317E+02  0.42773041960E+02 -0.92684688601E+03  0.92804289187E+03  0.00000000000E+00 0.  1.
         21    1    1    2  502  501 -0.12241103061E+02  0.23053624829E+02 -0.14569838355E+02  0.29893049553E+02  0.00000000000E+00 0.  1.
<mgrwt>
<rscale>  1 0.30000000E+03</rscale>
<asrwt>0</asrwt>
<pdfrwt beam="1">  1        1 0.12676792E+00 0.30000000E+03</pdfrwt>
<pdfrwt beam="2">0</pdfrwt>
<totfact> 0.23831717E+01</totfact>
</mgrwt>
</event>
<event>
 6    1  0.1929825E-004  0.3000000E+03  0.7818608E-02  0.1093470E+00
          1   -1    0    0  502    0  0.00000000000E+00  0.00000000000E+00  0.27314175011E+02  0.27314175011E+02  0.00000000000E+00 0.  1.
         13   -1    0    0    0    0 -0.00000000000E+00 -0.00000000000E+00 -0.10000000000E+04  0.10000000000E+04  0.00000000000E+00 0.  1.
    9000005    2    1    2  501    0  0.14755375315E+02 -0.73998164200E+01 -0.91940016798E+03  0.97153030973E+03  0.31353149035E+03 0.  0.
         13    1    3    3    0    0 -0.14741186098E+03  0.17946775045E+02 -0.39230586776E+03  0.41947137849E+03  0.00000000000E+00 0.  1.
          3    1    3    3  501    0  0.16216723630E+03 -0.25346591465E+02 -0.52709430023E+03  0.55205893124E+03  0.00000000000E+00 0.  1.
         21    1    1    2  502  501 -0.14755375315E+02  0.73998164200E+01 -0.53285657004E+02  0.55783865285E+02  0.00000000000E+00 0. -1.
<mgrwt>
<rscale>  1 0.30000000E+03</rscale>
<asrwt>0</asrwt>
<pdfrwt beam="1">  1        1 0.99324482E-01 0.30000000E+03</pdfrwt>
<pdfrwt beam="2">0</pdfrwt>
<totfact> 0.34567479E+01</totfact>
</mgrwt>
</event>
<event>
 6    1  0.1929825E-004  0.3000000E+03  0.7818608E-02  0.1093470E+00
          1   -1    0    0  502    0  0.00000000000E+00  0.00000000000E+00  0.29945331845E+02  0.29945331845E+02  0.00000000000E+00 0.  1.
         13   -1    0    0    0    0 -0.00000000000E+00 -0.00000000000E+00 -0.10000000000E+04  0.10000000000E+04  0.00000000000E+00 0.  1.
    9000005    2    1    2  501    0  0.15799438583E+02  0.51781872092E+01 -0.95733498162E+03  0.10090114763E+04  0.31833544634E+03 0.  0.
         13    1    3    3    0    0  0.80331465869E+02  0.14405034862E+03 -0.52975726734E+03  0.55483908446E+03  0.00000000000E+00 0.  1.
          3    1    3    3  501    0 -0.64532027287E+02 -0.13887216141E+03 -0.42757771428E+03  0.45417239184E+03  0.00000000000E+00 0.  1.
         21    1    1    2  502  501 -0.15799438583E+02 -0.51781872092E+01 -0.12719686538E+02  0.20933855544E+02  0.00000000000E+00 0. -1.
<mgrwt>
<rscale>  1 0.30000000E+03</rscale>
<asrwt>0</asrwt>
<pdfrwt beam="1">  1        1 0.10889235E+00 0.30000000E+03</pdfrwt>
<pdfrwt beam="2">0</pdfrwt>
<totfact> 0.30166207E+01</totfact>
</mgrwt>
</event>
<event>
 6    1  0.1929825E-004  0.3000000E+03  0.7818608E-02  0.1093470E+00
          1   -1    0    0  502    0  0.00000000000E+00  0.00000000000E+00  0.42170130044E+02  0.42170130044E+02  0.00000000000E+00 0.  1.
         13   -1    0    0    0    0 -0.00000000000E+00 -0.00000000000E+00 -0.10000000000E+04  0.10000000000E+04  0.00000000000E+00 0.  1.
    9000005    2    1    2  501    0 -0.86494502684E+01  0.10411517217E+02 -0.97723615299E+03  0.10185096883E+04  0.28668497316E+03 0.  0.
         13    1    3    3    0    0 -0.34931341691E+02 -0.11505226071E+03 -0.22198227625E+03  0.25245465394E+03  0.00000000000E+00 0.  1.
          1    1    3    3  501    0  0.26281891422E+02  0.12546377793E+03 -0.75525387674E+03  0.76605503440E+03  0.00000000000E+00 0.  1.
         21    1    1    2  502  501  0.86494502684E+01 -0.10411517217E+02  0.19406283034E+02  0.23660441710E+02  0.00000000000E+00 0.  1.
<mgrwt>
<rscale>  1 0.30000000E+03</rscale>
<asrwt>0</asrwt>
<pdfrwt beam="1">  1        1 0.15334625E+00 0.30000000E+03</pdfrwt>
<pdfrwt beam="2">0</pdfrwt>
<totfact> 0.17277744E+01</totfact>
</mgrwt>
</event>
<event>
 6    1  0.1929825E-004  0.3000000E+03  0.7818608E-02  0.1093470E+00
          1   -1    0    0  502    0  0.00000000000E+00  0.00000000000E+00  0.39268563127E+02  0.39268563127E+02  0.00000000000E+00 0.  1.
         13   -1    0    0    0    0 -0.00000000000E+00 -0.00000000000E+00 -0.10000000000E+04  0.10000000000E+04  0.00000000000E+00 0.  1.
    9000005    2    1    2  501    0  0.16818423599E+02 -0.80381950375E+01 -0.96755939519E+03  0.10194167882E+04  0.32045582061E+03 0.  0.
         13    1    3    3    0    0  0.15163346648E+03  0.26758593826E+02 -0.29684878212E+03  0.33440683299E+03  0.00000000000E+00 0.  1.
          1    1    3    3  501    0 -0.13481504289E+03 -0.34796788864E+02 -0.67071061307E+03  0.68500995524E+03  0.00000000000E+00 0.  1.
         21    1    1    2  502  501 -0.16818423599E+02  0.80381950375E+01  0.68279583137E+01  0.19851774897E+02  0.00000000000E+00 0.  1.
<mgrwt>
<rscale>  1 0.30000000E+03</rscale>
<asrwt>0</asrwt>
<pdfrwt beam="1">  1        1 0.14279508E+00 0.30000000E+03</pdfrwt>
<pdfrwt beam="2">0</pdfrwt>
<totfact> 0.19563837E+01</totfact>
</mgrwt>
</event>
<event>
 6    1  0.1929825E-004  0.3000000E+03  0.7818608E-02  0.1093470E+00
          1   -1    0    0  502    0  0.00000000000E+00  0.00000000000E+00  0.57251973746E+02  0.57251973746E+02  0.00000000000E+00 0.  1.
         13   -1    0    0    0    0 -0.00000000000E+00 -0.00000000000E+00 -0.10000000000E+04  0.10000000000E+04  0.00000000000E+00 0.  1.
    9000005    2    1    2  501    0  0.62561773290E+01  0.19983653522E+02 -0.97015212336E+03  0.10227632698E+04  0.32312702979E+03 0.  0.
         13    1    3    3    0    0 -0.11935266497E+03 -0.87379487761E+02 -0.58983776822E+03  0.60810264457E+03  0.00000000000E+00 0.  1.
          3    1    3    3  501    0  0.12560884230E+03  0.10736314128E+03 -0.38031435514E+03  0.41466062521E+03  0.00000000000E+00 0.  1.
         21    1    1    2  502  501 -0.62561773290E+01 -0.19983653522E+02  0.27404097110E+02  0.34488703966E+02  0.00000000000E+00 0.  1.
<mgrwt>
<rscale>  1 0.30000000E+03</rscale>
<asrwt>0</asrwt>
<pdfrwt beam="1">  1        1 0.20818943E+00 0.30000000E+03</pdfrwt>
<pdfrwt beam="2">0</pdfrwt>
<totfact> 0.93677160E+00</totfact>
</mgrwt>
</event>
<event>
 6    1  0.1929825E-004  0.3000000E+03  0.7818608E-02  0.1093470E+00
          1   -1    0    0  502    0  0.00000000000E+00  0.00000000000E+00  0.30320805739E+02  0.30320805739E+02  0.00000000000E+00 0.  1.
         13   -1    0    0    0    0 -0.00000000000E+00 -0.00000000000E+00 -0.10000000000E+04  0.10000000000E+04  0.00000000000E+00 0.  1.
    9000005    2    1    2  501    0  0.18473231011E+02  0.47186479047E+01 -0.95132923204E+03  0.10038586249E+04  0.31990827611E+03 0.  0.
         13    1    3    3    0    0 -0.77034394932E+02  0.10583180967E+03 -0.19509370816E+03  0.23493876842E+03  0.00000000000E+00 0.  1.
          1    1    3    3  501    0  0.95507625943E+02 -0.10111316177E+03 -0.75623552388E+03  0.76891985647E+03  0.00000000000E+00 0.  1.
         21    1    1    2  502  501 -0.18473231011E+02 -0.47186479047E+01 -0.18349962223E+02  0.26462180855E+02  0.00000000000E+00 0.  1.
<mgrwt>
<rscale>  1 0.30000000E+03</rscale>
<asrwt>0</asrwt>
<pdfrwt beam="1">  1        1 0.11025771E+00 0.30000000E+03</pdfrwt>
<pdfrwt beam="2">0</pdfrwt>
<totfact> 0.29604826E+01</totfact>
</mgrwt>
</event>
<event>
 6    1  0.1929825E-004  0.3000000E+03  0.7818608E-02  0.1093470E+00
          1   -1    0    0  502    0  0.00000000000E+00  0.00000000000E+00  0.29093488146E+02  0.29093488146E+02  0.00000000000E+00 0.  1.
         13   -1    0    0    0    0 -0.00000000000E+00 -0.00000000000E+00 -0.10000000000E+04  0.10000000000E+04  0.00000000000E+00 0.  1.
    9000005    2    1    2  501    0  0.80602833245E+01  0.67851473428E+01 -0.96202636714E+03  0.10153143967E+04  0.32443425624E+03 0.  0.
         13    1    3    3    0    0  0.10763297767E+03 -0.94613749801E+02 -0.72436032807E+03  0.73839996236E+03  0.00000000000E+00 0.  1.
          3    1    3    3  501    0 -0.99572694347E+02  0.10139889714E+03 -0.23766603907E+03  0.27691443431E+03  0.00000000000E+00 0.  1.
         21    1    1    2  502  501 -0.80602833245E+01 -0.67851473428E+01 -0.88801447157E+01  0.13779091476E+02  0.00000000000E+00 0. -1.
<mgrwt>
<rscale>  1 0.30000000E+03</rscale>
<asrwt>0</asrwt>
<pdfrwt beam="1">  1        1 0.10579473E+00 0.30000000E+03</pdfrwt>
<pdfrwt beam="2">0</pdfrwt>
<totfact> 0.31497549E+01</totfact>
</mgrwt>
</event>
<event>
 6    1  0.1929825E-004  0.3000000E+03  0.7818608E-02  0.1093470E+00
          1   -1    0    0  502    0  0.00000000000E+00  0.00000000000E+00  0.27743611812E+02  0.27743611812E+02  0.00000000000E+00 0.  1.
         13   -1    0    0    0    0 -0.00000000000E+00 -0.00000000000E+00 -0.10000000000E+04  0.10000000000E+04  0.00000000000E+00 0.  1.
    9000005    2    1    2  501    0 -0.94472361779E+01  0.43959225126E+01 -0.95337503033E+03  0.10061778964E+04  0.32149873463E+03 0.  0.
         13    1    3    3    0    0 -0.34569134088E+01  0.13791417740E+03 -0.75157640323E+03  0.76413307773E+03  0.00000000000E+00 0.  1.
          1    1    3    3  501    0 -0.59903227691E+01 -0.13351825489E+03 -0.20179862709E+03  0.24204481868E+03  0.00000000000E+00 0.  1.
         21    1    1    2  502  501  0.94472361779E+01 -0.43959225126E+01 -0.18881357862E+02  0.21565715404E+02  0.00000000000E+00 0.  1.
<mgrwt>
<rscale>  1 0.30000000E+03</rscale>
<asrwt>0</asrwt>
<pdfrwt beam="1">  1        1 0.10088607E+00 0.30000000E+03</pdfrwt>
<pdfrwt beam="2">0</pdfrwt>
<totfact> 0.33787719E+01</totfact>
</mgrwt>
</event>
<event>
 6    1  0.1929825E-004  0.3000000E+03  0.7818608E-02  0.1093470E+00
          3   -1    0    0  502    0  0.00000000000E+00  0.00000000000E+00  0.31308283912E+02  0.31308283912E+02  0.00000000000E+00 0.  1.
         13   -1    0    0    0    0 -0.00000000000E+00 -0.00000000000E+00 -0.10000000000E+04  0.10000000000E+04  0.00000000000E+00 0.  1.
    9000005    2    1    2  501    0  0.11082686463E+02  0.17543145883E+02 -0.92626734491E+03  0.98408101238E+03  0.33168306675E+03 0.  0.
         13    1    3    3    0    0  0.15857017268E+02 -0.13603150498E+03 -0.20437690311E+03  0.24602018996E+03  0.00000000000E+00 0.  1.
          3    1    3    3  501    0 -0.47743308051E+01  0.15357465086E+03 -0.72189044180E+03  0.73806082242E+03  0.00000000000E+00 0.  1.
         21    1    1    2  502  501 -0.11082686463E+02 -0.17543145883E+02 -0.42424371180E+02  0.47227271536E+02  0.00000000000E+00 0. -1.
<mgrwt>
<rscale>  1 0.30000000E+03</rscale>
<asrwt>0</asrwt>
<pdfrwt beam="1">  1        3 0.11384855E+00 0.30000000E+03</pdfrwt>
<pdfrwt beam="2">0</pdfrwt>
<totfact> 0.27235383E+00</totfact>
</mgrwt>
</event>
<event>
 6    1  0.1929825E-004  0.3000000E+03  0.7818608E-02  0.1093470E+00
          1   -1    0    0  502    0  0.00000000000E+00  0.00000000000E+00  0.28472629919E+02  0.28472629919E+02  0.00000000000E+00 0.  1.
         13   -1    0    0    0    0 -0.00000000000E+00 -0.00000000000E+00 -0.10000000000E+04  0.10000000000E+04  0.00000000000E+00 0.  1.
    9000005    2    1    2  501    0 -0.28724160087E+01 -0.11280942116E+02 -0.96738290029E+03  0.10161159694E+04  0.31068710485E+03 0.  0.
         13    1    3    3    0    0  0.12942953532E+03  0.50118392988E+02 -0.26934456322E+03  0.30300223046E+03  0.00000000000E+00 0.  1.
          1    1    3    3  501    0 -0.13230195133E+03 -0.61399335104E+02 -0.69803833707E+03  0.71311373896E+03  0.00000000000E+00 0.  1.
         21    1    1    2  502  501  0.28724160087E+01  0.11280942116E+02 -0.41444697956E+01  0.12356660497E+02  0.00000000000E+00 0. -1.
<mgrwt>
<rscale>  1 0.30000000E+03</rscale>
<asrwt>0</asrwt>
<pdfrwt beam="1">  1        1 0.10353705E+00 0.30000000E+03</pdfrwt>
<pdfrwt beam="2">0</pdfrwt>
<totfact> 0.32521880E+01</totfact>
</mgrwt>
</event>
<event>
 6    1  0.1929825E-004  0.3000000E+03  0.7818608E-02  0.1093470E+00
          1   -1    0    0  502    0  0.00000000000E+00  0.00000000000E+00  0.62196531093E+02  0.62196531093E+02  0.00000000000E+00 0.  1.
         13   -1    0    0    0    0 -0.00000000000E+00 -0.00000000000E+00 -0.10000000000E+04  0.10000000000E+04  0.00000000000E+00 0.  1.
    9000005    2    1    2  501    0  0.85084682949E+01 -0.19488720753E+02 -0.97057290621E+03  0.10231319654E+04  0.32300936234E+03 0.  0.
         13    1    3    3    0    0  0.56405047627E+02 -0.13666172426E+03 -0.24157152497E+03  0.28322210004E+03  0.00000000000E+00 0.  1.
          1    1    3    3  501    0 -0.47896579333E+02  0.11717300350E+03 -0.72900138123E+03  0.73990986539E+03  0.00000000000E+00 0.  1.
         21    1    1    2  502  501 -0.85084682949E+01  0.19488720753E+02  0.32769437299E+02  0.39064565660E+02  0.00000000000E+00 0.  1.
<mgrwt>
<rscale>  1 0.30000000E+03</rscale>
<asrwt>0</asrwt>
<pdfrwt beam="1">  1        1 0.22616968E+00 0.30000000E+03</pdfrwt>
<pdfrwt beam="2">0</pdfrwt>
<totfact> 0.77124590E+00</totfact>
</mgrwt>
</event>
<event>
 6    1  0.1929825E-004  0.3000000E+03  0.7818608E-02  0.1093470E+00
          1   -1    0    0  502    0  0.00000000000E+00  0.00000000000E+00  0.32196800917E+02  0.32196800917E+02  0.00000000000E+00 0.  1.
         13   -1    0    0    0    0 -0.00000000000E+00 -0.00000000000E+00 -0.10000000000E+04  0.10000000000E+04  0.00000000000E+00 0.  1.
    9000005    2    1    2  501    0  0.31267225528E+01  0.19218534236E+02 -0.95060944934E+03  0.10062207835E+04  0.32930656153E+03 0.  0.
         13    1    3    3    0    0  0.14999836406E+03  0.60647833894E+02 -0.64019577960E+03  0.66032439391E+03  0.00000000000E+00 0.  1.
          3    1    3    3  501    0 -0.14687164151E+03 -0.41429299658E+02 -0.31041366974E+03  0.34589638956E+03  0.00000000000E+00 0.  1.
         21    1    1    2  502  501 -0.31267225528E+01 -0.19218534236E+02 -0.17193749746E+02  0.25976017448E+02  0.00000000000E+00 0. -1.
<mgrwt>
<rscale>  1 0.30000000E+03</rscale>
<asrwt>0</asrwt>
<pdfrwt beam="1">  1        1 0.11707952E+00 0.30000000E+03</pdfrwt>
<pdfrwt beam="2">0</pdfrwt>
<totfact> 0.27010424E+01</totfact>
</mgrwt>
</event>
<event>
 6    1  0.1929825E-004  0.3000000E+03  0.7818608E-02  0.1093470E+00
          1   -1    0    0  502    0  0.00000000000E+00  0.00000000000E+00  0.33660126845E+02  0.33660126845E+02  0.00000000000E+00 0.  1.
         13   -1    0    0    0    0 -0.00000000000E+00 -0.00000000000E+00 -0.10000000000E+04  0.10000000000E+04  0.00000000000E+00 0.  1.
    9000005    2    1    2  501    0 -0.16619040648E+02 -0.18403182202E-01 -0.92915120108E+03  0.99292696859E+03  0.34972248660E+03 0.  0.
         13    1    3    3    0    0 -0.68583398647E+02  0.16360048900E+03 -0.51056435988E+03  0.54050417958E+03  0.00000000000E+00 0.  1.
          3    1    3    3  501    0  0.51964357999E+02 -0.16361889219E+03 -0.41858684120E+03  0.45242278900E+03  0.00000000000E+00 0.  1.
         21    1    1    2  502  501  0.16619040648E+02  0.18403182202E-01 -0.37188672079E+02  0.40733158259E+02  0.00000000000E+00 0. -1.
<mgrwt>
<rscale>  1 0.30000000E+03</rscale>
<asrwt>0</asrwt>
<pdfrwt beam="1">  1        1 0.12240072E+00 0.30000000E+03</pdfrwt>
<pdfrwt beam="2">0</pdfrwt>
<totfact> 0.25200106E+01</totfact>
</mgrwt>
</event>
<event>
 6    1  0.1929825E-004  0.3000000E+03  0.7818608E-02  0.1093470E+00
          1   -1    0    0  502    0  0.00000000000E+00  0.00000000000E+00  0.35419493427E+02  0.35419493427E+02  0.00000000000E+00 0.  1.
         13   -1    0    0    0    0 -0.00000000000E+00 -0.00000000000E+00 -0.10000000000E+04  0.10000000000E+04  0.00000000000E+00 0.  1.
    9000005    2    1    2  501    0  0.11982321845E+02 -0.31360099073E+01 -0.97029817127E+03  0.10217775623E+04  0.31999599229E+03 0.  0.
         13    1    3    3    0    0 -0.83365410860E+01  0.15478778141E+03 -0.57729251306E+03  0.59774191825E+03  0.00000000000E+00 0.  1.
          3    1    3    3  501    0  0.20318862931E+02 -0.15792379132E+03 -0.39300565821E+03  0.42403564407E+03  0.00000000000E+00 0.  1.
         21    1    1    2  502  501 -0.11982321845E+02  0.31360099073E+01  0.57176646978E+01  0.13641931114E+02  0.00000000000E+00 0.  1.
<mgrwt>
<rscale>  1 0.30000000E+03</rscale>
<asrwt>0</asrwt>
<pdfrwt beam="1">  1        1 0.12879843E+00 0.30000000E+03</pdfrwt>
<pdfrwt beam="2">0</pdfrwt>
<totfact> 0.23227844E+01</totfact>
</mgrwt>
</event>
<event>
 6    1  0.1929825E-004  0.3000000E+03  0.7818608E-02  0.1093470E+00
          1   -1    0    0  502    0  0.00000000000E+00  0.00000000000E+00  0.29096177524E+02  0.29096177524E+02  0.00000000000E+00 0.  1.
         13   -1    0    0    0    0 -0.00000000000E+00 -0.00000000000E+00 -0.10000000000E+04  0.10000000000E+04  0.00000000000E+00 0.  1.
    9000005    2    1    2  501    0 -0.18879068232E+01  0.11003258334E+02 -0.96704731778E+03  0.10172848053E+04  0.31553640727E+03 0.  0.
         13    1    3    3    0    0 -0.11510022675E+03 -0.95865941429E+02 -0.60334609337E+03  0.62166297084E+03  0.00000000000E+00 0.  1.
          1    1    3    3  501    0  0.11321231993E+03  0.10686919976E+03 -0.36370122441E+03  0.39562183443E+03  0.00000000000E+00 0.  1.
         21    1    1    2  502  501  0.18879068232E+01 -0.11003258334E+02 -0.38565046957E+01  0.11811372258E+02  0.00000000000E+00 0. -1.
<mgrwt>
<rscale>  1 0.30000000E+03</rscale>
<asrwt>0</asrwt>
<pdfrwt beam="1">  1        1 0.10580451E+00 0.30000000E+03</pdfrwt>
<pdfrwt beam="2">0</pdfrwt>
<totfact> 0.31493214E+01</totfact>
</mgrwt>
</event>
<event>
 6    1  0.1929825E-004  0.3000000E+03  0.7818608E-02  0.1093470E+00
          1   -1    0    0  502    0  0.00000000000E+00  0.00000000000E+00  0.10732830199E+02  0.10732830199E+02  0.00000000000E+00 0.  1.
         13   -1    0    0    0    0 -0.00000000000E+00 -0.00000000000E+00 -0.10000000000E+04  0.10000000000E+04  0.00000000000E+00 0.  1.
    9000005    2    1    2  501    0  0.18678195385E+02  0.57413877241E+01 -0.95870654196E+03  0.97445900369E+03  0.17340783647E+03 0.  0.
         13    1    3    3    0    0  0.16789392139E+02 -0.38182324894E+02 -0.51883239456E+02  0.66570595305E+02  0.00000000000E+00 0.  1.
          1    1    3    3  501    0  0.18888032464E+01  0.43923712618E+02 -0.90682330251E+03  0.90788840838E+03  0.00000000000E+00 0.  1.
         21    1    1    2  502  501 -0.18678195385E+02 -0.57413877241E+01 -0.30560627838E+02  0.36273826510E+02  0.00000000000E+00 0.  1.
<mgrwt>
<rscale>  1 0.30000000E+03</rscale>
<asrwt>0</asrwt>
<pdfrwt beam="1">  1        1 0.39028556E-01 0.30000000E+03</pdfrwt>
<pdfrwt beam="2">0</pdfrwt>
<totfact> 0.12206350E+02</totfact>
</mgrwt>
</event>
<event>
 6    1  0.1929825E-004  0.3000000E+03  0.7818608E-02  0.1093470E+00
          1   -1    0    0  502    0  0.00000000000E+00  0.00000000000E+00  0.28901969148E+02  0.28901969148E+02  0.00000000000E+00 0.  1.
         13   -1    0    0    0    0 -0.00000000000E+00 -0.00000000000E+00 -0.10000000000E+04  0.10000000000E+04  0.00000000000E+00 0.  1.
    9000005    2    1    2  501    0  0.11825321673E+02 -0.56217497967E+01 -0.95741479090E+03  0.10099632955E+04  0.32126520843E+03 0.  0.
         13    1    3    3    0    0 -0.20748434094E+02  0.11639895313E+03 -0.14178505819E+03  0.18461369541E+03  0.00000000000E+00 0.  1.
          1    1    3    3  501    0  0.32573755767E+02 -0.12202070293E+03 -0.81562973271E+03  0.82534960010E+03  0.00000000000E+00 0.  1.
         21    1    1    2  502  501 -0.11825321673E+02  0.56217497967E+01 -0.13683239949E+02  0.18938673633E+02  0.00000000000E+00 0. -1.
<mgrwt>
<rscale>  1 0.30000000E+03</rscale>
<asrwt>0</asrwt>
<pdfrwt beam="1">  1        1 0.10509829E+00 0.30000000E+03</pdfrwt>
<pdfrwt beam="2">0</pdfrwt>
<totfact> 0.31808486E+01</totfact>
</mgrwt>
</event>
<event>
 6    1  0.1929825E-004  0.3000000E+03  0.7818608E-02  0.1093470E+00
          1   -1    0    0  502    0  0.00000000000E+00  0.00000000000E+00  0.20246936225E+02  0.20246936225E+02  0.00000000000E+00 0.  1.
         13   -1    0    0    0    0 -0.00000000000E+00 -0.00000000000E+00 -0.10000000000E+04  0.10000000000E+04  0.00000000000E+00 0.  1.
    9000005    2    1    2  501    0  0.93907552539E+01 -0.15272389694E+01 -0.96917217452E+03  0.10060176017E+04  0.26960376918E+03 0.  0.
         13    1    3    3    0    0 -0.12969112584E+03  0.56286348100E+01 -0.43165300950E+03  0.45075025265E+03  0.00000000000E+00 0.  1.
          1    1    3    3  501    0  0.13908188109E+03 -0.71558737794E+01 -0.53751916503E+03  0.55526734907E+03  0.00000000000E+00 0.  1.
         21    1    1    2  502  501 -0.93907552539E+01  0.15272389694E+01 -0.10580889251E+02  0.14229334505E+02  0.00000000000E+00 0. -1.
<mgrwt>
<rscale>  1 0.30000000E+03</rscale>
<asrwt>0</asrwt>
<pdfrwt beam="1">  1        1 0.73625378E-01 0.30000000E+03</pdfrwt>
<pdfrwt beam="2">0</pdfrwt>
<totfact> 0.52639564E+01</totfact>
</mgrwt>
</event>
<event>
 6    1  0.1929825E-004  0.3000000E+03  0.7818608E-02  0.1093470E+00
          1   -1    0    0  502    0  0.00000000000E+00  0.00000000000E+00  0.41601520238E+02  0.41601520238E+02  0.00000000000E+00 0.  1.
         13   -1    0    0    0    0 -0.00000000000E+00 -0.00000000000E+00 -0.10000000000E+04  0.10000000000E+04  0.00000000000E+00 0.  1.
    9000005    2    1    2  501    0 -0.26832660870E+02 -0.64204746868E+01 -0.95969764612E+03  0.10139808393E+04  0.32615388429E+03 0.  0.
         13    1    3    3    0    0  0.45229302559E+02  0.14555237210E+03 -0.35519648442E+03  0.38651743218E+03  0.00000000000E+00 0.  1.
          3    1    3    3  501    0 -0.72061963429E+02 -0.15197284678E+03 -0.60450116170E+03  0.62746340708E+03  0.00000000000E+00 0.  1.
         21    1    1    2  502  501  0.26832660870E+02  0.64204746868E+01  0.12991663559E+01  0.27620680980E+02  0.00000000000E+00 0.  1.
<mgrwt>
<rscale>  1 0.30000000E+03</rscale>
<asrwt>0</asrwt>
<pdfrwt beam="1">  1        1 0.15127857E+00 0.30000000E+03</pdfrwt>
<pdfrwt beam="2">0</pdfrwt>
<totfact> 0.17698489E+01</totfact>
</mgrwt>
</event>
<event>
 6    1  0.1929825E-004  0.3000000E+03  0.7818608E-02  0.1093470E+00
          1   -1    0    0  502    0  0.00000000000E+00  0.00000000000E+00  0.39121997428E+02  0.39121997428E+02  0.00000000000E+00 0.  1.
         13   -1    0    0    0    0 -0.00000000000E+00 -0.00000000000E+00 -0.10000000000E+04  0.10000000000E+04  0.00000000000E+00 0.  1.
    9000005    2    1    2  501    0  0.13687152863E+02 -0.10395396634E+02 -0.96350233919E+03  0.10217355209E+04  0.33957519719E+03 0.  0.
         13    1    3    3    0    0  0.45932187176E+01 -0.83522337062E+02 -0.94096530164E+03  0.94467601712E+03  0.00000000000E+00 0.  1.
          3    1    3    3  501    0  0.90939341457E+01  0.73126940429E+02 -0.22537037553E+02  0.77059503738E+02  0.00000000000E+00 0.  1.
         21    1    1    2  502  501 -0.13687152863E+02  0.10395396634E+02  0.26243366164E+01  0.17386476565E+02  0.00000000000E+00 0. -1.
<mgrwt>
<rscale>  1 0.30000000E+03</rscale>
<asrwt>0</asrwt>
<pdfrwt beam="1">  1        1 0.14226211E+00 0.30000000E+03</pdfrwt>
<pdfrwt beam="2">0</pdfrwt>
<totfact> 0.19689100E+01</totfact>
</mgrwt>
</event>
<event>
 6    1  0.1929825E-004  0.3000000E+03  0.7818608E-02  0.1093470E+00
          1   -1    0    0  502    0  0.00000000000E+00  0.00000000000E+00  0.30927983461E+02  0.30927983461E+02  0.00000000000E+00 0.  1.
         13   -1    0    0    0    0 -0.00000000000E+00 -0.00000000000E+00 -0.10000000000E+04  0.10000000000E+04  0.00000000000E+00 0.  1.
    9000005    2    1    2  501    0  0.12624766810E+02  0.98666125694E+01 -0.95221451695E+03  0.10076705100E+04  0.32928807388E+03 0.  0.
         13    1    3    3    0    0 -0.11614913815E+03  0.56003268959E+02 -0.76508962929E+03  0.77587958426E+03  0.00000000000E+00 0.  1.
          3    1    3    3  501    0  0.12877390496E+03 -0.46136656389E+02 -0.18712488766E+03  0.23179092571E+03  0.00000000000E+00 0.  1.
         21    1    1    2  502  501 -0.12624766810E+02 -0.98666125694E+01 -0.16857499593E+02  0.23257473490E+02  0.00000000000E+00 0. -1.
<mgrwt>
<rscale>  1 0.30000000E+03</rscale>
<asrwt>0</asrwt>
<pdfrwt beam="1">  1        1 0.11246563E+00 0.30000000E+03</pdfrwt>
<pdfrwt beam="2">0</pdfrwt>
<totfact> 0.28727893E+01</totfact>
</mgrwt>
</event>
<event>
 6    1  0.1929825E-004  0.3000000E+03  0.7818608E-02  0.1093470E+00
          1   -1    0    0  502    0  0.00000000000E+00  0.00000000000E+00  0.32218819451E+02  0.32218819451E+02  0.00000000000E+00 0.  1.
         13   -1    0    0    0    0 -0.00000000000E+00 -0.00000000000E+00 -0.10000000000E+04  0.10000000000E+04  0.00000000000E+00 0.  1.
    9000005    2    1    2  501    0  0.12049526609E+02 -0.21072385489E+01 -0.97350120178E+03  0.10187151093E+04  0.29987706219E+03 0.  0.
         13    1    3    3    0    0 -0.20153477540E+02 -0.30329455109E+02 -0.97518274590E+03  0.97586240137E+03  0.00000000000E+00 0.  1.
          3    1    3    3  501    0  0.32203004149E+02  0.28222216560E+02  0.16815441124E+01  0.42852707901E+02  0.00000000000E+00 0.  1.
         21    1    1    2  502  501 -0.12049526609E+02  0.21072385489E+01  0.57200212359E+01  0.13503710185E+02  0.00000000000E+00 0.  1.
<mgrwt>
<rscale>  1 0.30000000E+03</rscale>
<asrwt>0</asrwt>
<pdfrwt beam="1">  1        1 0.11715959E+00 0.30000000E+03</pdfrwt>
<pdfrwt beam="2">0</pdfrwt>
<totfact> 0.26981899E+01</totfact>
</mgrwt>
</event>
<event>
 6    1  0.1929825E-004  0.3000000E+03  0.7818608E-02  0.1093470E+00
          1   -1    0    0  502    0  0.00000000000E+00  0.00000000000E+00  0.33980562966E+02  0.33980562966E+02  0.00000000000E+00 0.  1.
         13   -1    0    0    0    0 -0.00000000000E+00 -0.00000000000E+00 -0.10000000000E+04  0.10000000000E+04  0.00000000000E+00 0.  1.
    9000005    2    1    2  501    0 -0.10269351503E+02 -0.13837252737E+00 -0.97226464581E+03  0.10219605230E+04  0.31464152686E+03 0.  0.
         13    1    3    3    0    0 -0.12645586177E+03 -0.39963731996E+02 -0.79691264947E+03  0.80787248730E+03  0.00000000000E+00 0.  1.
          1    1    3    3  501    0  0.11618651027E+03  0.39825359468E+02 -0.17535199634E+03  0.21408803574E+03  0.00000000000E+00 0.  1.
         21    1    1    2  502  501  0.10269351503E+02  0.13837252737E+00  0.62452087775E+01  0.12020039930E+02  0.00000000000E+00 0. -1.
<mgrwt>
<rscale>  1 0.30000000E+03</rscale>
<asrwt>0</asrwt>
<pdfrwt beam="1">  1        1 0.12356594E+00 0.30000000E+03</pdfrwt>
<pdfrwt beam="2">0</pdfrwt>
<totfact> 0.24825342E+01</totfact>
</mgrwt>
</event>
<event>
 6    1  0.1929825E-004  0.3000000E+03  0.7818608E-02  0.1093470E+00
          1   -1    0    0  502    0  0.00000000000E+00  0.00000000000E+00  0.31604845441E+02  0.31604845441E+02  0.00000000000E+00 0.  1.
         13   -1    0    0    0    0 -0.00000000000E+00 -0.00000000000E+00 -0.10000000000E+04  0.10000000000E+04  0.00000000000E+00 0.  1.
    9000005    2    1    2  501    0 -0.97321013969E+01  0.63888845399E+01 -0.96490184844E+03  0.10194502237E+04  0.32879727755E+03 0.  0.
         13    1    3    3    0    0 -0.12890898699E+03  0.73578950720E+02 -0.75107246261E+03  0.76559861089E+03  0.00000000000E+00 0.  1.
          1    1    3    3  501    0  0.11917688559E+03 -0.67190066180E+02 -0.21382938584E+03  0.25385161276E+03  0.00000000000E+00 0.  1.
         21    1    1    2  502  501  0.97321013969E+01 -0.63888845399E+01 -0.34933061136E+01  0.12154621790E+02  0.00000000000E+00 0. -1.
<mgrwt>
<rscale>  1 0.30000000E+03</rscale>
<asrwt>0</asrwt>
<pdfrwt beam="1">  1        1 0.11492695E+00 0.30000000E+03</pdfrwt>
<pdfrwt beam="2">0</pdfrwt>
<totfact> 0.27793208E+01</totfact>
</mgrwt>
</event>
<event>
 6    1  0.1929825E-004  0.3000000E+03  0.7818608E-02  0.1093470E+00
          1   -1    0    0  502    0  0.00000000000E+00  0.00000000000E+00  0.29722216070E+02  0.29722216070E+02  0.00000000000E+00 0.  1.
         13   -1    0    0    0    0 -0.00000000000E+00 -0.00000000000E+00 -0.10000000000E+04  0.10000000000E+04  0.00000000000E+00 0.  1.
    9000005    2    1    2  501    0  0.12648648920E+02 -0.26428398343E+01 -0.95334400730E+03  0.10084213778E+04  0.32845381097E+03 0.  0.
         13    1    3    3    0    0  0.13094003392E+03 -0.71579592900E+02 -0.24423647447E+03  0.28621737554E+03  0.00000000000E+00 0.  1.
          3    1    3    3  501    0 -0.11829138500E+03  0.68936753065E+02 -0.70910753284E+03  0.72220400221E+03  0.00000000000E+00 0.  1.
         21    1    1    2  502  501 -0.12648648920E+02  0.26428398343E+01 -0.16933776628E+02  0.21300838312E+02  0.00000000000E+00 0. -1.
<mgrwt>
<rscale>  1 0.30000000E+03</rscale>
<asrwt>0</asrwt>
<pdfrwt beam="1">  1        1 0.10808101E+00 0.30000000E+03</pdfrwt>
<pdfrwt beam="2">0</pdfrwt>
<totfact> 0.30507001E+01</totfact>
</mgrwt>
</event>
<event>
 6    1  0.1929825E-004  0.3000000E+03  0.7818608E-02  0.1093470E+00
          1   -1    0    0  502    0  0.00000000000E+00  0.00000000000E+00  0.30198963582E+02  0.30198963582E+02  0.00000000000E+00 0.  1.
         13   -1    0    0    0    0 -0.00000000000E+00 -0.00000000000E+00 -0.10000000000E+04  0.10000000000E+04  0.00000000000E+00 0.  1.
    9000005    2    1    2  501    0  0.15112826041E+02  0.12814329099E+02 -0.88729701732E+03  0.94534899182E+03  0.32557044529E+03 0.  0.
         13    1    3    3    0    0  0.92187829912E+02 -0.48149518635E+02 -0.77736416056E+02  0.12984576431E+03  0.00000000000E+00 0.  1.
          1    1    3    3  501    0 -0.77075003872E+02  0.60963847734E+02 -0.80956060127E+03  0.81550322751E+03  0.00000000000E+00 0.  1.
         21    1    1    2  502  501 -0.15112826041E+02 -0.12814329099E+02 -0.82504019094E+02  0.84849971761E+02  0.00000000000E+00 0. -1.
<mgrwt>
<rscale>  1 0.30000000E+03</rscale>
<asrwt>0</asrwt>
<pdfrwt beam="1">  1        1 0.10981464E+00 0.30000000E+03</pdfrwt>
<pdfrwt beam="2">0</pdfrwt>
<totfact> 0.29785356E+01</totfact>
</mgrwt>
</event>
<event>
 6    1  0.1929825E-004  0.3000000E+03  0.7818608E-02  0.1093470E+00
          1   -1    0    0  502    0  0.00000000000E+00  0.00000000000E+00  0.63314160344E+02  0.63314160344E+02  0.00000000000E+00 0.  1.
         13   -1    0    0    0    0 -0.00000000000E+00 -0.00000000000E+00 -0.10000000000E+04  0.10000000000E+04  0.00000000000E+00 0.  1.
    9000005    2    1    2  501    0  0.14616443436E+02  0.21980510284E+02 -0.96968544303E+03  0.10210559413E+04  0.31869827999E+03 0.  0.
         13    1    3    3    0    0 -0.12944197768E+03 -0.71553005972E+02 -0.43429299829E+03  0.45878695122E+03  0.00000000000E+00 0.  1.
          3    1    3    3  501    0  0.14405842112E+03  0.93533516256E+02 -0.53539244474E+03  0.56226899011E+03  0.00000000000E+00 0.  1.
         21    1    1    2  502  501 -0.14616443436E+02 -0.21980510284E+02  0.32999603371E+02  0.42258219008E+02  0.00000000000E+00 0. -1.
<mgrwt>
<rscale>  1 0.30000000E+03</rscale>
<asrwt>0</asrwt>
<pdfrwt beam="1">  1        1 0.23023380E+00 0.30000000E+03</pdfrwt>
<pdfrwt beam="2">0</pdfrwt>
<totfact> 0.73817918E+00</totfact>
</mgrwt>
</event>
<event>
 6    1  0.1929825E-004  0.3000000E+03  0.7818608E-02  0.1093470E+00
          1   -1    0    0  502    0  0.00000000000E+00  0.00000000000E+00  0.34990229408E+02  0.34990229408E+02  0.00000000000E+00 0.  1.
         13   -1    0    0    0    0 -0.00000000000E+00 -0.00000000000E+00 -0.10000000000E+04  0.10000000000E+04  0.00000000000E+00 0.  1.
    9000005    2    1    2  501    0  0.29366922407E+02 -0.72765500445E+01 -0.77999164443E+03  0.84751470748E+03  0.33011944764E+03 0.  0.
         13    1    3    3    0    0 -0.10025378543E+02  0.15860527239E+03 -0.42390322508E+03  0.45271413152E+03  0.00000000000E+00 0.  1.
          3    1    3    3  501    0  0.39392300950E+02 -0.16588182243E+03 -0.35608841934E+03  0.39480057596E+03  0.00000000000E+00 0.  1.
         21    1    1    2  502  501 -0.29366922407E+02  0.72765500445E+01 -0.18501812616E+03  0.18747552193E+03  0.00000000000E+00 0.  1.
<mgrwt>
<rscale>  1 0.30000000E+03</rscale>
<asrwt>0</asrwt>
<pdfrwt beam="1">  1        1 0.12723747E+00 0.30000000E+03</pdfrwt>
<pdfrwt beam="2">0</pdfrwt>
<totfact> 0.23690298E+01</totfact>
</mgrwt>
</event>
<event>
 6    1  0.1929825E-004  0.3000000E+03  0.7818608E-02  0.1093470E+00
          1   -1    0    0  502    0  0.00000000000E+00  0.00000000000E+00  0.32041580378E+02  0.32041580378E+02  0.00000000000E+00 0.  1.
         13   -1    0    0    0    0 -0.00000000000E+00 -0.00000000000E+00 -0.10000000000E+04  0.10000000000E+04  0.00000000000E+00 0.  1.
    9000005    2    1    2  501    0  0.11974315155E+02 -0.27263921119E+00 -0.95558464595E+03  0.10148204065E+04  0.34143078841E+03 0.  0.
         13    1    3    3    0    0 -0.28710284555E+02 -0.15994908218E+03 -0.32919942699E+03  0.36712430056E+03  0.00000000000E+00 0.  1.
          1    1    3    3  501    0  0.40684599709E+02  0.15967644297E+03 -0.62638521895E+03  0.64769610592E+03  0.00000000000E+00 0.  1.
         21    1    1    2  502  501 -0.11974315155E+02  0.27263921119E+00 -0.12373773676E+02  0.17221173901E+02  0.00000000000E+00 0. -1.
<mgrwt>
<rscale>  1 0.30000000E+03</rscale>
<asrwt>0</asrwt>
<pdfrwt beam="1">  1        1 0.11651508E+00 0.30000000E+03</pdfrwt>
<pdfrwt beam="2">0</pdfrwt>
<totfact> 0.27212692E+01</totfact>
</mgrwt>
</event>
<event>
 6    1  0.1929825E-004  0.3000000E+03  0.7818608E-02  0.1093470E+00
          1   -1    0    0  502    0  0.00000000000E+00  0.00000000000E+00  0.30751428312E+02  0.30751428312E+02  0.00000000000E+00 0.  1.
         13   -1    0    0    0    0 -0.00000000000E+00 -0.00000000000E+00 -0.10000000000E+04  0.10000000000E+04  0.00000000000E+00 0.  1.
    9000005    2    1    2  501    0  0.41803901671E+01  0.22554263223E+02 -0.92926687977E+03  0.98465689349E+03  0.32478622756E+03 0.  0.
         13    1    3    3    0    0 -0.12725518292E+03  0.43008405520E+01 -0.16224993770E+03  0.20624602080E+03  0.00000000000E+00 0.  1.
          1    1    3    3  501    0  0.13143557309E+03  0.18253422671E+02 -0.76701694207E+03  0.77841087269E+03  0.00000000000E+00 0.  1.
         21    1    1    2  502  501 -0.41803901671E+01 -0.22554263223E+02 -0.39981691918E+02  0.46094534818E+02  0.00000000000E+00 0. -1.
<mgrwt>
<rscale>  1 0.30000000E+03</rscale>
<asrwt>0</asrwt>
<pdfrwt beam="1">  1        1 0.11182361E+00 0.30000000E+03</pdfrwt>
<pdfrwt beam="2">0</pdfrwt>
<totfact> 0.28979059E+01</totfact>
</mgrwt>
</event>
<event>
 6    1  0.1929825E-004  0.3000000E+03  0.7818608E-02  0.1093470E+00
          1   -1    0    0  502    0  0.00000000000E+00  0.00000000000E+00  0.37980271637E+02  0.37980271637E+02  0.00000000000E+00 0.  1.
         13   -1    0    0    0    0 -0.00000000000E+00 -0.00000000000E+00 -0.10000000000E+04  0.10000000000E+04  0.00000000000E+00 0.  1.
    9000005    2    1    2  501    0  0.76611126060E+01 -0.25649702012E+02 -0.94897285105E+03  0.10082007339E+04  0.33941515577E+03 0.  0.
         13    1    3    3    0    0  0.91241867092E+02  0.12707551694E+03 -0.32989599823E+03  0.36510907270E+03  0.00000000000E+00 0.  1.
          1    1    3    3  501    0 -0.83580754486E+02 -0.15272521896E+03 -0.61907685281E+03  0.64309166121E+03  0.00000000000E+00 0.  1.
         21    1    1    2  502  501 -0.76611126060E+01  0.25649702012E+02 -0.13046877315E+02  0.29779537729E+02  0.00000000000E+00 0. -1.
<mgrwt>
<rscale>  1 0.30000000E+03</rscale>
<asrwt>0</asrwt>
<pdfrwt beam="1">  1        1 0.13811037E+00 0.30000000E+03</pdfrwt>
<pdfrwt beam="2">0</pdfrwt>
<totfact> 0.20700637E+01</totfact>
</mgrwt>
</event>
<event>
 6    1  0.1929825E-004  0.3000000E+03  0.7818608E-02  0.1093470E+00
          3   -1    0    0  502    0  0.00000000000E+00  0.00000000000E+00  0.39010055896E+02  0.39010055896E+02  0.00000000000E+00 0.  1.
         13   -1    0    0    0    0 -0.00000000000E+00 -0.00000000000E+00 -0.10000000000E+04  0.10000000000E+04  0.00000000000E+00 0.  1.
    9000005    2    1    2  501    0 -0.46308119197E+02  0.26087388328E+01 -0.89175230757E+03  0.95567280291E+03  0.34049534615E+03 0.  0.
         13    1    3    3    0    0  0.36139844001E+02  0.15885831678E+03 -0.35511821045E+03  0.39070576721E+03  0.00000000000E+00 0.  1.
          1    1    3    3  501    0 -0.82447963198E+02 -0.15624957795E+03 -0.53663409712E+03  0.56496703571E+03  0.00000000000E+00 0.  1.
         21    1    1    2  502  501  0.46308119197E+02 -0.26087388328E+01 -0.69237636535E+02  0.83337252983E+02  0.00000000000E+00 0.  1.
<mgrwt>
<rscale>  1 0.30000000E+03</rscale>
<asrwt>0</asrwt>
<pdfrwt beam="1">  1        3 0.14185505E+00 0.30000000E+03</pdfrwt>
<pdfrwt beam="2">0</pdfrwt>
<totfact> 0.12686706E+00</totfact>
</mgrwt>
</event>
<event>
 6    1  0.1929825E-004  0.3000000E+03  0.7818608E-02  0.1093470E+00
          3   -1    0    0  502    0  0.00000000000E+00  0.00000000000E+00  0.36370041654E+02  0.36370041654E+02  0.00000000000E+00 0.  1.
         13   -1    0    0    0    0 -0.00000000000E+00 -0.00000000000E+00 -0.10000000000E+04  0.10000000000E+04  0.00000000000E+00 0.  1.
    9000005    2    1    2  501    0  0.16293285372E+02  0.16050882663E+01 -0.96640480505E+03  0.10197644031E+04  0.32513557667E+03 0.  0.
         13    1    3    3    0    0  0.86569042789E+02  0.63121277577E+02 -0.94462556844E+02  0.14283441286E+03  0.00000000000E+00 0.  1.
          1    1    3    3  501    0 -0.70275757417E+02 -0.61516189311E+02 -0.87194224820E+03  0.87692999027E+03  0.00000000000E+00 0.  1.
         21    1    1    2  502  501 -0.16293285372E+02 -0.16050882663E+01  0.27748467017E+01  0.16605638523E+02  0.00000000000E+00 0.  1.
<mgrwt>
<rscale>  1 0.30000000E+03</rscale>
<asrwt>0</asrwt>
<pdfrwt beam="1">  1        3 0.13225498E+00 0.30000000E+03</pdfrwt>
<pdfrwt beam="2">0</pdfrwt>
<totfact> 0.16644608E+00</totfact>
</mgrwt>
</event>
<event>
 6    1  0.1929825E-004  0.3000000E+03  0.7818608E-02  0.1093470E+00
          1   -1    0    0  502    0  0.00000000000E+00  0.00000000000E+00  0.45402645640E+02  0.45402645640E+02  0.00000000000E+00 0.  1.
         13   -1    0    0    0    0 -0.00000000000E+00 -0.00000000000E+00 -0.10000000000E+04  0.10000000000E+04  0.00000000000E+00 0.  1.
    9000005    2    1    2  501    0  0.78615099241E+01 -0.78930461617E+01 -0.97167159142E+03  0.10250155643E+04  0.32617038782E+03 0.  0.
         13    1    3    3    0    0  0.20560898379E+02 -0.24528117779E+02  0.16919560902E+02  0.36202909345E+02  0.00000000000E+00 0.  1.
          1    1    3    3  501    0 -0.12699388455E+02  0.16635071617E+02 -0.98859115232E+03  0.98881265492E+03  0.00000000000E+00 0.  1.
         21    1    1    2  502  501 -0.78615099241E+01  0.78930461617E+01  0.17074237059E+02  0.20387081379E+02  0.00000000000E+00 0.  1.
<mgrwt>
<rscale>  1 0.30000000E+03</rscale>
<asrwt>0</asrwt>
<pdfrwt beam="1">  1        1 0.16510088E+00 0.30000000E+03</pdfrwt>
<pdfrwt beam="2">0</pdfrwt>
<totfact> 0.15100028E+01</totfact>
</mgrwt>
</event>
<event>
 6    1  0.1929825E-004  0.3000000E+03  0.7818608E-02  0.1093470E+00
          1   -1    0    0  502    0  0.00000000000E+00  0.00000000000E+00  0.46679708824E+02  0.46679708824E+02  0.00000000000E+00 0.  1.
         13   -1    0    0    0    0 -0.00000000000E+00 -0.00000000000E+00 -0.10000000000E+04  0.10000000000E+04  0.00000000000E+00 0.  1.
    9000005    2    1    2  501    0  0.59761451141E+02 -0.49061645829E+02 -0.62668375338E+03  0.71101632989E+03  0.32685351228E+03 0.  0.
         13    1    3    3    0    0 -0.12806333056E+03 -0.75897854353E+01 -0.36021176672E+03  0.38237460476E+03  0.00000000000E+00 0.  1.
          3    1    3    3  501    0  0.18782478170E+03 -0.41471860394E+02 -0.26647198666E+03  0.32864172514E+03  0.00000000000E+00 0.  1.
         21    1    1    2  502  501 -0.59761451141E+02  0.49061645829E+02 -0.32663653779E+03  0.33566337893E+03  0.00000000000E+00 0. -1.
<mgrwt>
<rscale>  1 0.30000000E+03</rscale>
<asrwt>0</asrwt>
<pdfrwt beam="1">  1        1 0.16974475E+00 0.30000000E+03</pdfrwt>
<pdfrwt beam="2">0</pdfrwt>
<totfact> 0.14328299E+01</totfact>
</mgrwt>
</event>
<event>
 6    1  0.1929825E-004  0.3000000E+03  0.7818608E-02  0.1093470E+00
          1   -1    0    0  502    0  0.00000000000E+00  0.00000000000E+00  0.29152392155E+02  0.29152392155E+02  0.00000000000E+00 0.  1.
         13   -1    0    0    0    0 -0.00000000000E+00 -0.00000000000E+00 -0.10000000000E+04  0.10000000000E+04  0.00000000000E+00 0.  1.
    9000005    2    1    2  501    0 -0.43433747449E+01 -0.15381293383E+02 -0.95357005670E+03  0.10056159765E+04  0.31892348609E+03 0.  0.
         13    1    3    3    0    0  0.10098026622E+03  0.11412879142E+03 -0.45753685634E+03  0.48224720850E+03  0.00000000000E+00 0.  1.
          1    1    3    3  501    0 -0.10532364097E+03 -0.12951008480E+03 -0.49603320036E+03  0.52336876796E+03  0.00000000000E+00 0.  1.
         21    1    1    2  502  501  0.43433747449E+01  0.15381293383E+02 -0.17277551142E+02  0.23536415695E+02  0.00000000000E+00 0.  1.
<mgrwt>
<rscale>  1 0.30000000E+03</rscale>
<asrwt>0</asrwt>
<pdfrwt beam="1">  1        1 0.10600892E+00 0.30000000E+03</pdfrwt>
<pdfrwt beam="2">0</pdfrwt>
<totfact> 0.31402799E+01</totfact>
</mgrwt>
</event>
<event>
 6    1  0.1929825E-004  0.3000000E+03  0.7818608E-02  0.1093470E+00
          1   -1    0    0  502    0  0.00000000000E+00  0.00000000000E+00  0.27231999121E+02  0.27231999121E+02  0.00000000000E+00 0.  1.
         13   -1    0    0    0    0 -0.00000000000E+00 -0.00000000000E+00 -0.10000000000E+04  0.10000000000E+04  0.00000000000E+00 0.  1.
    9000005    2    1    2  501    0  0.55928433274E+01 -0.89398437720E+01 -0.95968617513E+03  0.10104291759E+04  0.31600374060E+03 0.  0.
         13    1    3    3    0    0 -0.15217413839E+02 -0.15050350469E+03 -0.67578959024E+03  0.69251313697E+03  0.00000000000E+00 0.  1.
          3    1    3    3  501    0  0.20810257166E+02  0.14156366091E+03 -0.28389658489E+03  0.31791603893E+03  0.00000000000E+00 0.  1.
         21    1    1    2  502  501 -0.55928433274E+01  0.89398437720E+01 -0.13081825747E+02  0.16802823216E+02  0.00000000000E+00 0.  1.
<mgrwt>
<rscale>  1 0.30000000E+03</rscale>
<asrwt>0</asrwt>
<pdfrwt beam="1">  1        1 0.99025660E-01 0.30000000E+03</pdfrwt>
<pdfrwt beam="2">0</pdfrwt>
<totfact> 0.34719710E+01</totfact>
</mgrwt>
</event>
<event>
 6    1  0.1929825E-004  0.3000000E+03  0.7818608E-02  0.1093470E+00
          1   -1    0    0  502    0  0.00000000000E+00  0.00000000000E+00  0.23957352878E+02  0.23957352878E+02  0.00000000000E+00 0.  1.
         13   -1    0    0    0    0 -0.00000000000E+00 -0.00000000000E+00 -0.10000000000E+04  0.10000000000E+04  0.00000000000E+00 0.  1.
    9000005    2    1    2  501    0 -0.15810661781E+02  0.83944058485E+01 -0.96709719361E+03  0.10039457509E+04  0.26890452910E+03 0.  0.
         13    1    3    3    0    0 -0.74170708790E+02 -0.72087372787E+02 -0.15851244035E+03  0.18927249431E+03  0.00000000000E+00 0.  1.
          1    1    3    3  501    0  0.58360047009E+02  0.80481778635E+02 -0.80858475326E+03  0.81467325658E+03  0.00000000000E+00 0.  1.
         21    1    1    2  502  501  0.15810661781E+02 -0.83944058485E+01 -0.89454535110E+01  0.20011601985E+02  0.00000000000E+00 0.  1.
<mgrwt>
<rscale>  1 0.30000000E+03</rscale>
<asrwt>0</asrwt>
<pdfrwt beam="1">  1        1 0.87117831E-01 0.30000000E+03</pdfrwt>
<pdfrwt beam="2">0</pdfrwt>
<totfact> 0.41704717E+01</totfact>
</mgrwt>
</event>
<event>
 6    1  0.1929825E-004  0.3000000E+03  0.7818608E-02  0.1093470E+00
          1   -1    0    0  502    0  0.00000000000E+00  0.00000000000E+00  0.62413206165E+02  0.62413206165E+02  0.00000000000E+00 0.  1.
         13   -1    0    0    0    0 -0.00000000000E+00 -0.00000000000E+00 -0.10000000000E+04  0.10000000000E+04  0.00000000000E+00 0.  1.
    9000005    2    1    2  501    0 -0.84145945483E+01  0.13621693527E+03 -0.78863554534E+03  0.86039258027E+03  0.31575862612E+03 0.  0.
         13    1    3    3    0    0  0.63991520108E+02  0.18426053685E+03 -0.72988700746E+03  0.75550109447E+03  0.00000000000E+00 0.  1.
          3    1    3    3  501    0 -0.72406114656E+02 -0.48043601577E+02 -0.58748537877E+02  0.10489148581E+03  0.00000000000E+00 0.  1.
         21    1    1    2  502  501  0.84145945483E+01 -0.13621693527E+03 -0.14895124850E+03  0.20202062589E+03  0.00000000000E+00 0.  1.
<mgrwt>
<rscale>  1 0.30000000E+03</rscale>
<asrwt>0</asrwt>
<pdfrwt beam="1">  1        1 0.22695759E+00 0.30000000E+03</pdfrwt>
<pdfrwt beam="2">0</pdfrwt>
<totfact> 0.76472016E+00</totfact>
</mgrwt>
</event>
<event>
 6    1  0.1929825E-004  0.3000000E+03  0.7818608E-02  0.1093470E+00
          1   -1    0    0  502    0  0.00000000000E+00  0.00000000000E+00  0.79574032180E+02  0.79574032180E+02  0.00000000000E+00 0.  1.
         13   -1    0    0    0    0 -0.00000000000E+00 -0.00000000000E+00 -0.10000000000E+04  0.10000000000E+04  0.00000000000E+00 0.  1.
    9000005    2    1    2  501    0 -0.49721224399E+01  0.14643340153E+02 -0.97145802509E+03  0.10262503012E+04  0.33048424605E+03 0.  0.
         13    1    3    3    0    0 -0.84425630650E+02  0.12854513523E+03 -0.74415182574E+03  0.75987727868E+03  0.00000000000E+00 0.  1.
          1    1    3    3  501    0  0.79453508210E+02 -0.11390179508E+03 -0.22730619935E+03  0.26637302256E+03  0.00000000000E+00 0.  1.
         21    1    1    2  502  501  0.49721224399E+01 -0.14643340153E+02  0.51032057266E+02  0.53323730938E+02  0.00000000000E+00 0.  1.
<mgrwt>
<rscale>  1 0.30000000E+03</rscale>
<asrwt>0</asrwt>
<pdfrwt beam="1">  1        1 0.28936073E+00 0.30000000E+03</pdfrwt>
<pdfrwt beam="2">0</pdfrwt>
<totfact> 0.39016485E+00</totfact>
</mgrwt>
</event>
<event>
 6    1  0.1929825E-004  0.3000000E+03  0.7818608E-02  0.1093470E+00
          1   -1    0    0  502    0  0.00000000000E+00  0.00000000000E+00  0.74319745889E+02  0.74319745889E+02  0.00000000000E+00 0.  1.
         13   -1    0    0    0    0 -0.00000000000E+00 -0.00000000000E+00 -0.10000000000E+04  0.10000000000E+04  0.00000000000E+00 0.  1.
    9000005    2    1    2  501    0  0.93067515796E+01  0.24077485317E+02 -0.97238732781E+03  0.10209541047E+04  0.31007068184E+03 0.  0.
         13    1    3    3    0    0  0.89691276160E+02  0.13534143083E+03 -0.66111193471E+03  0.68075753256E+03  0.00000000000E+00 0.  1.
          3    1    3    3  501    0 -0.80384524581E+02 -0.11126394551E+03 -0.31127539309E+03  0.34019657216E+03  0.00000000000E+00 0.  1.
         21    1    1    2  502  501 -0.93067515796E+01 -0.24077485317E+02  0.46707073696E+02  0.53365641170E+02  0.00000000000E+00 0.  1.
<mgrwt>
<rscale>  1 0.30000000E+03</rscale>
<asrwt>0</asrwt>
<pdfrwt beam="1">  1        1 0.27025419E+00 0.30000000E+03</pdfrwt>
<pdfrwt beam="2">0</pdfrwt>
<totfact> 0.47949643E+00</totfact>
</mgrwt>
</event>
<event>
 6    1  0.1929825E-004  0.3000000E+03  0.7818608E-02  0.1093470E+00
          1   -1    0    0  502    0  0.00000000000E+00  0.00000000000E+00  0.26124959202E+02  0.26124959202E+02  0.00000000000E+00 0.  1.
         13   -1    0    0    0    0 -0.00000000000E+00 -0.00000000000E+00 -0.10000000000E+04  0.10000000000E+04  0.00000000000E+00 0.  1.
    9000005    2    1    2  501    0  0.87677963330E+01  0.40207613802E+01 -0.95845366437E+03  0.10079354121E+04  0.31178089638E+03 0.  0.
         13    1    3    3    0    0 -0.41764847102E+02 -0.49250945765E+02 -0.92499316214E+03  0.92724447053E+03  0.00000000000E+00 0.  1.
          3    1    3    3  501    0  0.50532643435E+02  0.53271707146E+02 -0.33460502227E+02  0.80690941524E+02  0.00000000000E+00 0.  1.
         21    1    1    2  502  501 -0.87677963330E+01 -0.40207613802E+01 -0.15421376427E+02  0.18189547150E+02  0.00000000000E+00 0.  1.
<mgrwt>
<rscale>  1 0.30000000E+03</rscale>
<asrwt>0</asrwt>
<pdfrwt beam="1">  1        1 0.95000052E-01 0.30000000E+03</pdfrwt>
<pdfrwt beam="2">0</pdfrwt>
<totfact> 0.36871063E+01</totfact>
</mgrwt>
</event>
<event>
 6    1  0.1929825E-004  0.3000000E+03  0.7818608E-02  0.1093470E+00
          1   -1    0    0  502    0  0.00000000000E+00  0.00000000000E+00  0.49359620161E+02  0.49359620161E+02  0.00000000000E+00 0.  1.
         13   -1    0    0    0    0 -0.00000000000E+00 -0.00000000000E+00 -0.10000000000E+04  0.10000000000E+04  0.00000000000E+00 0.  1.
    9000005    2    1    2  501    0 -0.69985388832E+02 -0.23684553266E+02 -0.90327202056E+03  0.96159474009E+03  0.32141124487E+03 0.  0.
         13    1    3    3    0    0  0.36766748912E+02 -0.90594755743E+02 -0.77732525449E+03  0.78344990578E+03  0.00000000000E+00 0.  1.
          3    1    3    3  501    0 -0.10675213774E+03  0.66910202477E+02 -0.12594676607E+03  0.17814483431E+03  0.00000000000E+00 0.  1.
         21    1    1    2  502  501  0.69985388832E+02  0.23684553266E+02 -0.47368359281E+02  0.87764880074E+02  0.00000000000E+00 0.  1.
<mgrwt>
<rscale>  1 0.30000000E+03</rscale>
<asrwt>0</asrwt>
<pdfrwt beam="1">  1        1 0.17948991E+00 0.30000000E+03</pdfrwt>
<pdfrwt beam="2">0</pdfrwt>
<totfact> 0.12847248E+01</totfact>
</mgrwt>
</event>
<event>
 6    1  0.1929825E-004  0.3000000E+03  0.7818608E-02  0.1093470E+00
          1   -1    0    0  502    0  0.00000000000E+00  0.00000000000E+00  0.32897762984E+02  0.32897762984E+02  0.00000000000E+00 0.  1.
         13   -1    0    0    0    0 -0.00000000000E+00 -0.00000000000E+00 -0.10000000000E+04  0.10000000000E+04  0.00000000000E+00 0.  1.
    9000005    2    1    2  501    0  0.17011536581E+02  0.17331673160E+02 -0.94348738815E+03  0.99902387395E+03  0.32755223988E+03 0.  0.
         13    1    3    3    0    0 -0.12125926649E+03  0.69014783429E+02 -0.70404175776E+03  0.71773368788E+03  0.00000000000E+00 0.  1.
          1    1    3    3  501    0  0.13827080307E+03 -0.51683110269E+02 -0.23944563038E+03  0.28129018607E+03  0.00000000000E+00 0.  1.
         21    1    1    2  502  501 -0.17011536581E+02 -0.17331673160E+02 -0.23614848869E+02  0.33873889037E+02  0.00000000000E+00 0.  1.
<mgrwt>
<rscale>  1 0.30000000E+03</rscale>
<asrwt>0</asrwt>
<pdfrwt beam="1">  1        1 0.11962848E+00 0.30000000E+03</pdfrwt>
<pdfrwt beam="2">0</pdfrwt>
<totfact> 0.26122170E+01</totfact>
</mgrwt>
</event>
<event>
 6    1  0.1929825E-004  0.3000000E+03  0.7818608E-02  0.1093470E+00
          1   -1    0    0  502    0  0.00000000000E+00  0.00000000000E+00  0.37003375083E+02  0.37003375083E+02  0.00000000000E+00 0.  1.
         13   -1    0    0    0    0 -0.00000000000E+00 -0.00000000000E+00 -0.10000000000E+04  0.10000000000E+04  0.00000000000E+00 0.  1.
    9000005    2    1    2  501    0  0.42836470483E+02  0.28088396561E+02 -0.78351687070E+03  0.85035690874E+03  0.32647245572E+03 0.  0.
         13    1    3    3    0    0 -0.13500571138E+03  0.37792377313E+02 -0.23492856219E+03  0.27358039992E+03  0.00000000000E+00 0.  1.
          1    1    3    3  501    0  0.17784218186E+03 -0.97039807520E+01 -0.54858830851E+03  0.57677650882E+03  0.00000000000E+00 0.  1.
         21    1    1    2  502  501 -0.42836470483E+02 -0.28088396561E+02 -0.17947975422E+03  0.18664646635E+03  0.00000000000E+00 0. -1.
<mgrwt>
<rscale>  1 0.30000000E+03</rscale>
<asrwt>0</asrwt>
<pdfrwt beam="1">  1        1 0.13455801E+00 0.30000000E+03</pdfrwt>
<pdfrwt beam="2">0</pdfrwt>
<totfact> 0.21619772E+01</totfact>
</mgrwt>
</event>
<event>
 6    1  0.1929825E-004  0.3000000E+03  0.7818608E-02  0.1093470E+00
          1   -1    0    0  502    0  0.00000000000E+00  0.00000000000E+00  0.50443709323E+02  0.50443709323E+02  0.00000000000E+00 0.  1.
         13   -1    0    0    0    0 -0.00000000000E+00 -0.00000000000E+00 -0.10000000000E+04  0.10000000000E+04  0.00000000000E+00 0.  1.
    9000005    2    1    2  501    0 -0.12199621943E+02  0.15974713237E+02 -0.96719002862E+03  0.10237047686E+04  0.33482962756E+03 0.  0.
         13    1    3    3    0    0  0.11708295800E+03 -0.37239152326E+02 -0.14653710240E+03  0.19122838675E+03  0.00000000000E+00 0.  1.
          1    1    3    3  501    0 -0.12928257995E+03  0.53213865563E+02 -0.82065292623E+03  0.83247638182E+03  0.00000000000E+00 0.  1.
         21    1    1    2  502  501  0.12199621943E+02 -0.15974713237E+02  0.17633737946E+02  0.26738940752E+02  0.00000000000E+00 0.  1.
<mgrwt>
<rscale>  1 0.30000000E+03</rscale>
<asrwt>0</asrwt>
<pdfrwt beam="1">  1        1 0.18343206E+00 0.30000000E+03</pdfrwt>
<pdfrwt beam="2">0</pdfrwt>
<totfact> 0.12296247E+01</totfact>
</mgrwt>
</event>
<event>
 6    1  0.1929825E-004  0.3000000E+03  0.7818608E-02  0.1093470E+00
          1   -1    0    0  502    0  0.00000000000E+00  0.00000000000E+00  0.16015366813E+02  0.16015366813E+02  0.00000000000E+00 0.  1.
         13   -1    0    0    0    0 -0.00000000000E+00 -0.00000000000E+00 -0.10000000000E+04  0.10000000000E+04  0.00000000000E+00 0.  1.
    9000005    2    1    2  501    0 -0.17582057918E+02  0.16401308424E+02 -0.89459484023E+03  0.92344827351E+03  0.22776886090E+03 0.  0.
         13    1    3    3    0    0 -0.76950431257E+02 -0.74755827704E+02 -0.59767408168E+03  0.60722657268E+03  0.00000000000E+00 0.  1.
          1    1    3    3  501    0  0.59368373339E+02  0.91157136129E+02 -0.29692075855E+03  0.31622170083E+03  0.00000000000E+00 0.  1.
         21    1    1    2  502  501  0.17582057918E+02 -0.16401308424E+02 -0.89389792952E+02  0.92567093304E+02  0.00000000000E+00 0.  1.
<mgrwt>
<rscale>  1 0.30000000E+03</rscale>
<asrwt>0</asrwt>
<pdfrwt beam="1">  1        1 0.58237820E-01 0.30000000E+03</pdfrwt>
<pdfrwt beam="2">0</pdfrwt>
<totfact> 0.72144137E+01</totfact>
</mgrwt>
</event>
<event>
 6    1  0.1929825E-004  0.3000000E+03  0.7818608E-02  0.1093470E+00
          1   -1    0    0  502    0  0.00000000000E+00  0.00000000000E+00  0.39330970666E+02  0.39330970666E+02  0.00000000000E+00 0.  1.
         13   -1    0    0    0    0 -0.00000000000E+00 -0.00000000000E+00 -0.10000000000E+04  0.10000000000E+04  0.00000000000E+00 0.  1.
    9000005    2    1    2  501    0 -0.40109094011E+02 -0.53601545828E+02 -0.82401522080E+03  0.88715959187E+03  0.32182167764E+03 0.  0.
         13    1    3    3    0    0  0.77390698176E+02  0.10054985930E+03 -0.42537314280E+03  0.44389402450E+03  0.00000000000E+00 0.  1.
          1    1    3    3  501    0 -0.11749979219E+03 -0.15415140513E+03 -0.39864207799E+03  0.44326556737E+03  0.00000000000E+00 0.  1.
         21    1    1    2  502  501  0.40109094011E+02  0.53601545828E+02 -0.13665380854E+03  0.15217137880E+03  0.00000000000E+00 0.  1.
<mgrwt>
<rscale>  1 0.30000000E+03</rscale>
<asrwt>0</asrwt>
<pdfrwt beam="1">  1        1 0.14302201E+00 0.30000000E+03</pdfrwt>
<pdfrwt beam="2">0</pdfrwt>
<totfact> 0.19510806E+01</totfact>
</mgrwt>
</event>
<event>
 6    1  0.1929825E-004  0.3000000E+03  0.7818608E-02  0.1093470E+00
          1   -1    0    0  502    0  0.00000000000E+00  0.00000000000E+00  0.37877672868E+02  0.37877672868E+02  0.00000000000E+00 0.  1.
         13   -1    0    0    0    0 -0.00000000000E+00 -0.00000000000E+00 -0.10000000000E+04  0.10000000000E+04  0.00000000000E+00 0.  1.
    9000005    2    1    2  501    0 -0.21622909067E+02 -0.41700393300E+02 -0.91501941517E+03  0.97135581696E+03  0.32259125842E+03 0.  0.
         13    1    3    3    0    0 -0.47036105683E+02 -0.16734807003E+03 -0.33586590706E+03  0.37818471585E+03  0.00000000000E+00 0.  1.
          1    1    3    3  501    0  0.25413196616E+02  0.12564767673E+03 -0.57915350812E+03  0.59317110111E+03  0.00000000000E+00 0.  1.
         21    1    1    2  502  501  0.21622909067E+02  0.41700393300E+02 -0.47102911959E+02  0.66521855904E+02  0.00000000000E+00 0.  1.
<mgrwt>
<rscale>  1 0.30000000E+03</rscale>
<asrwt>0</asrwt>
<pdfrwt beam="1">  1        1 0.13773728E+00 0.30000000E+03</pdfrwt>
<pdfrwt beam="2">0</pdfrwt>
<totfact> 0.20794752E+01</totfact>
</mgrwt>
</event>
<event>
 6    1  0.1929825E-004  0.3000000E+03  0.7818608E-02  0.1093470E+00
          1   -1    0    0  502    0  0.00000000000E+00  0.00000000000E+00  0.39405268745E+02  0.39405268745E+02  0.00000000000E+00 0.  1.
         13   -1    0    0    0    0 -0.00000000000E+00 -0.00000000000E+00 -0.10000000000E+04  0.10000000000E+04  0.00000000000E+00 0.  1.
    9000005    2    1    2  501    0 -0.81114499815E+01 -0.12112551876E+02 -0.97138607937E+03  0.10212679391E+04  0.31493615011E+03 0.  0.
         13    1    3    3    0    0 -0.39122128103E+02  0.10402088485E+03 -0.12866053893E+03  0.17001299854E+03  0.00000000000E+00 0.  1.
          3    1    3    3  501    0  0.31010678122E+02 -0.11613343673E+03 -0.84272554043E+03  0.85125494053E+03  0.00000000000E+00 0.  1.
         21    1    1    2  502  501  0.81114499815E+01  0.12112551876E+02  0.10791348111E+02  0.18137329677E+02  0.00000000000E+00 0.  1.
<mgrwt>
<rscale>  1 0.30000000E+03</rscale>
<asrwt>0</asrwt>
<pdfrwt beam="1">  1        1 0.14329219E+00 0.30000000E+03</pdfrwt>
<pdfrwt beam="2">0</pdfrwt>
<totfact> 0.19447909E+01</totfact>
</mgrwt>
</event>
<event>
 6    1  0.1929825E-004  0.3000000E+03  0.7818608E-02  0.1093470E+00
          1   -1    0    0  502    0  0.00000000000E+00  0.00000000000E+00  0.37027138726E+02  0.37027138726E+02  0.00000000000E+00 0.  1.
         13   -1    0    0    0    0 -0.00000000000E+00 -0.00000000000E+00 -0.10000000000E+04  0.10000000000E+04  0.00000000000E+00 0.  1.
    9000005    2    1    2  501    0  0.11077328302E+02 -0.35492571134E+01 -0.97107326669E+03  0.10228524784E+04  0.32110527681E+03 0.  0.
         13    1    3    3    0    0  0.69394613753E+01 -0.11703139809E+03 -0.84533423416E+03  0.85342514124E+03  0.00000000000E+00 0.  1.
          3    1    3    3  501    0  0.41378669270E+01  0.11348214098E+03 -0.12573903253E+03  0.16942733712E+03  0.00000000000E+00 0.  1.
         21    1    1    2  502  501 -0.11077328302E+02  0.35492571134E+01  0.81004054167E+01  0.14174660359E+02  0.00000000000E+00 0.  1.
<mgrwt>
<rscale>  1 0.30000000E+03</rscale>
<asrwt>0</asrwt>
<pdfrwt beam="1">  1        1 0.13464442E+00 0.30000000E+03</pdfrwt>
<pdfrwt beam="2">0</pdfrwt>
<totfact> 0.21596780E+01</totfact>
</mgrwt>
</event>
<event>
 6    1  0.1929825E-004  0.3000000E+03  0.7818608E-02  0.1093470E+00
          3   -1    0    0  502    0  0.00000000000E+00  0.00000000000E+00  0.27736436437E+02  0.27736436437E+02  0.00000000000E+00 0.  1.
         13   -1    0    0    0    0 -0.00000000000E+00 -0.00000000000E+00 -0.10000000000E+04  0.10000000000E+04  0.00000000000E+00 0.  1.
    9000005    2    1    2  501    0  0.46943836963E+01 -0.59144187388E+01 -0.94868890448E+03  0.10029819997E+04  0.32543084773E+03 0.  0.
         13    1    3    3    0    0  0.68527652963E+02 -0.13088801029E+03 -0.25044251606E+03  0.29077338995E+03  0.00000000000E+00 0.  1.
          1    1    3    3  501    0 -0.63833269266E+02  0.12497359155E+03 -0.69824638842E+03  0.71220860975E+03  0.00000000000E+00 0.  1.
         21    1    1    2  502  501 -0.46943836963E+01  0.59144187388E+01 -0.23574659082E+02  0.24754436737E+02  0.00000000000E+00 0. -1.
<mgrwt>
<rscale>  1 0.30000000E+03</rscale>
<asrwt>0</asrwt>
<pdfrwt beam="1">  1        3 0.10085998E+00 0.30000000E+03</pdfrwt>
<pdfrwt beam="2">0</pdfrwt>
<totfact> 0.38296724E+00</totfact>
</mgrwt>
</event>
<event>
 6    1  0.1929825E-004  0.3000000E+03  0.7818608E-02  0.1093470E+00
          1   -1    0    0  502    0  0.00000000000E+00  0.00000000000E+00  0.32638864340E+02  0.32638864340E+02  0.00000000000E+00 0.  1.
         13   -1    0    0    0    0 -0.00000000000E+00 -0.00000000000E+00 -0.10000000000E+04  0.10000000000E+04  0.00000000000E+00 0.  1.
    9000005    2    1    2  501    0 -0.24008060904E+02 -0.83270542924E+01 -0.92009250812E+03  0.97897276731E+03  0.33342424747E+03 0.  0.
         13    1    3    3    0    0  0.46830593146E+02  0.15063561894E+03 -0.37683251782E+03  0.40851798080E+03  0.00000000000E+00 0.  1.
          3    1    3    3  501    0 -0.70838654050E+02 -0.15896267323E+03 -0.54325999030E+03  0.57045478651E+03  0.00000000000E+00 0.  1.
         21    1    1    2  502  501  0.24008060904E+02  0.83270542924E+01 -0.47268627536E+02  0.53666097032E+02  0.00000000000E+00 0. -1.
<mgrwt>
<rscale>  1 0.30000000E+03</rscale>
<asrwt>0</asrwt>
<pdfrwt beam="1">  1        1 0.11868703E+00 0.30000000E+03</pdfrwt>
<pdfrwt beam="2">0</pdfrwt>
<totfact> 0.26445554E+01</totfact>
</mgrwt>
</event>
<event>
 6    1  0.1929825E-004  0.3000000E+03  0.7818608E-02  0.1093470E+00
          1   -1    0    0  502    0  0.00000000000E+00  0.00000000000E+00  0.39378534446E+02  0.39378534446E+02  0.00000000000E+00 0.  1.
         13   -1    0    0    0    0 -0.00000000000E+00 -0.00000000000E+00 -0.10000000000E+04  0.10000000000E+04  0.00000000000E+00 0.  1.
    9000005    2    1    2  501    0 -0.57227343320E+00  0.36729869812E+02 -0.94708721510E+03  0.10002302680E+04  0.31958877501E+03 0.  0.
         13    1    3    3    0    0  0.14924201385E+03 -0.38372323664E+02 -0.45802435416E+03  0.48325140758E+03  0.00000000000E+00 0.  1.
          1    1    3    3  501    0 -0.14981428728E+03  0.75102193477E+02 -0.48906286093E+03  0.51697886038E+03  0.00000000000E+00 0.  1.
         21    1    1    2  502  501  0.57227343320E+00 -0.36729869812E+02 -0.13534250457E+02  0.39148266485E+02  0.00000000000E+00 0. -1.
<mgrwt>
<rscale>  1 0.30000000E+03</rscale>
<asrwt>0</asrwt>
<pdfrwt beam="1">  1        1 0.14319497E+00 0.30000000E+03</pdfrwt>
<pdfrwt beam="2">0</pdfrwt>
<totfact> 0.19470511E+01</totfact>
</mgrwt>
</event>
<event>
 6    1  0.1929825E-004  0.3000000E+03  0.7818608E-02  0.1093470E+00
          1   -1    0    0  502    0  0.00000000000E+00  0.00000000000E+00  0.44188506611E+02  0.44188506611E+02  0.00000000000E+00 0.  1.
         13   -1    0    0    0    0 -0.00000000000E+00 -0.00000000000E+00 -0.10000000000E+04  0.10000000000E+04  0.00000000000E+00 0.  1.
    9000005    2    1    2  501    0  0.13207013058E+02  0.95992459734E+01 -0.96687324009E+03  0.10244671234E+04  0.33826388181E+03 0.  0.
         13    1    3    3    0    0  0.15532224725E+03 -0.72020907468E+02 -0.41967448237E+03  0.45325344208E+03  0.00000000000E+00 0.  1.
          3    1    3    3  501    0 -0.14211523419E+03  0.81620153441E+02 -0.54719875772E+03  0.57121368129E+03  0.00000000000E+00 0.  1.
         21    1    1    2  502  501 -0.13207013058E+02 -0.95992459734E+01  0.11061746699E+02  0.19721383248E+02  0.00000000000E+00 0. -1.
<mgrwt>
<rscale>  1 0.30000000E+03</rscale>
<asrwt>0</asrwt>
<pdfrwt beam="1">  1        1 0.16068582E+00 0.30000000E+03</pdfrwt>
<pdfrwt beam="2">0</pdfrwt>
<totfact> 0.15878075E+01</totfact>
</mgrwt>
</event>
<event>
 6    1  0.1929825E-004  0.3000000E+03  0.7818608E-02  0.1093470E+00
          1   -1    0    0  502    0  0.00000000000E+00  0.00000000000E+00  0.36700128072E+02  0.36700128072E+02  0.00000000000E+00 0.  1.
         13   -1    0    0    0    0 -0.00000000000E+00 -0.00000000000E+00 -0.10000000000E+04  0.10000000000E+04  0.00000000000E+00 0.  1.
    9000005    2    1    2  501    0  0.17596771608E+02  0.25806944067E+02 -0.94340415180E+03  0.99966657015E+03  0.32915985950E+03 0.  0.
         13    1    3    3    0    0  0.61084583600E+02 -0.13481796976E+03 -0.29235283744E+03  0.32768489877E+03  0.00000000000E+00 0.  1.
          3    1    3    3  501    0 -0.43487811992E+02  0.16062491383E+03 -0.65105131436E+03  0.67198167138E+03  0.00000000000E+00 0.  1.
         21    1    1    2  502  501 -0.17596771608E+02 -0.25806944067E+02 -0.19895720127E+02  0.37033557923E+02  0.00000000000E+00 0. -1.
<mgrwt>
<rscale>  1 0.30000000E+03</rscale>
<asrwt>0</asrwt>
<pdfrwt beam="1">  1        1 0.13345529E+00 0.30000000E+03</pdfrwt>
<pdfrwt beam="2">0</pdfrwt>
<totfact> 0.21916055E+01</totfact>
</mgrwt>
</event>
<event>
 6    1  0.1929825E-004  0.3000000E+03  0.7818608E-02  0.1093470E+00
          1   -1    0    0  502    0  0.00000000000E+00  0.00000000000E+00  0.26784802307E+02  0.26784802307E+02  0.00000000000E+00 0.  1.
         13   -1    0    0    0    0 -0.00000000000E+00 -0.00000000000E+00 -0.10000000000E+04  0.10000000000E+04  0.00000000000E+00 0.  1.
    9000005    2    1    2  501    0 -0.20681022052E+02  0.14523445422E+00 -0.91244863462E+03  0.96259523186E+03  0.30594009841E+03 0.  0.
         13    1    3    3    0    0  0.64149578433E+02  0.15779034737E+01 -0.21587088598E+02  0.67702736921E+02  0.00000000000E+00 0.  1.
          3    1    3    3  501    0 -0.84830600486E+02 -0.14326690195E+01 -0.89086154602E+03  0.89489249494E+03  0.00000000000E+00 0.  1.
         21    1    1    2  502  501  0.20681022052E+02 -0.14523445422E+00 -0.60766563073E+02  0.64189570445E+02  0.00000000000E+00 0.  1.
<mgrwt>
<rscale>  1 0.30000000E+03</rscale>
<asrwt>0</asrwt>
<pdfrwt beam="1">  1        1 0.97399487E-01 0.30000000E+03</pdfrwt>
<pdfrwt beam="2">0</pdfrwt>
<totfact> 0.35565765E+01</totfact>
</mgrwt>
</event>
<event>
 6    1  0.1929825E-004  0.3000000E+03  0.7818608E-02  0.1093470E+00
          1   -1    0    0  502    0  0.00000000000E+00  0.00000000000E+00  0.46339312953E+02  0.46339312953E+02  0.00000000000E+00 0.  1.
         13   -1    0    0    0    0 -0.00000000000E+00 -0.00000000000E+00 -0.10000000000E+04  0.10000000000E+04  0.00000000000E+00 0.  1.
    9000005    2    1    2  501    0  0.15304195132E+02  0.36793759911E+02 -0.95053150698E+03  0.10063669359E+04  0.32814061743E+03 0.  0.
         13    1    3    3    0    0 -0.90691270323E+02  0.53453137632E+02 -0.88060024196E+02  0.13724690269E+03  0.00000000000E+00 0.  1.
          1    1    3    3  501    0  0.10599546545E+03 -0.16659377721E+02 -0.86247148279E+03  0.86912003324E+03  0.00000000000E+00 0.  1.
         21    1    1    2  502  501 -0.15304195132E+02 -0.36793759911E+02 -0.31291800634E+01  0.39972377024E+02  0.00000000000E+00 0.  1.
<mgrwt>
<rscale>  1 0.30000000E+03</rscale>
<asrwt>0</asrwt>
<pdfrwt beam="1">  1        1 0.16850695E+00 0.30000000E+03</pdfrwt>
<pdfrwt beam="2">0</pdfrwt>
<totfact> 0.14529540E+01</totfact>
</mgrwt>
</event>
<event>
 6    1  0.1929825E-004  0.3000000E+03  0.7818608E-02  0.1093470E+00
          1   -1    0    0  502    0  0.00000000000E+00  0.00000000000E+00  0.29649278083E+02  0.29649278083E+02  0.00000000000E+00 0.  1.
         13   -1    0    0    0    0 -0.00000000000E+00 -0.00000000000E+00 -0.10000000000E+04  0.10000000000E+04  0.00000000000E+00 0.  1.
    9000005    2    1    2  501    0  0.15730374341E+02 -0.16305695243E+02 -0.95856776722E+03  0.10041118860E+04  0.29811943047E+03 0.  0.
         13    1    3    3    0    0 -0.12802087133E+03  0.45482841899E+02 -0.55203882773E+03  0.56851112541E+03  0.00000000000E+00 0.  1.
          3    1    3    3  501    0  0.14375124567E+03 -0.61788537143E+02 -0.40652893950E+03  0.43560076056E+03  0.00000000000E+00 0.  1.
         21    1    1    2  502  501 -0.15730374341E+02  0.16305695243E+02 -0.11782954694E+02  0.25537392106E+02  0.00000000000E+00 0.  1.
<mgrwt>
<rscale>  1 0.30000000E+03</rscale>
<asrwt>0</asrwt>
<pdfrwt beam="1">  1        1 0.10781578E+00 0.30000000E+03</pdfrwt>
<pdfrwt beam="2">0</pdfrwt>
<totfact> 0.30619602E+01</totfact>
</mgrwt>
</event>
<event>
 6    1  0.1929825E-004  0.3000000E+03  0.7818608E-02  0.1093470E+00
          1   -1    0    0  502    0  0.00000000000E+00  0.00000000000E+00  0.35765644230E+02  0.35765644230E+02  0.00000000000E+00 0.  1.
         13   -1    0    0    0    0 -0.00000000000E+00 -0.00000000000E+00 -0.10000000000E+04  0.10000000000E+04  0.00000000000E+00 0.  1.
    9000005    2    1    2  501    0  0.17536869290E+02 -0.98461314091E+01 -0.93882243842E+03  0.10033580274E+04  0.35346183964E+03 0.  0.
         13    1    3    3    0    0  0.12324578732E+03 -0.13755461057E+03 -0.42336543153E+03  0.46189726520E+03  0.00000000000E+00 0.  1.
          1    1    3    3  501    0 -0.10570891803E+03  0.12770847916E+03 -0.51545700689E+03  0.54146076216E+03  0.00000000000E+00 0.  1.
         21    1    1    2  502  501 -0.17536869290E+02  0.98461314091E+01 -0.25411917349E+02  0.32407616876E+02  0.00000000000E+00 0. -1.
<mgrwt>
<rscale>  1 0.30000000E+03</rscale>
<asrwt>0</asrwt>
<pdfrwt beam="1">  1        1 0.13005716E+00 0.30000000E+03</pdfrwt>
<pdfrwt beam="2">0</pdfrwt>
<totfact> 0.22863390E+01</totfact>
</mgrwt>
</event>
<event>
 6    1  0.1929825E-004  0.3000000E+03  0.7818608E-02  0.1093470E+00
          1   -1    0    0  502    0  0.00000000000E+00  0.00000000000E+00  0.14074175261E+02  0.14074175261E+02  0.00000000000E+00 0.  1.
         13   -1    0    0    0    0 -0.00000000000E+00 -0.00000000000E+00 -0.10000000000E+04  0.10000000000E+04  0.00000000000E+00 0.  1.
    9000005    2    1    2  501    0  0.12796361249E+02 -0.58576840570E+01 -0.98469348592E+03  0.99994696808E+03  0.17342035187E+03 0.  0.
         13    1    3    3    0    0 -0.30982328434E+02 -0.58981154555E+02 -0.17372277439E+03  0.18605989253E+03  0.00000000000E+00 0.  1.
          1    1    3    3  501    0  0.43778689684E+02  0.53123470498E+02 -0.81097071153E+03  0.81388707555E+03  0.00000000000E+00 0.  1.
         21    1    1    2  502  501 -0.12796361249E+02  0.58576840570E+01 -0.12323388218E+01  0.14127207180E+02  0.00000000000E+00 0. -1.
<mgrwt>
<rscale>  1 0.30000000E+03</rscale>
<asrwt>0</asrwt>
<pdfrwt beam="1">  1        1 0.51178927E-01 0.30000000E+03</pdfrwt>
<pdfrwt beam="2">0</pdfrwt>
<totfact> 0.85586232E+01</totfact>
</mgrwt>
</event>
<event>
 6    1  0.1929825E-004  0.3000000E+03  0.7818608E-02  0.1093470E+00
          1   -1    0    0  502    0  0.00000000000E+00  0.00000000000E+00  0.33569267857E+02  0.33569267857E+02  0.00000000000E+00 0.  1.
         13   -1    0    0    0    0 -0.00000000000E+00 -0.00000000000E+00 -0.10000000000E+04  0.10000000000E+04  0.00000000000E+00 0.  1.
    9000005    2    1    2  501    0  0.20583367607E+02  0.10783644544E+02 -0.82351816864E+03  0.88877989387E+03  0.33347798078E+03 0.  0.
         13    1    3    3    0    0 -0.12918728335E+02 -0.15866352798E+03 -0.44798783095E+03  0.47543044216E+03  0.00000000000E+00 0.  1.
          3    1    3    3  501    0  0.33502095942E+02  0.16944717252E+03 -0.37553033768E+03  0.41334945171E+03  0.00000000000E+00 0.  1.
         21    1    1    2  502  501 -0.20583367607E+02 -0.10783644544E+02 -0.14291256351E+03  0.14478937399E+03  0.00000000000E+00 0. -1.
<mgrwt>
<rscale>  1 0.30000000E+03</rscale>
<asrwt>0</asrwt>
<pdfrwt beam="1">  1        1 0.12207032E+00 0.30000000E+03</pdfrwt>
<pdfrwt beam="2">0</pdfrwt>
<totfact> 0.25307714E+01</totfact>
</mgrwt>
</event>
<event>
 6    1  0.1929825E-004  0.3000000E+03  0.7818608E-02  0.1093470E+00
          1   -1    0    0  502    0  0.00000000000E+00  0.00000000000E+00  0.25238806750E+02  0.25238806750E+02  0.00000000000E+00 0.  1.
         13   -1    0    0    0    0 -0.00000000000E+00 -0.00000000000E+00 -0.10000000000E+04  0.10000000000E+04  0.00000000000E+00 0.  1.
    9000005    2    1    2  501    0 -0.15433482852E+02 -0.97469357612E+01 -0.95287344150E+03  0.99673847647E+03  0.29186743532E+03 0.  0.
         13    1    3    3    0    0 -0.62286627536E+02  0.13047877826E+03 -0.46737471426E+03  0.48922741039E+03  0.00000000000E+00 0.  1.
          1    1    3    3  501    0  0.46853144684E+02 -0.14022571402E+03 -0.48549872724E+03  0.50751106608E+03  0.00000000000E+00 0.  1.
         21    1    1    2  502  501  0.15433482852E+02  0.97469357612E+01 -0.21887751748E+02  0.28500330283E+02  0.00000000000E+00 0.  1.
<mgrwt>
<rscale>  1 0.30000000E+03</rscale>
<asrwt>0</asrwt>
<pdfrwt beam="1">  1        1 0.91777673E-01 0.30000000E+03</pdfrwt>
<pdfrwt beam="2">0</pdfrwt>
<totfact> 0.38739566E+01</totfact>
</mgrwt>
</event>
<event>
 6    1  0.1929825E-004  0.3000000E+03  0.7818608E-02  0.1093470E+00
          3   -1    0    0  502    0  0.00000000000E+00  0.00000000000E+00  0.31791965607E+02  0.31791965607E+02  0.00000000000E+00 0.  1.
         13   -1    0    0    0    0 -0.00000000000E+00 -0.00000000000E+00 -0.10000000000E+04  0.10000000000E+04  0.00000000000E+00 0.  1.
    9000005    2    1    2  501    0  0.59985731834E+01  0.19481558219E+02 -0.94058145518E+03  0.99745915521E+03  0.33138463828E+03 0.  0.
         13    1    3    3    0    0  0.15268796635E+03 -0.50182738901E+02 -0.58267017762E+03  0.60443068936E+03  0.00000000000E+00 0.  1.
          1    1    3    3  501    0 -0.14668939317E+03  0.69664297120E+02 -0.35791127756E+03  0.39302846585E+03  0.00000000000E+00 0.  1.
         21    1    1    2  502  501 -0.59985731834E+01 -0.19481558219E+02 -0.27626579210E+02  0.34332810397E+02  0.00000000000E+00 0. -1.
<mgrwt>
<rscale>  1 0.30000000E+03</rscale>
<asrwt>0</asrwt>
<pdfrwt beam="1">  1        3 0.11560739E+00 0.30000000E+03</pdfrwt>
<pdfrwt beam="2">0</pdfrwt>
<totfact> 0.25997327E+00</totfact>
</mgrwt>
</event>
<event>
 6    1  0.1929825E-004  0.3000000E+03  0.7818608E-02  0.1093470E+00
          1   -1    0    0  502    0  0.00000000000E+00  0.00000000000E+00  0.59942923667E+02  0.59942923667E+02  0.00000000000E+00 0.  1.
         13   -1    0    0    0    0 -0.00000000000E+00 -0.00000000000E+00 -0.10000000000E+04  0.10000000000E+04  0.00000000000E+00 0.  1.
    9000005    2    1    2  501    0  0.12617783974E+03 -0.52618737708E+02 -0.76734810795E+03  0.83967498102E+03  0.31231614779E+03 0.  0.
         13    1    3    3    0    0 -0.98946142493E+02 -0.11004107363E+02 -0.13943978225E+03  0.17133266579E+03  0.00000000000E+00 0.  1.
          1    1    3    3  501    0  0.22512398223E+03 -0.41614630346E+02 -0.62790832571E+03  0.66834231523E+03  0.00000000000E+00 0.  1.
         21    1    1    2  502  501 -0.12617783974E+03  0.52618737708E+02 -0.17270896838E+03  0.22026794265E+03  0.00000000000E+00 0.  1.
<mgrwt>
<rscale>  1 0.30000000E+03</rscale>
<asrwt>0</asrwt>
<pdfrwt beam="1">  1        1 0.21797473E+00 0.30000000E+03</pdfrwt>
<pdfrwt beam="2">0</pdfrwt>
<totfact> 0.84255542E+00</totfact>
</mgrwt>
</event>
<event>
 6    1  0.1929825E-004  0.3000000E+03  0.7818608E-02  0.1093470E+00
          1   -1    0    0  502    0  0.00000000000E+00  0.00000000000E+00  0.81723828855E+02  0.81723828855E+02  0.00000000000E+00 0.  1.
         13   -1    0    0    0    0 -0.00000000000E+00 -0.00000000000E+00 -0.10000000000E+04  0.10000000000E+04  0.00000000000E+00 0.  1.
    9000005    2    1    2  501    0 -0.67631586735E+02 -0.22235129487E+01 -0.94918301200E+03  0.10073315689E+04  0.33043838130E+03 0.  0.
         13    1    3    3    0    0 -0.18565585786E+03 -0.23823496047E+02 -0.76460898944E+03  0.78718648569E+03  0.00000000000E+00 0.  1.
          1    1    3    3  501    0  0.11802427112E+03  0.21599983098E+02 -0.18457402257E+03  0.22014508318E+03  0.00000000000E+00 0.  1.
         21    1    1    2  502  501  0.67631586735E+02  0.22235129487E+01  0.30906840856E+02  0.74392259986E+02  0.00000000000E+00 0.  1.
<mgrwt>
<rscale>  1 0.30000000E+03</rscale>
<asrwt>0</asrwt>
<pdfrwt beam="1">  1        1 0.29717819E+00 0.30000000E+03</pdfrwt>
<pdfrwt beam="2">0</pdfrwt>
<totfact> 0.35830622E+00</totfact>
</mgrwt>
</event>
<event>
 6    1  0.1929825E-004  0.3000000E+03  0.7818608E-02  0.1093470E+00
          1   -1    0    0  502    0  0.00000000000E+00  0.00000000000E+00  0.38787526733E+02  0.38787526733E+02  0.00000000000E+00 0.  1.
         13   -1    0    0    0    0 -0.00000000000E+00 -0.00000000000E+00 -0.10000000000E+04  0.10000000000E+04  0.00000000000E+00 0.  1.
    9000005    2    1    2  501    0  0.17087693125E+02  0.56327163108E+02 -0.86768913156E+03  0.92828253135E+03  0.32459095863E+03 0.  0.
         13    1    3    3    0    0  0.74790983476E+02 -0.81180903400E+02 -0.10918840199E+03  0.15526151299E+03  0.00000000000E+00 0.  1.
          3    1    3    3  501    0 -0.57703290350E+02  0.13750806651E+03 -0.75850072958E+03  0.77302101837E+03  0.00000000000E+00 0.  1.
         21    1    1    2  502  501 -0.17087693125E+02 -0.56327163108E+02 -0.93523341705E+02  0.11050499538E+03  0.00000000000E+00 0.  1.
<mgrwt>
<rscale>  1 0.30000000E+03</rscale>
<asrwt>0</asrwt>
<pdfrwt beam="1">  1        1 0.14104585E+00 0.30000000E+03</pdfrwt>
<pdfrwt beam="2">0</pdfrwt>
<totfact> 0.19978788E+01</totfact>
</mgrwt>
</event>
<event>
 6    1  0.1929825E-004  0.3000000E+03  0.7818608E-02  0.1093470E+00
          1   -1    0    0  502    0  0.00000000000E+00  0.00000000000E+00  0.32785699347E+02  0.32785699347E+02  0.00000000000E+00 0.  1.
         13   -1    0    0    0    0 -0.00000000000E+00 -0.00000000000E+00 -0.10000000000E+04  0.10000000000E+04  0.00000000000E+00 0.  1.
    9000005    2    1    2  501    0 -0.33471975082E+02 -0.83987957299E+01 -0.88281360256E+03  0.94160241840E+03  0.32567521335E+03 0.  0.
         13    1    3    3    0    0 -0.45811240084E+02  0.83450592310E+02 -0.57738995671E+02  0.11133940316E+03  0.00000000000E+00 0.  1.
          3    1    3    3  501    0  0.12339265002E+02 -0.91849388040E+02 -0.82507460689E+03  0.83026301524E+03  0.00000000000E+00 0.  1.
         21    1    1    2  502  501  0.33471975082E+02  0.83987957299E+01 -0.84400698093E+02  0.91183280947E+02  0.00000000000E+00 0. -1.
<mgrwt>
<rscale>  1 0.30000000E+03</rscale>
<asrwt>0</asrwt>
<pdfrwt beam="1">  1        1 0.11922098E+00 0.30000000E+03</pdfrwt>
<pdfrwt beam="2">0</pdfrwt>
<totfact> 0.26261487E+01</totfact>
</mgrwt>
</event>
<event>
 6    1  0.1929825E-004  0.3000000E+03  0.7818608E-02  0.1093470E+00
          1   -1    0    0  502    0  0.00000000000E+00  0.00000000000E+00  0.28558541653E+02  0.28558541653E+02  0.00000000000E+00 0.  1.
         13   -1    0    0    0    0 -0.00000000000E+00 -0.00000000000E+00 -0.10000000000E+04  0.10000000000E+04  0.00000000000E+00 0.  1.
    9000005    2    1    2  501    0 -0.32498722807E+01  0.10277996605E+02 -0.96073192046E+03  0.10133633751E+04  0.32215416833E+03 0.  0.
         13    1    3    3    0    0  0.28082250662E+02  0.92354838272E+02 -0.90320961115E+03  0.90835325212E+03  0.00000000000E+00 0.  1.
          1    1    3    3  501    0 -0.31332122942E+02 -0.82076841667E+02 -0.57522309306E+02  0.10501012301E+03  0.00000000000E+00 0.  1.
         21    1    1    2  502  501  0.32498722807E+01 -0.10277996605E+02 -0.10709537890E+02  0.15195166530E+02  0.00000000000E+00 0. -1.
<mgrwt>
<rscale>  1 0.30000000E+03</rscale>
<asrwt>0</asrwt>
<pdfrwt beam="1">  1        1 0.10384946E+00 0.30000000E+03</pdfrwt>
<pdfrwt beam="2">0</pdfrwt>
<totfact> 0.32377282E+01</totfact>
</mgrwt>
</event>
<event>
 6    1  0.1929825E-004  0.3000000E+03  0.7818608E-02  0.1093470E+00
          1   -1    0    0  502    0  0.00000000000E+00  0.00000000000E+00  0.38120281866E+02  0.38120281866E+02  0.00000000000E+00 0.  1.
         13   -1    0    0    0    0 -0.00000000000E+00 -0.00000000000E+00 -0.10000000000E+04  0.10000000000E+04  0.00000000000E+00 0.  1.
    9000005    2    1    2  501    0  0.14514733719E+02 -0.76289058154E+01 -0.96955086072E+03  0.10200171294E+04  0.31644461625E+03 0.  0.
         13    1    3    3    0    0 -0.14188974783E+02  0.13356373446E+03 -0.71510789903E+03  0.72761246926E+03  0.00000000000E+00 0.  1.
          1    1    3    3  501    0  0.28703708502E+02 -0.14119264027E+03 -0.25444296169E+03  0.29240466019E+03  0.00000000000E+00 0.  1.
         21    1    1    2  502  501 -0.14514733719E+02  0.76289058154E+01  0.76711425828E+01  0.18103152416E+02  0.00000000000E+00 0.  1.
<mgrwt>
<rscale>  1 0.30000000E+03</rscale>
<asrwt>0</asrwt>
<pdfrwt beam="1">  1        1 0.13861950E+00 0.30000000E+03</pdfrwt>
<pdfrwt beam="2">0</pdfrwt>
<totfact> 0.20573082E+01</totfact>
</mgrwt>
</event>
<event>
 6    1  0.1929825E-004  0.3000000E+03  0.7818608E-02  0.1093470E+00
          1   -1    0    0  502    0  0.00000000000E+00  0.00000000000E+00  0.39129907142E+02  0.39129907142E+02  0.00000000000E+00 0.  1.
         13   -1    0    0    0    0 -0.00000000000E+00 -0.00000000000E+00 -0.10000000000E+04  0.10000000000E+04  0.00000000000E+00 0.  1.
    9000005    2    1    2  501    0 -0.21129270015E+02  0.29158531672E+02 -0.93748896771E+03  0.99619573621E+03  0.33499808095E+03 0.  0.
         13    1    3    3    0    0  0.11153922918E+03 -0.90084888461E+02 -0.27524829901E+03  0.31035127337E+03  0.00000000000E+00 0.  1.
          1    1    3    3  501    0 -0.13266849920E+03  0.11924342013E+03 -0.66224066870E+03  0.68584446284E+03  0.00000000000E+00 0.  1.
         21    1    1    2  502  501  0.21129270015E+02 -0.29158531672E+02 -0.23381125148E+02  0.42934170935E+02  0.00000000000E+00 0.  1.
<mgrwt>
<rscale>  1 0.30000000E+03</rscale>
<asrwt>0</asrwt>
<pdfrwt beam="1">  1        1 0.14229087E+00 0.30000000E+03</pdfrwt>
<pdfrwt beam="2">0</pdfrwt>
<totfact> 0.19682314E+01</totfact>
</mgrwt>
</event>
<event>
 6    1  0.1929825E-004  0.3000000E+03  0.7818608E-02  0.1093470E+00
          1   -1    0    0  502    0  0.00000000000E+00  0.00000000000E+00  0.29681068325E+02  0.29681068325E+02  0.00000000000E+00 0.  1.
         13   -1    0    0    0    0 -0.00000000000E+00 -0.00000000000E+00 -0.10000000000E+04  0.10000000000E+04  0.00000000000E+00 0.  1.
    9000005    2    1    2  501    0 -0.14499718189E+02 -0.17139011949E+02 -0.91688477460E+03  0.97172249087E+03  0.32103414431E+03 0.  0.
         13    1    3    3    0    0 -0.12590261445E+03  0.57935081530E+02 -0.20617059730E+03  0.24842354394E+03  0.00000000000E+00 0.  1.
          1    1    3    3  501    0  0.11140289626E+03 -0.75074093479E+02 -0.71071417730E+03  0.72329894693E+03  0.00000000000E+00 0.  1.
         21    1    1    2  502  501  0.14499718189E+02  0.17139011949E+02 -0.53434157077E+02  0.57958577456E+02  0.00000000000E+00 0.  1.
<mgrwt>
<rscale>  1 0.30000000E+03</rscale>
<asrwt>0</asrwt>
<pdfrwt beam="1">  1        1 0.10793139E+00 0.30000000E+03</pdfrwt>
<pdfrwt beam="2">0</pdfrwt>
<totfact> 0.30570452E+01</totfact>
</mgrwt>
</event>
<event>
 6    1  0.1929825E-004  0.3000000E+03  0.7818608E-02  0.1093470E+00
          1   -1    0    0  502    0  0.00000000000E+00  0.00000000000E+00  0.30927773682E+02  0.30927773682E+02  0.00000000000E+00 0.  1.
         13   -1    0    0    0    0 -0.00000000000E+00 -0.00000000000E+00 -0.10000000000E+04  0.10000000000E+04  0.00000000000E+00 0.  1.
    9000005    2    1    2  501    0 -0.91906764578E+01 -0.31575981878E+01 -0.95398234918E+03  0.10129794213E+04  0.34051511939E+03 0.  0.
         13    1    3    3    0    0  0.17981898034E+02 -0.24229723203E+02  0.21399630464E+02  0.36991516965E+02  0.00000000000E+00 0.  1.
          1    1    3    3  501    0 -0.27172574492E+02  0.21072125015E+02 -0.97538197964E+03  0.97598790437E+03  0.00000000000E+00 0.  1.
         21    1    1    2  502  501  0.91906764578E+01  0.31575981878E+01 -0.15089877139E+02  0.17948352352E+02  0.00000000000E+00 0. -1.
<mgrwt>
<rscale>  1 0.30000000E+03</rscale>
<asrwt>0</asrwt>
<pdfrwt beam="1">  1        1 0.11246487E+00 0.30000000E+03</pdfrwt>
<pdfrwt beam="2">0</pdfrwt>
<totfact> 0.28728189E+01</totfact>
</mgrwt>
</event>
<event>
 6    1  0.1929825E-004  0.3000000E+03  0.7818608E-02  0.1093470E+00
          1   -1    0    0  502    0  0.00000000000E+00  0.00000000000E+00  0.27335073335E+02  0.27335073335E+02  0.00000000000E+00 0.  1.
         13   -1    0    0    0    0 -0.00000000000E+00 -0.00000000000E+00 -0.10000000000E+04  0.10000000000E+04  0.00000000000E+00 0.  1.
    9000005    2    1    2  501    0  0.11364192335E+02 -0.31524067706E+00 -0.94677232902E+03  0.99905662117E+03  0.31875859998E+03 0.  0.
         13    1    3    3    0    0  0.78074364663E+02 -0.14147270391E+03 -0.52559326650E+03  0.54987127053E+03  0.00000000000E+00 0.  1.
          1    1    3    3  501    0 -0.66710172328E+02  0.14115746324E+03 -0.42117906253E+03  0.44918535064E+03  0.00000000000E+00 0.  1.
         21    1    1    2  502  501 -0.11364192335E+02  0.31524067706E+00 -0.25892597642E+02  0.28278452163E+02  0.00000000000E+00 0.  1.
<mgrwt>
<rscale>  1 0.30000000E+03</rscale>
<asrwt>0</asrwt>
<pdfrwt beam="1">  1        1 0.99400476E-01 0.30000000E+03</pdfrwt>
<pdfrwt beam="2">0</pdfrwt>
<totfact> 0.34528922E+01</totfact>
</mgrwt>
</event>
<event>
 6    1  0.1929825E-004  0.3000000E+03  0.7818608E-02  0.1093470E+00
          1   -1    0    0  502    0  0.00000000000E+00  0.00000000000E+00  0.55065409464E+02  0.55065409464E+02  0.00000000000E+00 0.  1.
         13   -1    0    0    0    0 -0.00000000000E+00 -0.00000000000E+00 -0.10000000000E+04  0.10000000000E+04  0.00000000000E+00 0.  1.
    9000005    2    1    2  501    0  0.13928058407E+02 -0.38923418261E+02 -0.95562876666E+03  0.10123642537E+04  0.33158108994E+03 0.  0.
         13    1    3    3    0    0  0.15401771782E+03  0.18952737841E+02 -0.28183657367E+03  0.32173361331E+03  0.00000000000E+00 0.  1.
          1    1    3    3  501    0 -0.14008965941E+03 -0.57876156102E+02 -0.67379219299E+03  0.69063064040E+03  0.00000000000E+00 0.  1.
         21    1    1    2  502  501 -0.13928058407E+02  0.38923418261E+02  0.10694176128E+02  0.42701155759E+02  0.00000000000E+00 0.  1.
<mgrwt>
<rscale>  1 0.30000000E+03</rscale>
<asrwt>0</asrwt>
<pdfrwt beam="1">  1        1 0.20023827E+00 0.30000000E+03</pdfrwt>
<pdfrwt beam="2">0</pdfrwt>
<totfact> 0.10216737E+01</totfact>
</mgrwt>
</event>
<event>
 6    1  0.1929825E-004  0.3000000E+03  0.7818608E-02  0.1093470E+00
          1   -1    0    0  502    0  0.00000000000E+00  0.00000000000E+00  0.34932731528E+02  0.34932731528E+02  0.00000000000E+00 0.  1.
         13   -1    0    0    0    0 -0.00000000000E+00 -0.00000000000E+00 -0.10000000000E+04  0.10000000000E+04  0.00000000000E+00 0.  1.
    9000005    2    1    2  501    0  0.75501904766E+01  0.12199196113E+02 -0.96748248152E+03  0.10203842259E+04  0.32396881123E+03 0.  0.
         13    1    3    3    0    0 -0.49501968169E+02 -0.63662956700E+02 -0.43671334328E+02  0.91709336223E+02  0.00000000000E+00 0.  1.
          3    1    3    3  501    0  0.57052158646E+02  0.75862152814E+02 -0.92381114719E+03  0.92867488967E+03  0.00000000000E+00 0.  1.
         21    1    1    2  502  501 -0.75501904766E+01 -0.12199196113E+02  0.24152130480E+01  0.14548505631E+02  0.00000000000E+00 0. -1.
<mgrwt>
<rscale>  1 0.30000000E+03</rscale>
<asrwt>0</asrwt>
<pdfrwt beam="1">  1        1 0.12702838E+00 0.30000000E+03</pdfrwt>
<pdfrwt beam="2">0</pdfrwt>
<totfact> 0.23753137E+01</totfact>
</mgrwt>
</event>
<event>
 6    1  0.1929825E-004  0.3000000E+03  0.7818608E-02  0.1093470E+00
          1   -1    0    0  502    0  0.00000000000E+00  0.00000000000E+00  0.11169642472E+03  0.11169642472E+03  0.00000000000E+00 0.  1.
         13   -1    0    0    0    0 -0.00000000000E+00 -0.00000000000E+00 -0.10000000000E+04  0.10000000000E+04  0.00000000000E+00 0.  1.
    9000005    2    1    2  501    0 -0.71876556816E+02 -0.24307212885E+03 -0.75186971240E+03  0.82383448180E+03  0.22168646719E+03 0.  0.
         13    1    3    3    0    0 -0.42543332089E+02  0.15586413993E+02 -0.29118429739E+03  0.29468825299E+03  0.00000000000E+00 0.  1.
          3    1    3    3  501    0 -0.29333224727E+02 -0.25865854284E+03 -0.46068541501E+03  0.52914622881E+03  0.00000000000E+00 0.  1.
         21    1    1    2  502  501  0.71876556816E+02  0.24307212885E+03 -0.13643386288E+03  0.28786194292E+03  0.00000000000E+00 0.  1.
<mgrwt>
<rscale>  1 0.30000000E+03</rscale>
<asrwt>0</asrwt>
<pdfrwt beam="1">  1        1 0.40616967E+00 0.30000000E+03</pdfrwt>
<pdfrwt beam="2">0</pdfrwt>
<totfact> 0.97033097E-01</totfact>
</mgrwt>
</event>
<event>
 6    1  0.1929825E-004  0.3000000E+03  0.7818608E-02  0.1093470E+00
          1   -1    0    0  502    0  0.00000000000E+00  0.00000000000E+00  0.29599116623E+02  0.29599116623E+02  0.00000000000E+00 0.  1.
         13   -1    0    0    0    0 -0.00000000000E+00 -0.00000000000E+00 -0.10000000000E+04  0.10000000000E+04  0.00000000000E+00 0.  1.
    9000005    2    1    2  501    0 -0.69868272311E+01 -0.73914173329E+01 -0.96579390196E+03  0.10184334065E+04  0.32302522129E+03 0.  0.
         13    1    3    3    0    0  0.32789845695E+02 -0.59267607989E+02 -0.94836295358E+03  0.95077868879E+03  0.00000000000E+00 0.  1.
          3    1    3    3  501    0 -0.39776672926E+02  0.51876190656E+02 -0.17430948384E+02  0.67654717704E+02  0.00000000000E+00 0.  1.
         21    1    1    2  502  501  0.69868272311E+01  0.73914173329E+01 -0.46069814160E+01  0.11165710130E+02  0.00000000000E+00 0. -1.
<mgrwt>
<rscale>  1 0.30000000E+03</rscale>
<asrwt>0</asrwt>
<pdfrwt beam="1">  1        1 0.10763338E+00 0.30000000E+03</pdfrwt>
<pdfrwt beam="2">0</pdfrwt>
<totfact> 0.30697387E+01</totfact>
</mgrwt>
</event>
<event>
 6    1  0.1929825E-004  0.3000000E+03  0.7818608E-02  0.1093470E+00
          1   -1    0    0  502    0  0.00000000000E+00  0.00000000000E+00  0.27127784376E+02  0.27127784376E+02  0.00000000000E+00 0.  1.
         13   -1    0    0    0    0 -0.00000000000E+00 -0.00000000000E+00 -0.10000000000E+04  0.10000000000E+04  0.00000000000E+00 0.  1.
    9000005    2    1    2  501    0 -0.12345258271E+02 -0.46222467955E-01 -0.96575665635E+03  0.10128786187E+04  0.30509796692E+03 0.  0.
         13    1    3    3    0    0 -0.12855084459E+03  0.30090038305E+02 -0.21292328767E+03  0.25053354363E+03  0.00000000000E+00 0.  1.
          1    1    3    3  501    0  0.11620558632E+03 -0.30136260773E+02 -0.75283336869E+03  0.76234507509E+03  0.00000000000E+00 0.  1.
         21    1    1    2  502  501  0.12345258271E+02  0.46222467955E-01 -0.71155592709E+01  0.14249165661E+02  0.00000000000E+00 0. -1.
<mgrwt>
<rscale>  1 0.30000000E+03</rscale>
<asrwt>0</asrwt>
<pdfrwt beam="1">  1        1 0.98646697E-01 0.30000000E+03</pdfrwt>
<pdfrwt beam="2">0</pdfrwt>
<totfact> 0.34914195E+01</totfact>
</mgrwt>
</event>
<event>
 6    1  0.1929825E-004  0.3000000E+03  0.7818608E-02  0.1093470E+00
          1   -1    0    0  502    0  0.00000000000E+00  0.00000000000E+00  0.12228119538E+03  0.12228119538E+03  0.00000000000E+00 0.  1.
         13   -1    0    0    0    0 -0.00000000000E+00 -0.00000000000E+00 -0.10000000000E+04  0.10000000000E+04  0.00000000000E+00 0.  1.
    9000005    2    1    2  501    0  0.23366097782E+03 -0.32427575717E+02 -0.75174668099E+03  0.85485274485E+03  0.33166420183E+03 0.  0.
         13    1    3    3    0    0  0.19938463653E+03 -0.37472201840E+02 -0.78259514225E+03  0.80846370102E+03  0.00000000000E+00 0.  1.
          1    1    3    3  501    0  0.34276341289E+02  0.50446261239E+01  0.30848461262E+02  0.46389043826E+02  0.00000000000E+00 0.  1.
         21    1    1    2  502  501 -0.23366097782E+03  0.32427575717E+02 -0.12597212363E+03  0.26742845053E+03  0.00000000000E+00 0.  1.
<mgrwt>
<rscale>  1 0.30000000E+03</rscale>
<asrwt>0</asrwt>
<pdfrwt beam="1">  1        1 0.44465983E+00 0.30000000E+03</pdfrwt>
<pdfrwt beam="2">0</pdfrwt>
<totfact> 0.55862014E-01</totfact>
</mgrwt>
</event>
<event>
 6    1  0.1929825E-004  0.3000000E+03  0.7818608E-02  0.1093470E+00
          1   -1    0    0  502    0  0.00000000000E+00  0.00000000000E+00  0.34139031864E+02  0.34139031864E+02  0.00000000000E+00 0.  1.
         13   -1    0    0    0    0 -0.00000000000E+00 -0.00000000000E+00 -0.10000000000E+04  0.10000000000E+04  0.00000000000E+00 0.  1.
    9000005    2    1    2  501    0  0.60604769759E+02  0.18494611615E+02 -0.82275678386E+03  0.87763409158E+03  0.29882751636E+03 0.  0.
         13    1    3    3    0    0 -0.56450936127E+02 -0.99314690824E+02 -0.17545423775E+03  0.20936643844E+03  0.00000000000E+00 0.  1.
          3    1    3    3  501    0  0.11705570589E+03  0.11780930244E+03 -0.64730254612E+03  0.66826765314E+03  0.00000000000E+00 0.  1.
         21    1    1    2  502  501 -0.60604769759E+02 -0.18494611615E+02 -0.14310418427E+03  0.15650494028E+03  0.00000000000E+00 0.  1.
<mgrwt>
<rscale>  1 0.30000000E+03</rscale>
<asrwt>0</asrwt>
<pdfrwt beam="1">  1        1 0.12414220E+00 0.30000000E+03</pdfrwt>
<pdfrwt beam="2">0</pdfrwt>
<totfact> 0.24642679E+01</totfact>
</mgrwt>
</event>
<event>
 6    1  0.1929825E-004  0.3000000E+03  0.7818608E-02  0.1093470E+00
          1   -1    0    0  502    0  0.00000000000E+00  0.00000000000E+00  0.33692035372E+02  0.33692035372E+02  0.00000000000E+00 0.  1.
         13   -1    0    0    0    0 -0.00000000000E+00 -0.00000000000E+00 -0.10000000000E+04  0.10000000000E+04  0.00000000000E+00 0.  1.
    9000005    2    1    2  501    0 -0.89858313411E+01 -0.18568406214E+02 -0.96079537216E+03  0.10123397627E+04  0.31824285856E+03 0.  0.
         13    1    3    3    0    0  0.13554997157E+03 -0.84799394965E+02 -0.48904893756E+03  0.51452268707E+03  0.00000000000E+00 0.  1.
          1    1    3    3  501    0 -0.14453580291E+03  0.66230988751E+02 -0.47174643460E+03  0.49781707559E+03  0.00000000000E+00 0.  1.
         21    1    1    2  502  501  0.89858313411E+01  0.18568406214E+02 -0.55125924682E+01  0.21352272712E+02  0.00000000000E+00 0.  1.
<mgrwt>
<rscale>  1 0.30000000E+03</rscale>
<asrwt>0</asrwt>
<pdfrwt beam="1">  1        1 0.12251675E+00 0.30000000E+03</pdfrwt>
<pdfrwt beam="2">0</pdfrwt>
<totfact> 0.25162458E+01</totfact>
</mgrwt>
</event>
<event>
 6    1  0.1929825E-004  0.3000000E+03  0.7818608E-02  0.1093470E+00
          1   -1    0    0  502    0  0.00000000000E+00  0.00000000000E+00  0.31227090383E+02  0.31227090383E+02  0.00000000000E+00 0.  1.
         13   -1    0    0    0    0 -0.00000000000E+00 -0.00000000000E+00 -0.10000000000E+04  0.10000000000E+04  0.00000000000E+00 0.  1.
    9000005    2    1    2  501    0  0.12176447945E+02 -0.31371574767E+02 -0.93107938709E+03  0.98069746315E+03  0.30614742784E+03 0.  0.
         13    1    3    3    0    0 -0.61670928304E+00 -0.15654754916E+03 -0.70291846812E+03  0.72014018656E+03  0.00000000000E+00 0.  1.
          1    1    3    3  501    0  0.12793157228E+02  0.12517597439E+03 -0.22816091897E+03  0.26055727659E+03  0.00000000000E+00 0.  1.
         21    1    1    2  502  501 -0.12176447945E+02  0.31371574767E+02 -0.37693522528E+02  0.50529627235E+02  0.00000000000E+00 0.  1.
<mgrwt>
<rscale>  1 0.30000000E+03</rscale>
<asrwt>0</asrwt>
<pdfrwt beam="1">  1        1 0.11355330E+00 0.30000000E+03</pdfrwt>
<pdfrwt beam="2">0</pdfrwt>
<totfact> 0.28309435E+01</totfact>
</mgrwt>
</event>
<event>
 6    1  0.1929825E-004  0.3000000E+03  0.7818608E-02  0.1093470E+00
          1   -1    0    0  502    0  0.00000000000E+00  0.00000000000E+00  0.29929711324E+02  0.29929711324E+02  0.00000000000E+00 0.  1.
         13   -1    0    0    0    0 -0.00000000000E+00 -0.00000000000E+00 -0.10000000000E+04  0.10000000000E+04  0.00000000000E+00 0.  1.
    9000005    2    1    2  501    0  0.68973295387E+01 -0.79075855540E+01 -0.96703444965E+03  0.10190063701E+04  0.32110473760E+03 0.  0.
         13    1    3    3    0    0 -0.57213891413E+02  0.63557375773E+02 -0.54436317329E+02  0.10137199825E+03  0.00000000000E+00 0.  1.
          3    1    3    3  501    0  0.64111220951E+02 -0.71464961327E+02 -0.91259813232E+03  0.91763437188E+03  0.00000000000E+00 0.  1.
         21    1    1    2  502  501 -0.68973295387E+01  0.79075855540E+01 -0.30358390285E+01  0.10923341186E+02  0.00000000000E+00 0.  1.
<mgrwt>
<rscale>  1 0.30000000E+03</rscale>
<asrwt>0</asrwt>
<pdfrwt beam="1">  1        1 0.10883554E+00 0.30000000E+03</pdfrwt>
<pdfrwt beam="2">0</pdfrwt>
<totfact> 0.30189889E+01</totfact>
</mgrwt>
</event>
<event>
 6    1  0.1929825E-004  0.3000000E+03  0.7818608E-02  0.1093470E+00
          1   -1    0    0  502    0  0.00000000000E+00  0.00000000000E+00  0.32962636589E+02  0.32962636589E+02  0.00000000000E+00 0.  1.
         13   -1    0    0    0    0 -0.00000000000E+00 -0.00000000000E+00 -0.10000000000E+04  0.10000000000E+04  0.00000000000E+00 0.  1.
    9000005    2    1    2  501    0  0.61466090645E+01 -0.10948925701E+02 -0.96668545385E+03  0.10204014417E+04  0.32646695965E+03 0.  0.
         13    1    3    3    0    0 -0.15252239738E+03 -0.20539186991E+02 -0.62313741085E+03  0.64186071130E+03  0.00000000000E+00 0.  1.
          3    1    3    3  501    0  0.15866900645E+03  0.95902612899E+01 -0.34354804300E+03  0.37854073039E+03  0.00000000000E+00 0.  1.
         21    1    1    2  502  501 -0.61466090645E+01  0.10948925701E+02 -0.35190956600E+00  0.12561194901E+02  0.00000000000E+00 0. -1.
<mgrwt>
<rscale>  1 0.30000000E+03</rscale>
<asrwt>0</asrwt>
<pdfrwt beam="1">  1        1 0.11986439E+00 0.30000000E+03</pdfrwt>
<pdfrwt beam="2">0</pdfrwt>
<totfact> 0.26041974E+01</totfact>
</mgrwt>
</event>
<event>
 6    1  0.1929825E-004  0.3000000E+03  0.7818608E-02  0.1093470E+00
          1   -1    0    0  502    0  0.00000000000E+00  0.00000000000E+00  0.48470037001E+02  0.48470037001E+02  0.00000000000E+00 0.  1.
         13   -1    0    0    0    0 -0.00000000000E+00 -0.00000000000E+00 -0.10000000000E+04  0.10000000000E+04  0.00000000000E+00 0.  1.
    9000005    2    1    2  501    0  0.15754801893E+02  0.49984689300E+02 -0.94355374755E+03  0.99545774635E+03  0.31288299301E+03 0.  0.
         13    1    3    3    0    0  0.12247553886E+02  0.54918916971E+02 -0.96832451970E+03  0.96995797098E+03  0.00000000000E+00 0.  1.
          3    1    3    3  501    0  0.35072480066E+01 -0.49342276708E+01  0.24770772148E+02  0.25499775374E+02  0.00000000000E+00 0.  1.
         21    1    1    2  502  501 -0.15754801893E+02 -0.49984689300E+02 -0.79762154521E+01  0.53012290651E+02  0.00000000000E+00 0.  1.
<mgrwt>
<rscale>  1 0.30000000E+03</rscale>
<asrwt>0</asrwt>
<pdfrwt beam="1">  1        1 0.17625505E+00 0.30000000E+03</pdfrwt>
<pdfrwt beam="2">0</pdfrwt>
<totfact> 0.13319563E+01</totfact>
</mgrwt>
</event>
<event>
 6    1  0.1929825E-004  0.3000000E+03  0.7818608E-02  0.1093470E+00
          1   -1    0    0  502    0  0.00000000000E+00  0.00000000000E+00  0.28973973201E+02  0.28973973201E+02  0.00000000000E+00 0.  1.
         13   -1    0    0    0    0 -0.00000000000E+00 -0.00000000000E+00 -0.10000000000E+04  0.10000000000E+04  0.00000000000E+00 0.  1.
    9000005    2    1    2  501    0 -0.83715075348E+01 -0.41153258300E+01 -0.95064560224E+03  0.10065601438E+04  0.33067997203E+03 0.  0.
         13    1    3    3    0    0  0.97503018614E+02 -0.70852111033E+02 -0.80738564140E+03  0.81633230624E+03  0.00000000000E+00 0.  1.
          3    1    3    3  501    0 -0.10587452615E+03  0.66736785203E+02 -0.14325996084E+03  0.19022783752E+03  0.00000000000E+00 0.  1.
         21    1    1    2  502  501  0.83715075348E+01  0.41153258300E+01 -0.20380424555E+02  0.22413829439E+02  0.00000000000E+00 0.  1.
<mgrwt>
<rscale>  1 0.30000000E+03</rscale>
<asrwt>0</asrwt>
<pdfrwt beam="1">  1        1 0.10536012E+00 0.30000000E+03</pdfrwt>
<pdfrwt beam="2">0</pdfrwt>
<totfact> 0.31691067E+01</totfact>
</mgrwt>
</event>
<event>
 6    1  0.1929825E-004  0.3000000E+03  0.7818608E-02  0.1093470E+00
          1   -1    0    0  502    0  0.00000000000E+00  0.00000000000E+00  0.35078818600E+02  0.35078818600E+02  0.00000000000E+00 0.  1.
         13   -1    0    0    0    0 -0.00000000000E+00 -0.00000000000E+00 -0.10000000000E+04  0.10000000000E+04  0.00000000000E+00 0.  1.
    9000005    2    1    2  501    0 -0.49637063410E+00 -0.14061244239E+02 -0.96365842670E+03  0.10209522648E+04  0.33690948139E+03 0.  0.
         13    1    3    3    0    0  0.56450635169E+02 -0.16549701421E+03 -0.47124304398E+03  0.50263897821E+03  0.00000000000E+00 0.  1.
          3    1    3    3  501    0 -0.56947005803E+02  0.15143576997E+03 -0.49241538272E+03  0.51831328657E+03  0.00000000000E+00 0.  1.
         21    1    1    2  502  501  0.49637063410E+00  0.14061244239E+02 -0.12627547050E+01  0.14126553819E+02  0.00000000000E+00 0. -1.
<mgrwt>
<rscale>  1 0.30000000E+03</rscale>
<asrwt>0</asrwt>
<pdfrwt beam="1">  1        1 0.12755961E+00 0.30000000E+03</pdfrwt>
<pdfrwt beam="2">0</pdfrwt>
<totfact> 0.23593896E+01</totfact>
</mgrwt>
</event>
<event>
 6    1  0.1929825E-004  0.3000000E+03  0.7818608E-02  0.1093470E+00
          1   -1    0    0  502    0  0.00000000000E+00  0.00000000000E+00  0.43542129642E+02  0.43542129642E+02  0.00000000000E+00 0.  1.
         13   -1    0    0    0    0 -0.00000000000E+00 -0.00000000000E+00 -0.10000000000E+04  0.10000000000E+04  0.00000000000E+00 0.  1.
    9000005    2    1    2  501    0 -0.54457520723E+02  0.40703703551E+02 -0.87681773685E+03  0.93882840603E+03  0.32858335211E+03 0.  0.
         13    1    3    3    0    0 -0.15893477593E+03 -0.76393283873E+02 -0.40915851108E+03  0.44554111372E+03  0.00000000000E+00 0.  1.
          3    1    3    3  501    0  0.10447725521E+03  0.11709698742E+03 -0.46765922576E+03  0.49328729232E+03  0.00000000000E+00 0.  1.
         21    1    1    2  502  501  0.54457520723E+02 -0.40703703551E+02 -0.79640133511E+02  0.10471372361E+03  0.00000000000E+00 0. -1.
<mgrwt>
<rscale>  1 0.30000000E+03</rscale>
<asrwt>0</asrwt>
<pdfrwt beam="1">  1        1 0.15833535E+00 0.30000000E+03</pdfrwt>
<pdfrwt beam="2">0</pdfrwt>
<totfact> 0.16311188E+01</totfact>
</mgrwt>
</event>
<event>
 6    1  0.1929825E-004  0.3000000E+03  0.7818608E-02  0.1093470E+00
          1   -1    0    0  502    0  0.00000000000E+00  0.00000000000E+00  0.59239560785E+02  0.59239560785E+02  0.00000000000E+00 0.  1.
         13   -1    0    0    0    0 -0.00000000000E+00 -0.00000000000E+00 -0.10000000000E+04  0.10000000000E+04  0.00000000000E+00 0.  1.
    9000005    2    1    2  501    0 -0.37980958431E+01 -0.14499580700E+02 -0.97132599822E+03  0.10251966941E+04  0.32761166565E+03 0.  0.
         13    1    3    3    0    0  0.75691191757E+02  0.64766867955E+02 -0.86454278080E+03  0.87026324956E+03  0.00000000000E+00 0.  1.
          1    1    3    3  501    0 -0.79489287600E+02 -0.79266448655E+02 -0.10678321742E+03  0.15493344457E+03  0.00000000000E+00 0.  1.
         21    1    1    2  502  501  0.37980958431E+01  0.14499580700E+02  0.30565559006E+02  0.34042866651E+02  0.00000000000E+00 0.  1.
<mgrwt>
<rscale>  1 0.30000000E+03</rscale>
<asrwt>0</asrwt>
<pdfrwt beam="1">  1        1 0.21541704E+00 0.30000000E+03</pdfrwt>
<pdfrwt beam="2">0</pdfrwt>
<totfact> 0.86617728E+00</totfact>
</mgrwt>
</event>
<event>
 6    1  0.1929825E-004  0.3000000E+03  0.7818608E-02  0.1093470E+00
          3   -1    0    0  502    0  0.00000000000E+00  0.00000000000E+00  0.31644652152E+02  0.31644652152E+02  0.00000000000E+00 0.  1.
         13   -1    0    0    0    0 -0.00000000000E+00 -0.00000000000E+00 -0.10000000000E+04  0.10000000000E+04  0.00000000000E+00 0.  1.
    9000005    2    1    2  501    0  0.53128119833E+01 -0.26531602677E+02 -0.89508389837E+03  0.95353666780E+03  0.32760470051E+03 0.  0.
         13    1    3    3    0    0  0.15700762466E+03 -0.45305442285E+02 -0.59130226912E+03  0.61346748142E+03  0.00000000000E+00 0.  1.
          3    1    3    3  501    0 -0.15169481268E+03  0.18773839609E+02 -0.30378162926E+03  0.34006918637E+03  0.00000000000E+00 0.  1.
         21    1    1    2  502  501 -0.53128119833E+01  0.26531602677E+02 -0.73271449474E+02  0.78107984354E+02  0.00000000000E+00 0. -1.
<mgrwt>
<rscale>  1 0.30000000E+03</rscale>
<asrwt>0</asrwt>
<pdfrwt beam="1">  1        3 0.11507171E+00 0.30000000E+03</pdfrwt>
<pdfrwt beam="2">0</pdfrwt>
<totfact> 0.26368822E+00</totfact>
</mgrwt>
</event>
<event>
 6    1  0.1929825E-004  0.3000000E+03  0.7818608E-02  0.1093470E+00
          1   -1    0    0  502    0  0.00000000000E+00  0.00000000000E+00  0.44454179033E+02  0.44454179033E+02  0.00000000000E+00 0.  1.
         13   -1    0    0    0    0 -0.00000000000E+00 -0.00000000000E+00 -0.10000000000E+04  0.10000000000E+04  0.00000000000E+00 0.  1.
    9000005    2    1    2  501    0 -0.62704400439E+02 -0.51878302460E+02 -0.84078469066E+03  0.90376545479E+03  0.32132522640E+03 0.  0.
         13    1    3    3    0    0  0.52413730326E+02 -0.91590316393E+02 -0.77754823713E+02  0.13107935686E+03  0.00000000000E+00 0.  1.
          1    1    3    3  501    0 -0.11511813076E+03  0.39712013932E+02 -0.76302986695E+03  0.77268609793E+03  0.00000000000E+00 0.  1.
         21    1    1    2  502  501  0.62704400439E+02  0.51878302460E+02 -0.11476113031E+03  0.14068872425E+03  0.00000000000E+00 0.  1.
<mgrwt>
<rscale>  1 0.30000000E+03</rscale>
<asrwt>0</asrwt>
<pdfrwt beam="1">  1        1 0.16165190E+00 0.30000000E+03</pdfrwt>
<pdfrwt beam="2">0</pdfrwt>
<totfact> 0.15703950E+01</totfact>
</mgrwt>
</event>
<event>
 6    1  0.1929825E-004  0.3000000E+03  0.7818608E-02  0.1093470E+00
          1   -1    0    0  502    0  0.00000000000E+00  0.00000000000E+00  0.37801107602E+02  0.37801107602E+02  0.00000000000E+00 0.  1.
         13   -1    0    0    0    0 -0.00000000000E+00 -0.00000000000E+00 -0.10000000000E+04  0.10000000000E+04  0.00000000000E+00 0.  1.
    9000005    2    1    2  501    0 -0.15306562031E+01  0.28456515202E+02 -0.93603628811E+03  0.99911521833E+03  0.34821713150E+03 0.  0.
         13    1    3    3    0    0 -0.34945411573E+02 -0.11033416299E+03 -0.77631610721E+03  0.78489585782E+03  0.00000000000E+00 0.  1.
          1    1    3    3  501    0  0.33414755370E+02  0.13879067819E+03 -0.15972018091E+03  0.21421936051E+03  0.00000000000E+00 0.  1.
         21    1    1    2  502  501  0.15306562031E+01 -0.28456515202E+02 -0.26162604284E+02  0.38685889272E+02  0.00000000000E+00 0. -1.
<mgrwt>
<rscale>  1 0.30000000E+03</rscale>
<asrwt>0</asrwt>
<pdfrwt beam="1">  1        1 0.13745886E+00 0.30000000E+03</pdfrwt>
<pdfrwt beam="2">0</pdfrwt>
<totfact> 0.20865343E+01</totfact>
</mgrwt>
</event>
<event>
 6    1  0.1929825E-004  0.3000000E+03  0.7818608E-02  0.1093470E+00
          1   -1    0    0  502    0  0.00000000000E+00  0.00000000000E+00  0.55774366491E+02  0.55774366491E+02  0.00000000000E+00 0.  1.
         13   -1    0    0    0    0 -0.00000000000E+00 -0.00000000000E+00 -0.10000000000E+04  0.10000000000E+04  0.00000000000E+00 0.  1.
    9000005    2    1    2  501    0  0.15439324052E+02 -0.96764067099E+01 -0.97107958098E+03  0.10233222469E+04  0.32227451459E+03 0.  0.
         13    1    3    3    0    0 -0.10894557619E+03 -0.18732489053E+02 -0.12001136247E+03  0.16316486092E+03  0.00000000000E+00 0.  1.
          1    1    3    3  501    0  0.12438490024E+03  0.90560823428E+01 -0.85106821851E+03  0.86015738594E+03  0.00000000000E+00 0.  1.
         21    1    1    2  502  501 -0.15439324052E+02  0.96764067099E+01  0.26853947467E+02  0.32452119631E+02  0.00000000000E+00 0.  1.
<mgrwt>
<rscale>  1 0.30000000E+03</rscale>
<asrwt>0</asrwt>
<pdfrwt beam="1">  1        1 0.20281631E+00 0.30000000E+03</pdfrwt>
<pdfrwt beam="2">0</pdfrwt>
<totfact> 0.99327320E+00</totfact>
</mgrwt>
</event>
<event>
 6    1  0.1929825E-004  0.3000000E+03  0.7818608E-02  0.1093470E+00
          1   -1    0    0  502    0  0.00000000000E+00  0.00000000000E+00  0.28147078541E+02  0.28147078541E+02  0.00000000000E+00 0.  1.
         13   -1    0    0    0    0 -0.00000000000E+00 -0.00000000000E+00 -0.10000000000E+04  0.10000000000E+04  0.00000000000E+00 0.  1.
    9000005    2    1    2  501    0 -0.50229684286E+01 -0.12706326010E+02 -0.97382773124E+03  0.10143419778E+04  0.28348283348E+03 0.  0.
         13    1    3    3    0    0 -0.29381660184E+02 -0.12392079209E+03 -0.23964493675E+03  0.27138411961E+03  0.00000000000E+00 0.  1.
          1    1    3    3  501    0  0.24358691755E+02  0.11121446608E+03 -0.73418279449E+03  0.74295785820E+03  0.00000000000E+00 0.  1.
         21    1    1    2  502  501  0.50229684286E+01  0.12706326010E+02  0.19748097838E+01  0.13805100731E+02  0.00000000000E+00 0. -1.
<mgrwt>
<rscale>  1 0.30000000E+03</rscale>
<asrwt>0</asrwt>
<pdfrwt beam="1">  1        1 0.10235323E+00 0.30000000E+03</pdfrwt>
<pdfrwt beam="2">0</pdfrwt>
<totfact> 0.33078435E+01</totfact>
</mgrwt>
</event>
<event>
 6    1  0.1929825E-004  0.3000000E+03  0.7818608E-02  0.1093470E+00
          1   -1    0    0  502    0  0.00000000000E+00  0.00000000000E+00  0.37391378042E+02  0.37391378042E+02  0.00000000000E+00 0.  1.
         13   -1    0    0    0    0 -0.00000000000E+00 -0.00000000000E+00 -0.10000000000E+04  0.10000000000E+04  0.00000000000E+00 0.  1.
    9000005    2    1    2  501    0 -0.16112891231E+01  0.22541356348E+02 -0.95956198671E+03  0.10145880672E+04  0.32881458420E+03 0.  0.
         13    1    3    3    0    0 -0.58811836147E+02 -0.14180518652E+03 -0.39365266621E+03  0.42252806370E+03  0.00000000000E+00 0.  1.
          1    1    3    3  501    0  0.57200547024E+02  0.16434654287E+03 -0.56590932050E+03  0.59206000351E+03  0.00000000000E+00 0.  1.
         21    1    1    2  502  501  0.16112891231E+01 -0.22541356348E+02 -0.30466352481E+01  0.22803310834E+02  0.00000000000E+00 0. -1.
<mgrwt>
<rscale>  1 0.30000000E+03</rscale>
<asrwt>0</asrwt>
<pdfrwt beam="1">  1        1 0.13596893E+00 0.30000000E+03</pdfrwt>
<pdfrwt beam="2">0</pdfrwt>
<totfact> 0.21248396E+01</totfact>
</mgrwt>
</event>
<event>
 6    1  0.1929825E-004  0.3000000E+03  0.7818608E-02  0.1093470E+00
          1   -1    0    0  502    0  0.00000000000E+00  0.00000000000E+00  0.29783240713E+02  0.29783240713E+02  0.00000000000E+00 0.  1.
         13   -1    0    0    0    0 -0.00000000000E+00 -0.00000000000E+00 -0.10000000000E+04  0.10000000000E+04  0.00000000000E+00 0.  1.
    9000005    2    1    2  501    0  0.26819341712E+01  0.12724091747E+02 -0.96074634152E+03  0.10136964730E+04  0.32307570539E+03 0.  0.
         13    1    3    3    0    0  0.15501775541E+03 -0.30964783098E+02 -0.37654357243E+03  0.40838019568E+03  0.00000000000E+00 0.  1.
          3    1    3    3  501    0 -0.15233582124E+03  0.43688874846E+02 -0.58420276909E+03  0.60531627735E+03  0.00000000000E+00 0.  1.
         21    1    1    2  502  501 -0.26819341712E+01 -0.12724091747E+02 -0.94704177673E+01  0.16086767680E+02  0.00000000000E+00 0. -1.
<mgrwt>
<rscale>  1 0.30000000E+03</rscale>
<asrwt>0</asrwt>
<pdfrwt beam="1">  1        1 0.10830292E+00 0.30000000E+03</pdfrwt>
<pdfrwt beam="2">0</pdfrwt>
<totfact> 0.30413246E+01</totfact>
</mgrwt>
</event>
<event>
 6    1  0.1929825E-004  0.3000000E+03  0.7818608E-02  0.1093470E+00
          1   -1    0    0  502    0  0.00000000000E+00  0.00000000000E+00  0.32477583854E+02  0.32477583854E+02  0.00000000000E+00 0.  1.
         13   -1    0    0    0    0 -0.00000000000E+00 -0.00000000000E+00 -0.10000000000E+04  0.10000000000E+04  0.00000000000E+00 0.  1.
    9000005    2    1    2  501    0  0.16114618879E+02 -0.10026719742E+02 -0.95490630713E+03  0.10096876243E+04  0.32751004136E+03 0.  0.
         13    1    3    3    0    0  0.49866292504E+02  0.14327112674E+03 -0.29927605151E+03  0.33552856495E+03  0.00000000000E+00 0.  1.
          3    1    3    3  501    0 -0.33751673625E+02 -0.15329784648E+03 -0.65563025562E+03  0.67415905934E+03  0.00000000000E+00 0.  1.
         21    1    1    2  502  501 -0.16114618879E+02  0.10026719742E+02 -0.12616109016E+02  0.22789959568E+02  0.00000000000E+00 0.  1.
<mgrwt>
<rscale>  1 0.30000000E+03</rscale>
<asrwt>0</asrwt>
<pdfrwt beam="1">  1        1 0.11810055E+00 0.30000000E+03</pdfrwt>
<pdfrwt beam="2">0</pdfrwt>
<totfact> 0.26649753E+01</totfact>
</mgrwt>
</event>
<event>
 6    1  0.1929825E-004  0.3000000E+03  0.7818608E-02  0.1093470E+00
          1   -1    0    0  502    0  0.00000000000E+00  0.00000000000E+00  0.31645154227E+02  0.31645154227E+02  0.00000000000E+00 0.  1.
         13   -1    0    0    0    0 -0.00000000000E+00 -0.00000000000E+00 -0.10000000000E+04  0.10000000000E+04  0.00000000000E+00 0.  1.
    9000005    2    1    2  501    0 -0.14953189244E+02 -0.66414498917E+01 -0.95033384363E+03  0.10073045864E+04  0.33355720447E+03 0.  0.
         13    1    3    3    0    0 -0.27335051581E+02  0.14897372926E+03 -0.27286587157E+03  0.31208358002E+03  0.00000000000E+00 0.  1.
          3    1    3    3  501    0  0.12381862337E+02 -0.15561517915E+03 -0.67746797206E+03  0.69522100635E+03  0.00000000000E+00 0.  1.
         21    1    1    2  502  501  0.14953189244E+02  0.66414498917E+01 -0.18021002142E+02  0.24340567854E+02  0.00000000000E+00 0. -1.
<mgrwt>
<rscale>  1 0.30000000E+03</rscale>
<asrwt>0</asrwt>
<pdfrwt beam="1">  1        1 0.11507353E+00 0.30000000E+03</pdfrwt>
<pdfrwt beam="2">0</pdfrwt>
<totfact> 0.27738908E+01</totfact>
</mgrwt>
</event>
<event>
 6    1  0.1929825E-004  0.3000000E+03  0.7818608E-02  0.1093470E+00
          1   -1    0    0  502    0  0.00000000000E+00  0.00000000000E+00  0.42693753444E+02  0.42693753444E+02  0.00000000000E+00 0.  1.
         13   -1    0    0    0    0 -0.00000000000E+00 -0.00000000000E+00 -0.10000000000E+04  0.10000000000E+04  0.00000000000E+00 0.  1.
    9000005    2    1    2  501    0 -0.24812510649E+02 -0.86562303191E+01 -0.96073580105E+03  0.10161918129E+04  0.33006352449E+03 0.  0.
         13    1    3    3    0    0 -0.11076440931E+03 -0.56810764182E+02 -0.13132051140E+03  0.18094555538E+03  0.00000000000E+00 0.  1.
          3    1    3    3  501    0  0.85951898663E+02  0.48154533863E+02 -0.82941528965E+03  0.83524625753E+03  0.00000000000E+00 0.  1.
         21    1    1    2  502  501  0.24812510649E+02  0.86562303191E+01  0.34295544919E+01  0.26501940534E+02  0.00000000000E+00 0.  1.
<mgrwt>
<rscale>  1 0.30000000E+03</rscale>
<asrwt>0</asrwt>
<pdfrwt beam="1">  1        1 0.15525034E+00 0.30000000E+03</pdfrwt>
<pdfrwt beam="2">0</pdfrwt>
<totfact> 0.16900977E+01</totfact>
</mgrwt>
</event>
<event>
 6    1  0.1929825E-004  0.3000000E+03  0.7818608E-02  0.1093470E+00
          1   -1    0    0  502    0  0.00000000000E+00  0.00000000000E+00  0.44370132519E+02  0.44370132519E+02  0.00000000000E+00 0.  1.
         13   -1    0    0    0    0 -0.00000000000E+00 -0.00000000000E+00 -0.10000000000E+04  0.10000000000E+04  0.00000000000E+00 0.  1.
    9000005    2    1    2  501    0 -0.59985596030E+01  0.11817234234E+02 -0.96985695963E+03  0.10249268845E+04  0.33117512996E+03 0.  0.
         13    1    3    3    0    0 -0.40548198584E+02  0.78554115763E+02 -0.93986500472E+03  0.94401331167E+03  0.00000000000E+00 0.  1.
          3    1    3    3  501    0  0.34549638981E+02 -0.66736881529E+02 -0.29991954905E+02  0.80913572835E+02  0.00000000000E+00 0.  1.
         21    1    1    2  502  501  0.59985596030E+01 -0.11817234234E+02  0.14227092147E+02  0.19443248011E+02  0.00000000000E+00 0.  1.
<mgrwt>
<rscale>  1 0.30000000E+03</rscale>
<asrwt>0</asrwt>
<pdfrwt beam="1">  1        1 0.16134628E+00 0.30000000E+03</pdfrwt>
<pdfrwt beam="2">0</pdfrwt>
<totfact> 0.15758795E+01</totfact>
</mgrwt>
</event>
<event>
 6    1  0.1929825E-004  0.3000000E+03  0.7818608E-02  0.1093470E+00
          3   -1    0    0  502    0  0.00000000000E+00  0.00000000000E+00  0.37740429983E+02  0.37740429983E+02  0.00000000000E+00 0.  1.
         13   -1    0    0    0    0 -0.00000000000E+00 -0.00000000000E+00 -0.10000000000E+04  0.10000000000E+04  0.00000000000E+00 0.  1.
    9000005    2    1    2  501    0  0.68346267364E+01  0.65839981881E+01 -0.95666937787E+03  0.10267262844E+04  0.37263991112E+03 0.  0.
         13    1    3    3    0    0  0.15819363838E+03  0.93488713491E+02 -0.63132585441E+03  0.65752391685E+03  0.00000000000E+00 0.  1.
          1    1    3    3  501    0 -0.15135901164E+03 -0.86904715303E+02 -0.32534352346E+03  0.36920236755E+03  0.00000000000E+00 0.  1.
         21    1    1    2  502  501 -0.68346267364E+01 -0.65839981881E+01 -0.55901921449E+01  0.11014145586E+02  0.00000000000E+00 0. -1.
<mgrwt>
<rscale>  1 0.30000000E+03</rscale>
<asrwt>0</asrwt>
<pdfrwt beam="1">  1        3 0.13723822E+00 0.30000000E+03</pdfrwt>
<pdfrwt beam="2">0</pdfrwt>
<totfact> 0.14495206E+00</totfact>
</mgrwt>
</event>
<event>
 6    1  0.1929825E-004  0.3000000E+03  0.7818608E-02  0.1093470E+00
          1   -1    0    0  502    0  0.00000000000E+00  0.00000000000E+00  0.29536978673E+02  0.29536978673E+02  0.00000000000E+00 0.  1.
         13   -1    0    0    0    0 -0.00000000000E+00 -0.00000000000E+00 -0.10000000000E+04  0.10000000000E+04  0.00000000000E+00 0.  1.
    9000005    2    1    2  501    0  0.15941723538E+02  0.17963912898E+02 -0.92349799344E+03  0.97678705393E+03  0.31731303805E+03 0.  0.
         13    1    3    3    0    0  0.93585544571E+02  0.14010047157E+03 -0.40958582321E+03  0.44288479638E+03  0.00000000000E+00 0.  1.
          3    1    3    3  501    0 -0.77643821032E+02 -0.12213655867E+03 -0.51391217023E+03  0.53390225756E+03  0.00000000000E+00 0.  1.
         21    1    1    2  502  501 -0.15941723538E+02 -0.17963912898E+02 -0.46965027883E+02  0.52749924740E+02  0.00000000000E+00 0. -1.
<mgrwt>
<rscale>  1 0.30000000E+03</rscale>
<asrwt>0</asrwt>
<pdfrwt beam="1">  1        1 0.10740742E+00 0.30000000E+03</pdfrwt>
<pdfrwt beam="2">0</pdfrwt>
<totfact> 0.30794137E+01</totfact>
</mgrwt>
</event>
<event>
 6    1  0.1929825E-004  0.3000000E+03  0.7818608E-02  0.1093470E+00
          1   -1    0    0  502    0  0.00000000000E+00  0.00000000000E+00  0.55615222140E+02  0.55615222140E+02  0.00000000000E+00 0.  1.
         13   -1    0    0    0    0 -0.00000000000E+00 -0.00000000000E+00 -0.10000000000E+04  0.10000000000E+04  0.00000000000E+00 0.  1.
    9000005    2    1    2  501    0 -0.94925679836E+01  0.28699518165E+02 -0.96388483203E+03  0.10196426868E+04  0.33118494538E+03 0.  0.
         13    1    3    3    0    0 -0.12255531784E+03 -0.92089186046E+02 -0.61038884443E+03  0.62934471120E+03  0.00000000000E+00 0.  1.
          3    1    3    3  501    0  0.11306274985E+03  0.12078870421E+03 -0.35349598760E+03  0.39029797555E+03  0.00000000000E+00 0.  1.
         21    1    1    2  502  501  0.94925679836E+01 -0.28699518165E+02  0.19500054165E+02  0.35972535388E+02  0.00000000000E+00 0. -1.
<mgrwt>
<rscale>  1 0.30000000E+03</rscale>
<asrwt>0</asrwt>
<pdfrwt beam="1">  1        1 0.20223760E+00 0.30000000E+03</pdfrwt>
<pdfrwt beam="2">0</pdfrwt>
<totfact> 0.99957455E+00</totfact>
</mgrwt>
</event>
<event>
 6    1  0.1929825E-004  0.3000000E+03  0.7818608E-02  0.1093470E+00
          1   -1    0    0  502    0  0.00000000000E+00  0.00000000000E+00  0.43369655008E+02  0.43369655008E+02  0.00000000000E+00 0.  1.
         13   -1    0    0    0    0 -0.00000000000E+00 -0.00000000000E+00 -0.10000000000E+04  0.10000000000E+04  0.00000000000E+00 0.  1.
    9000005    2    1    2  501    0  0.27072521169E+02  0.49115362874E+02 -0.91649549238E+03  0.97440555807E+03  0.32612415391E+03 0.  0.
         13    1    3    3    0    0  0.16733421942E+03  0.75389623278E+02 -0.43299419038E+03  0.47028534444E+03  0.00000000000E+00 0.  1.
          3    1    3    3  501    0 -0.14026169825E+03 -0.26274260404E+02 -0.48350130200E+03  0.50412021363E+03  0.00000000000E+00 0.  1.
         21    1    1    2  502  501 -0.27072521169E+02 -0.49115362874E+02 -0.40134852610E+02  0.68964096940E+02  0.00000000000E+00 0.  1.
<mgrwt>
<rscale>  1 0.30000000E+03</rscale>
<asrwt>0</asrwt>
<pdfrwt beam="1">  1        1 0.15770817E+00 0.30000000E+03</pdfrwt>
<pdfrwt beam="2">0</pdfrwt>
<totfact> 0.16429089E+01</totfact>
</mgrwt>
</event>
<event>
 6    1  0.1929825E-004  0.3000000E+03  0.7818608E-02  0.1093470E+00
          1   -1    0    0  502    0  0.00000000000E+00  0.00000000000E+00  0.57456808557E+02  0.57456808557E+02  0.00000000000E+00 0.  1.
         13   -1    0    0    0    0 -0.00000000000E+00 -0.00000000000E+00 -0.10000000000E+04  0.10000000000E+04  0.00000000000E+00 0.  1.
    9000005    2    1    2  501    0 -0.26865475663E+02  0.13943687061E+02 -0.96609292331E+03  0.10191061885E+04  0.32299490193E+03 0.  0.
         13    1    3    3    0    0 -0.62997240199E+02  0.47351921616E+01 -0.12024123016E+02  0.64309049533E+02  0.00000000000E+00 0.  1.
          3    1    3    3  501    0  0.36131764536E+02  0.92084948992E+01 -0.95406880030E+03  0.95479713892E+03  0.00000000000E+00 0.  1.
         21    1    1    2  502  501  0.26865475663E+02 -0.13943687061E+02  0.23549731869E+02  0.38350620107E+02  0.00000000000E+00 0.  1.
<mgrwt>
<rscale>  1 0.30000000E+03</rscale>
<asrwt>0</asrwt>
<pdfrwt beam="1">  1        1 0.20893429E+00 0.30000000E+03</pdfrwt>
<pdfrwt beam="2">0</pdfrwt>
<totfact> 0.92922000E+00</totfact>
</mgrwt>
</event>
<event>
 6    1  0.1929825E-004  0.3000000E+03  0.7818608E-02  0.1093470E+00
          1   -1    0    0  502    0  0.00000000000E+00  0.00000000000E+00  0.41154297643E+02  0.41154297643E+02  0.00000000000E+00 0.  1.
         13   -1    0    0    0    0 -0.00000000000E+00 -0.00000000000E+00 -0.10000000000E+04  0.10000000000E+04  0.00000000000E+00 0.  1.
    9000005    2    1    2  501    0  0.31228182563E+01  0.10450106831E+02 -0.97104461842E+03  0.10247906098E+04  0.32733650307E+03 0.  0.
         13    1    3    3    0    0  0.11979211739E+03 -0.61297210369E+02 -0.76908196166E+03  0.78076537010E+03  0.00000000000E+00 0.  1.
          1    1    3    3  501    0 -0.11666929914E+03  0.71747317200E+02 -0.20196265676E+03  0.24402523970E+03  0.00000000000E+00 0.  1.
         21    1    1    2  502  501 -0.31228182563E+01 -0.10450106831E+02  0.12198916065E+02  0.16363687843E+02  0.00000000000E+00 0. -1.
<mgrwt>
<rscale>  1 0.30000000E+03</rscale>
<asrwt>0</asrwt>
<pdfrwt beam="1">  1        1 0.14965231E+00 0.30000000E+03</pdfrwt>
<pdfrwt beam="2">0</pdfrwt>
<totfact> 0.18038273E+01</totfact>
</mgrwt>
</event>
<event>
 6    1  0.1929825E-004  0.3000000E+03  0.7818608E-02  0.1093470E+00
          1   -1    0    0  502    0  0.00000000000E+00  0.00000000000E+00  0.33655687338E+02  0.33655687338E+02  0.00000000000E+00 0.  1.
         13   -1    0    0    0    0 -0.00000000000E+00 -0.00000000000E+00 -0.10000000000E+04  0.10000000000E+04  0.00000000000E+00 0.  1.
    9000005    2    1    2  501    0 -0.30888894635E+02 -0.23331341765E+02 -0.85808169330E+03  0.91868060277E+03  0.32583950376E+03 0.  0.
         13    1    3    3    0    0 -0.13915003962E+03  0.64246228332E+02 -0.23743898412E+03  0.28260853236E+03  0.00000000000E+00 0.  1.
          1    1    3    3  501    0  0.10826114499E+03 -0.87577570097E+02 -0.62064270918E+03  0.63607207041E+03  0.00000000000E+00 0.  1.
         21    1    1    2  502  501  0.30888894635E+02  0.23331341765E+02 -0.10826261936E+03  0.11497508456E+03  0.00000000000E+00 0. -1.
<mgrwt>
<rscale>  1 0.30000000E+03</rscale>
<asrwt>0</asrwt>
<pdfrwt beam="1">  1        1 0.12238458E+00 0.30000000E+03</pdfrwt>
<pdfrwt beam="2">0</pdfrwt>
<totfact> 0.25205350E+01</totfact>
</mgrwt>
</event>
<event>
 6    1  0.1929825E-004  0.3000000E+03  0.7818608E-02  0.1093470E+00
          1   -1    0    0  502    0  0.00000000000E+00  0.00000000000E+00  0.64009324822E+02  0.64009324822E+02  0.00000000000E+00 0.  1.
         13   -1    0    0    0    0 -0.00000000000E+00 -0.00000000000E+00 -0.10000000000E+04  0.10000000000E+04  0.00000000000E+00 0.  1.
    9000005    2    1    2  501    0  0.10774282300E+02 -0.10542723416E+02 -0.96719865583E+03  0.10293513931E+04  0.35194291640E+03 0.  0.
         13    1    3    3    0    0  0.78215409224E+02 -0.16465028911E+03 -0.45141972038E+03  0.48683378261E+03  0.00000000000E+00 0.  1.
          1    1    3    3  501    0 -0.67441126924E+02  0.15410756570E+03 -0.51577893546E+03  0.54251761047E+03  0.00000000000E+00 0.  1.
         21    1    1    2  502  501 -0.10774282300E+02  0.10542723416E+02  0.31207980656E+02  0.34657931744E+02  0.00000000000E+00 0. -1.
<mgrwt>
<rscale>  1 0.30000000E+03</rscale>
<asrwt>0</asrwt>
<pdfrwt beam="1">  1        1 0.23276167E+00 0.30000000E+03</pdfrwt>
<pdfrwt beam="2">0</pdfrwt>
<totfact> 0.71834078E+00</totfact>
</mgrwt>
</event>
<event>
 6    1  0.1929825E-004  0.3000000E+03  0.7818608E-02  0.1093470E+00
          1   -1    0    0  502    0  0.00000000000E+00  0.00000000000E+00  0.39611026217E+02  0.39611026217E+02  0.00000000000E+00 0.  1.
         13   -1    0    0    0    0 -0.00000000000E+00 -0.00000000000E+00 -0.10000000000E+04  0.10000000000E+04  0.00000000000E+00 0.  1.
    9000005    2    1    2  501    0  0.38395406186E+02  0.26814954349E+02 -0.92255514662E+03  0.97940598099E+03  0.32547630951E+03 0.  0.
         13    1    3    3    0    0  0.14263281279E+03  0.11578470298E+03 -0.63188317637E+03  0.65804754031E+03  0.00000000000E+00 0.  1.
          3    1    3    3  501    0 -0.10423740660E+03 -0.88969748636E+02 -0.29067197025E+03  0.32135844068E+03  0.00000000000E+00 0.  1.
         21    1    1    2  502  501 -0.38395406186E+02 -0.26814954349E+02 -0.37833827161E+02  0.60205045226E+02  0.00000000000E+00 0.  1.
<mgrwt>
<rscale>  1 0.30000000E+03</rscale>
<asrwt>0</asrwt>
<pdfrwt beam="1">  1        1 0.14404040E+00 0.30000000E+03</pdfrwt>
<pdfrwt beam="2">0</pdfrwt>
<totfact> 0.19275056E+01</totfact>
</mgrwt>
</event>
<event>
 6    1  0.1929825E-004  0.3000000E+03  0.7818608E-02  0.1093470E+00
          1   -1    0    0  502    0  0.00000000000E+00  0.00000000000E+00  0.29244008454E+02  0.29244008454E+02  0.00000000000E+00 0.  1.
         13   -1    0    0    0    0 -0.00000000000E+00 -0.00000000000E+00 -0.10000000000E+04  0.10000000000E+04  0.00000000000E+00 0.  1.
    9000005    2    1    2  501    0 -0.13605113888E+02  0.65391288707E+01 -0.95319054865E+03  0.10060836087E+04  0.32156515114E+03 0.  0.
         13    1    3    3    0    0  0.10728710456E+03  0.11022381447E+03 -0.35171457199E+03  0.38387882493E+03  0.00000000000E+00 0.  1.
          3    1    3    3  501    0 -0.12089221844E+03 -0.10368468560E+03 -0.60147597666E+03  0.62220478381E+03  0.00000000000E+00 0.  1.
         21    1    1    2  502  501  0.13605113888E+02 -0.65391288707E+01 -0.17565442899E+02  0.23160399706E+02  0.00000000000E+00 0.  1.
<mgrwt>
<rscale>  1 0.30000000E+03</rscale>
<asrwt>0</asrwt>
<pdfrwt beam="1">  1        1 0.10634207E+00 0.30000000E+03</pdfrwt>
<pdfrwt beam="2">0</pdfrwt>
<totfact> 0.31256243E+01</totfact>
</mgrwt>
</event>
<event>
 6    1  0.1929825E-004  0.3000000E+03  0.7818608E-02  0.1093470E+00
          1   -1    0    0  502    0  0.00000000000E+00  0.00000000000E+00  0.29762543172E+02  0.29762543172E+02  0.00000000000E+00 0.  1.
         13   -1    0    0    0    0 -0.00000000000E+00 -0.00000000000E+00 -0.10000000000E+04  0.10000000000E+04  0.00000000000E+00 0.  1.
    9000005    2    1    2  501    0 -0.98265761237E+01 -0.45109705422E+01 -0.96350607358E+03  0.10170259041E+04  0.32539333952E+03 0.  0.
         13    1    3    3    0    0  0.20193459063E+02  0.15716320283E+03 -0.53807627724E+03  0.56092256884E+03  0.00000000000E+00 0.  1.
          1    1    3    3  501    0 -0.30020035186E+02 -0.16167417337E+03 -0.42542979634E+03  0.45610333529E+03  0.00000000000E+00 0.  1.
         21    1    1    2  502  501  0.98265761237E+01  0.45109705422E+01 -0.67313832465E+01  0.12736639037E+02  0.00000000000E+00 0.  1.
<mgrwt>
<rscale>  1 0.30000000E+03</rscale>
<asrwt>0</asrwt>
<pdfrwt beam="1">  1        1 0.10822766E+00 0.30000000E+03</pdfrwt>
<pdfrwt beam="2">0</pdfrwt>
<totfact> 0.30444998E+01</totfact>
</mgrwt>
</event>
<event>
 6    1  0.1929825E-004  0.3000000E+03  0.7818608E-02  0.1093470E+00
          1   -1    0    0  502    0  0.00000000000E+00  0.00000000000E+00  0.42464103096E+02  0.42464103096E+02  0.00000000000E+00 0.  1.
         13   -1    0    0    0    0 -0.00000000000E+00 -0.00000000000E+00 -0.10000000000E+04  0.10000000000E+04  0.00000000000E+00 0.  1.
    9000005    2    1    2  501    0 -0.35163853480E+02 -0.16812701152E+02 -0.94527187067E+03  0.10016037329E+04  0.32886466032E+03 0.  0.
         13    1    3    3    0    0 -0.17825482850E+03  0.27730798519E+02 -0.47928404629E+03  0.51211031829E+03  0.00000000000E+00 0.  1.
          3    1    3    3  501    0  0.14309097502E+03 -0.44543499670E+02 -0.46598782438E+03  0.48949341463E+03  0.00000000000E+00 0.  1.
         21    1    1    2  502  501  0.35163853480E+02  0.16812701152E+02 -0.12264026237E+02  0.40860370178E+02  0.00000000000E+00 0. -1.
<mgrwt>
<rscale>  1 0.30000000E+03</rscale>
<asrwt>0</asrwt>
<pdfrwt beam="1">  1        1 0.15441525E+00 0.30000000E+03</pdfrwt>
<pdfrwt beam="2">0</pdfrwt>
<totfact> 0.17064987E+01</totfact>
</mgrwt>
</event>
<event>
 6    1  0.1929825E-004  0.3000000E+03  0.7818608E-02  0.1093470E+00
          3   -1    0    0  502    0  0.00000000000E+00  0.00000000000E+00  0.32964808500E+02  0.32964808500E+02  0.00000000000E+00 0.  1.
         13   -1    0    0    0    0 -0.00000000000E+00 -0.00000000000E+00 -0.10000000000E+04  0.10000000000E+04  0.00000000000E+00 0.  1.
    9000005    2    1    2  501    0 -0.81979535805E+01  0.98464843175E+01 -0.97129167120E+03  0.10194637968E+04  0.30941034699E+03 0.  0.
         13    1    3    3    0    0  0.95922904225E+02 -0.10420361070E+02 -0.90435130223E+02  0.13224333729E+03  0.00000000000E+00 0.  1.
          1    1    3    3  501    0 -0.10412085781E+03  0.20266845387E+02 -0.88085654098E+03  0.88722045955E+03  0.00000000000E+00 0.  1.
         21    1    1    2  502  501  0.81979535805E+01 -0.98464843175E+01  0.42564797047E+01  0.13501011658E+02  0.00000000000E+00 0.  1.
<mgrwt>
<rscale>  1 0.30000000E+03</rscale>
<asrwt>0</asrwt>
<pdfrwt beam="1">  1        3 0.11987228E+00 0.30000000E+03</pdfrwt>
<pdfrwt beam="2">0</pdfrwt>
<totfact> 0.23208849E+00</totfact>
</mgrwt>
</event>
<event>
 6    1  0.1929825E-004  0.3000000E+03  0.7818608E-02  0.1093470E+00
          1   -1    0    0  502    0  0.00000000000E+00  0.00000000000E+00  0.44619728900E+02  0.44619728900E+02  0.00000000000E+00 0.  1.
         13   -1    0    0    0    0 -0.00000000000E+00 -0.00000000000E+00 -0.10000000000E+04  0.10000000000E+04  0.00000000000E+00 0.  1.
    9000005    2    1    2  501    0 -0.10202299421E+02  0.12859446141E+02 -0.97119938967E+03  0.10218228699E+04  0.31721328890E+03 0.  0.
         13    1    3    3    0    0  0.77566250868E+02 -0.11964885286E+03 -0.30145998205E+03  0.33348237141E+03  0.00000000000E+00 0.  1.
          3    1    3    3  501    0 -0.87768550288E+02  0.13250829900E+03 -0.66973940762E+03  0.68834049847E+03  0.00000000000E+00 0.  1.
         21    1    1    2  502  501  0.10202299421E+02 -0.12859446141E+02  0.15819118571E+02  0.22796859013E+02  0.00000000000E+00 0.  1.
<mgrwt>
<rscale>  1 0.30000000E+03</rscale>
<asrwt>0</asrwt>
<pdfrwt beam="1">  1        1 0.16225390E+00 0.30000000E+03</pdfrwt>
<pdfrwt beam="2">0</pdfrwt>
<totfact> 0.15596563E+01</totfact>
</mgrwt>
</event>
<event>
 6    1  0.1929825E-004  0.3000000E+03  0.7818608E-02  0.1093470E+00
          1   -1    0    0  502    0  0.00000000000E+00  0.00000000000E+00  0.30687173552E+02  0.30687173552E+02  0.00000000000E+00 0.  1.
         13   -1    0    0    0    0 -0.00000000000E+00 -0.00000000000E+00 -0.10000000000E+04  0.10000000000E+04  0.00000000000E+00 0.  1.
    9000005    2    1    2  501    0  0.85880578901E+01  0.80380937554E+01 -0.95856515470E+03  0.10147536197E+04  0.33277528041E+03 0.  0.
         13    1    3    3    0    0 -0.81529610896E+02  0.65226926772E+02 -0.84841886947E+02  0.13453540504E+03  0.00000000000E+00 0.  1.
          3    1    3    3  501    0  0.90117668786E+02 -0.57188833016E+02 -0.87372326775E+03  0.88021821468E+03  0.00000000000E+00 0.  1.
         21    1    1    2  502  501 -0.85880578901E+01 -0.80380937554E+01 -0.10747671750E+02  0.15933553828E+02  0.00000000000E+00 0.  1.
<mgrwt>
<rscale>  1 0.30000000E+03</rscale>
<asrwt>0</asrwt>
<pdfrwt beam="1">  1        1 0.11158996E+00 0.30000000E+03</pdfrwt>
<pdfrwt beam="2">0</pdfrwt>
<totfact> 0.29071238E+01</totfact>
</mgrwt>
</event>
<event>
 6    1  0.1929825E-004  0.3000000E+03  0.7818608E-02  0.1093470E+00
          1   -1    0    0  502    0  0.00000000000E+00  0.00000000000E+00  0.29235092175E+02  0.29235092175E+02  0.00000000000E+00 0.  1.
         13   -1    0    0    0    0 -0.00000000000E+00 -0.00000000000E+00 -0.10000000000E+04  0.10000000000E+04  0.00000000000E+00 0.  1.
    9000005    2    1    2  501    0  0.71801654859E+01 -0.96968565449E+01 -0.94842905563E+03  0.10038485978E+04  0.32870769681E+03 0.  0.
         13    1    3    3    0    0 -0.87418660314E+02 -0.14129176403E+03 -0.44707946226E+03  0.47695432730E+03  0.00000000000E+00 0.  1.
          3    1    3    3  501    0  0.94598825800E+02  0.13159490748E+03 -0.50134959336E+03  0.52689427050E+03  0.00000000000E+00 0.  1.
         21    1    1    2  502  501 -0.71801654859E+01  0.96968565449E+01 -0.22335852198E+02  0.25386494376E+02  0.00000000000E+00 0. -1.
<mgrwt>
<rscale>  1 0.30000000E+03</rscale>
<asrwt>0</asrwt>
<pdfrwt beam="1">  1        1 0.10630965E+00 0.30000000E+03</pdfrwt>
<pdfrwt beam="2">0</pdfrwt>
<totfact> 0.31270463E+01</totfact>
</mgrwt>
</event>
<event>
 6    1  0.1929825E-004  0.3000000E+03  0.7818608E-02  0.1093470E+00
          1   -1    0    0  502    0  0.00000000000E+00  0.00000000000E+00  0.99350659811E+02  0.99350659811E+02  0.00000000000E+00 0.  1.
         13   -1    0    0    0    0 -0.00000000000E+00 -0.00000000000E+00 -0.10000000000E+04  0.10000000000E+04  0.00000000000E+00 0.  1.
    9000005    2    1    2  501    0  0.15050910239E+03 -0.68396874254E+02 -0.85520876480E+03  0.92789813518E+03  0.31981525227E+03 0.  0.
         13    1    3    3    0    0  0.16541821674E+03 -0.69002296888E+02 -0.88048709426E+03  0.89854439321E+03  0.00000000000E+00 0.  1.
          1    1    3    3  501    0 -0.14909114348E+02  0.60542263439E+00  0.25278329467E+02  0.29353741973E+02  0.00000000000E+00 0.  1.
         21    1    1    2  502  501 -0.15050910239E+03  0.68396874254E+02 -0.45440575391E+02  0.17145252463E+03  0.00000000000E+00 0.  1.
<mgrwt>
<rscale>  1 0.30000000E+03</rscale>
<asrwt>0</asrwt>
<pdfrwt beam="1">  1        1 0.36127589E+00 0.30000000E+03</pdfrwt>
<pdfrwt beam="2">0</pdfrwt>
<totfact> 0.17191770E+00</totfact>
</mgrwt>
</event>
<event>
 6    1  0.1929825E-004  0.3000000E+03  0.7818608E-02  0.1093470E+00
          1   -1    0    0  502    0  0.00000000000E+00  0.00000000000E+00  0.26008045924E+02  0.26008045924E+02  0.00000000000E+00 0.  1.
         13   -1    0    0    0    0 -0.00000000000E+00 -0.00000000000E+00 -0.10000000000E+04  0.10000000000E+04  0.00000000000E+00 0.  1.
    9000005    2    1    2  501    0  0.77766960078E+01  0.50404249195E+01 -0.95951850020E+03  0.10088218959E+04  0.31138397939E+03 0.  0.
         13    1    3    3    0    0 -0.64856546338E+02  0.97226139207E+02 -0.14664977171E+03  0.18752452984E+03  0.00000000000E+00 0.  1.
          1    1    3    3  501    0  0.72633242346E+02 -0.92185714287E+02 -0.81286872849E+03  0.82129736610E+03  0.00000000000E+00 0.  1.
         21    1    1    2  502  501 -0.77766960078E+01 -0.50404249195E+01 -0.14473453873E+02  0.17186149981E+02  0.00000000000E+00 0.  1.
<mgrwt>
<rscale>  1 0.30000000E+03</rscale>
<asrwt>0</asrwt>
<pdfrwt beam="1">  1        1 0.94574912E-01 0.30000000E+03</pdfrwt>
<pdfrwt beam="2">0</pdfrwt>
<totfact> 0.37109763E+01</totfact>
</mgrwt>
</event>
<event>
 6    1  0.1929825E-004  0.3000000E+03  0.7818608E-02  0.1093470E+00
          1   -1    0    0  502    0  0.00000000000E+00  0.00000000000E+00  0.29097666156E+02  0.29097666156E+02  0.00000000000E+00 0.  1.
         13   -1    0    0    0    0 -0.00000000000E+00 -0.00000000000E+00 -0.10000000000E+04  0.10000000000E+04  0.00000000000E+00 0.  1.
    9000005    2    1    2  501    0  0.43125987971E+01  0.75014468379E+01 -0.95672612076E+03  0.10124893782E+04  0.33126273637E+03 0.  0.
         13    1    3    3    0    0  0.63006391797E+02  0.10068644460E+03 -0.85291301643E+03  0.86114352993E+03  0.00000000000E+00 0.  1.
          3    1    3    3  501    0 -0.58693793000E+02 -0.93184997763E+02 -0.10381310433E+03  0.15134584823E+03  0.00000000000E+00 0.  1.
         21    1    1    2  502  501 -0.43125987971E+01 -0.75014468379E+01 -0.14176213082E+02  0.16608288003E+02  0.00000000000E+00 0. -1.
<mgrwt>
<rscale>  1 0.30000000E+03</rscale>
<asrwt>0</asrwt>
<pdfrwt beam="1">  1        1 0.10580992E+00 0.30000000E+03</pdfrwt>
<pdfrwt beam="2">0</pdfrwt>
<totfact> 0.31490815E+01</totfact>
</mgrwt>
</event>
<event>
 6    1  0.1929825E-004  0.3000000E+03  0.7818608E-02  0.1093470E+00
          1   -1    0    0  502    0  0.00000000000E+00  0.00000000000E+00  0.62014716044E+02  0.62014716044E+02  0.00000000000E+00 0.  1.
         13   -1    0    0    0    0 -0.00000000000E+00 -0.00000000000E+00 -0.10000000000E+04  0.10000000000E+04  0.00000000000E+00 0.  1.
    9000005    2    1    2  501    0  0.12079766135E+02  0.67589088147E+00 -0.96966710871E+03  0.10281013618E+04  0.34145531301E+03 0.  0.
         13    1    3    3    0    0  0.17006329711E+03  0.45835136580E+02 -0.54504189265E+03  0.57279407252E+03  0.00000000000E+00 0.  1.
          3    1    3    3  501    0 -0.15798353098E+03 -0.45159245698E+02 -0.42462521606E+03  0.45530728925E+03  0.00000000000E+00 0.  1.
         21    1    1    2  502  501 -0.12079766135E+02 -0.67589088147E+00  0.31681824754E+02  0.33913354274E+02  0.00000000000E+00 0. -1.
<mgrwt>
<rscale>  1 0.30000000E+03</rscale>
<asrwt>0</asrwt>
<pdfrwt beam="1">  1        1 0.22550853E+00 0.30000000E+03</pdfrwt>
<pdfrwt beam="2">0</pdfrwt>
<totfact> 0.77676511E+00</totfact>
</mgrwt>
</event>
<event>
 6    1  0.1929825E-004  0.3000000E+03  0.7818608E-02  0.1093470E+00
          1   -1    0    0  502    0  0.00000000000E+00  0.00000000000E+00  0.31935800121E+02  0.31935800121E+02  0.00000000000E+00 0.  1.
         13   -1    0    0    0    0 -0.00000000000E+00 -0.00000000000E+00 -0.10000000000E+04  0.10000000000E+04  0.00000000000E+00 0.  1.
    9000005    2    1    2  501    0  0.43386266604E+01 -0.82063188060E+01 -0.95874749572E+03  0.10187840578E+04  0.34443871520E+03 0.  0.
         13    1    3    3    0    0  0.26814940859E+02  0.90420645180E+02 -0.54563398536E+02  0.10895916018E+03  0.00000000000E+00 0.  1.
          1    1    3    3  501    0 -0.22476314198E+02 -0.98626963986E+02 -0.90418409719E+03  0.90982489762E+03  0.00000000000E+00 0.  1.
         21    1    1    2  502  501 -0.43386266604E+01  0.82063188060E+01 -0.93167041574E+01  0.13151742318E+02  0.00000000000E+00 0.  1.
<mgrwt>
<rscale>  1 0.30000000E+03</rscale>
<asrwt>0</asrwt>
<pdfrwt beam="1">  1        1 0.11613043E+00 0.30000000E+03</pdfrwt>
<pdfrwt beam="2">0</pdfrwt>
<totfact> 0.27351737E+01</totfact>
</mgrwt>
</event>
<event>
 6    1  0.1929825E-004  0.3000000E+03  0.7818608E-02  0.1093470E+00
          1   -1    0    0  502    0  0.00000000000E+00  0.00000000000E+00  0.71482612967E+02  0.71482612967E+02  0.00000000000E+00 0.  1.
         13   -1    0    0    0    0 -0.00000000000E+00 -0.00000000000E+00 -0.10000000000E+04  0.10000000000E+04  0.00000000000E+00 0.  1.
    9000005    2    1    2  501    0 -0.10850180836E+02  0.10063449681E+02 -0.93786880853E+03  0.10539769417E+04  0.48067711836E+03 0.  0.
         13    1    3    3    0    0 -0.43396907201E+02  0.79962687821E+02  0.19882440750E+02  0.93126980238E+02  0.00000000000E+00 0.  1.
          1    1    3    3  501    0  0.32546726364E+02 -0.69899238140E+02 -0.95775124928E+03  0.96084996143E+03  0.00000000000E+00 0.  1.
         21    1    1    2  502  501  0.10850180836E+02 -0.10063449681E+02  0.93514214931E+01  0.17505671298E+02  0.00000000000E+00 0.  1.
<mgrwt>
<rscale>  1 0.30000000E+03</rscale>
<asrwt>0</asrwt>
<pdfrwt beam="1">  1        1 0.25993732E+00 0.30000000E+03</pdfrwt>
<pdfrwt beam="2">0</pdfrwt>
<totfact> 0.53619457E+00</totfact>
</mgrwt>
</event>
<event>
 6    1  0.1929825E-004  0.3000000E+03  0.7818608E-02  0.1093470E+00
          1   -1    0    0  502    0  0.00000000000E+00  0.00000000000E+00  0.31049955754E+02  0.31049955754E+02  0.00000000000E+00 0.  1.
         13   -1    0    0    0    0 -0.00000000000E+00 -0.00000000000E+00 -0.10000000000E+04  0.10000000000E+04  0.00000000000E+00 0.  1.
    9000005    2    1    2  501    0 -0.27501977399E+01 -0.13973593382E+02 -0.96123559156E+03  0.10148531141E+04  0.32519249038E+03 0.  0.
         13    1    3    3    0    0  0.22390526849E+02 -0.99621014374E+02 -0.90191913601E+03  0.90768045595E+03  0.00000000000E+00 0.  1.
          3    1    3    3  501    0 -0.25140724589E+02  0.85647420992E+02 -0.59316455545E+02  0.10717265814E+03  0.00000000000E+00 0.  1.
         21    1    1    2  502  501  0.27501977399E+01  0.13973593382E+02 -0.77144526875E+01  0.16196841664E+02  0.00000000000E+00 0.  1.
<mgrwt>
<rscale>  1 0.30000000E+03</rscale>
<asrwt>0</asrwt>
<pdfrwt beam="1">  1        1 0.11290917E+00 0.30000000E+03</pdfrwt>
<pdfrwt beam="2">0</pdfrwt>
<totfact> 0.28556191E+01</totfact>
</mgrwt>
</event>
<event>
 6    1  0.1929825E-004  0.3000000E+03  0.7818608E-02  0.1093470E+00
          1   -1    0    0  502    0  0.00000000000E+00  0.00000000000E+00  0.22755163260E+02  0.22755163260E+02  0.00000000000E+00 0.  1.
         13   -1    0    0    0    0 -0.00000000000E+00 -0.00000000000E+00 -0.10000000000E+04  0.10000000000E+04  0.00000000000E+00 0.  1.
    9000005    2    1    2  501    0 -0.87657291628E+01  0.36217106196E+01 -0.95999658132E+03  0.10030712330E+04  0.29063466332E+03 0.  0.
         13    1    3    3    0    0 -0.45724021909E+02 -0.13743000996E+03 -0.49391186752E+03  0.51471023566E+03  0.00000000000E+00 0.  1.
          1    1    3    3  501    0  0.36958292746E+02  0.14105172058E+03 -0.46608471380E+03  0.48836099734E+03  0.00000000000E+00 0.  1.
         21    1    1    2  502  501  0.87657291628E+01 -0.36217106196E+01 -0.17248255422E+02  0.19683930264E+02  0.00000000000E+00 0.  1.
<mgrwt>
<rscale>  1 0.30000000E+03</rscale>
<asrwt>0</asrwt>
<pdfrwt beam="1">  1        1 0.82746223E-01 0.30000000E+03</pdfrwt>
<pdfrwt beam="2">0</pdfrwt>
<totfact> 0.44818109E+01</totfact>
</mgrwt>
</event>
<event>
 6    1  0.1929825E-004  0.3000000E+03  0.7818608E-02  0.1093470E+00
          1   -1    0    0  502    0  0.00000000000E+00  0.00000000000E+00  0.41281008718E+02  0.41281008718E+02  0.00000000000E+00 0.  1.
         13   -1    0    0    0    0 -0.00000000000E+00 -0.00000000000E+00 -0.10000000000E+04  0.10000000000E+04  0.00000000000E+00 0.  1.
    9000005    2    1    2  501    0  0.11655177407E+01 -0.12027617425E+02 -0.97848370574E+03  0.10181149570E+04  0.28103679713E+03 0.  0.
         13    1    3    3    0    0  0.62467657692E+02 -0.53226927428E+02 -0.92066469547E+03  0.92431531176E+03  0.00000000000E+00 0.  1.
          3    1    3    3  501    0 -0.61302139951E+02  0.41199310003E+02 -0.57819010270E+02  0.93799645287E+02  0.00000000000E+00 0.  1.
         21    1    1    2  502  501 -0.11655177407E+01  0.12027617425E+02  0.19764714459E+02  0.23166051674E+02  0.00000000000E+00 0.  1.
<mgrwt>
<rscale>  1 0.30000000E+03</rscale>
<asrwt>0</asrwt>
<pdfrwt beam="1">  1        1 0.15011308E+00 0.30000000E+03</pdfrwt>
<pdfrwt beam="2">0</pdfrwt>
<totfact> 0.17941190E+01</totfact>
</mgrwt>
</event>
<event>
 6    1  0.1929825E-004  0.3000000E+03  0.7818608E-02  0.1093470E+00
          1   -1    0    0  502    0  0.00000000000E+00  0.00000000000E+00  0.39604741002E+02  0.39604741002E+02  0.00000000000E+00 0.  1.
         13   -1    0    0    0    0 -0.00000000000E+00 -0.00000000000E+00 -0.10000000000E+04  0.10000000000E+04  0.00000000000E+00 0.  1.
    9000005    2    1    2  501    0 -0.49768000353E+02 -0.63099089435E+01 -0.80357082026E+03  0.87495185340E+03  0.34248797612E+03 0.  0.
         13    1    3    3    0    0  0.10445617576E+03  0.26220462117E+02 -0.79335919208E+02  0.13376394643E+03  0.00000000000E+00 0.  1.
          3    1    3    3  501    0 -0.15422417611E+03 -0.32530371060E+02 -0.72423490105E+03  0.74118790697E+03  0.00000000000E+00 0.  1.
         21    1    1    2  502  501  0.49768000353E+02  0.63099089435E+01 -0.15682443874E+03  0.16465288761E+03  0.00000000000E+00 0.  1.
<mgrwt>
<rscale>  1 0.30000000E+03</rscale>
<asrwt>0</asrwt>
<pdfrwt beam="1">  1        1 0.14401754E+00 0.30000000E+03</pdfrwt>
<pdfrwt beam="2">0</pdfrwt>
<totfact> 0.19280307E+01</totfact>
</mgrwt>
</event>
<event>
 6    1  0.1929825E-004  0.3000000E+03  0.7818608E-02  0.1093470E+00
          1   -1    0    0  502    0  0.00000000000E+00  0.00000000000E+00  0.38717657203E+02  0.38717657203E+02  0.00000000000E+00 0.  1.
         13   -1    0    0    0    0 -0.00000000000E+00 -0.00000000000E+00 -0.10000000000E+04  0.10000000000E+04  0.00000000000E+00 0.  1.
    9000005    2    1    2  501    0  0.22281581110E+02 -0.36992225564E+02 -0.88921925993E+03  0.95470586326E+03  0.34480066634E+03 0.  0.
         13    1    3    3    0    0  0.15870970244E+03 -0.94839181835E+02 -0.35428657215E+03  0.39962759573E+03  0.00000000000E+00 0.  1.
          3    1    3    3  501    0 -0.13642812133E+03  0.57846956271E+02 -0.53493268778E+03  0.55507826753E+03  0.00000000000E+00 0.  1.
         21    1    1    2  502  501 -0.22281581110E+02  0.36992225564E+02 -0.72063082870E+02  0.84011793944E+02  0.00000000000E+00 0.  1.
<mgrwt>
<rscale>  1 0.30000000E+03</rscale>
<asrwt>0</asrwt>
<pdfrwt beam="1">  1        1 0.14079178E+00 0.30000000E+03</pdfrwt>
<pdfrwt beam="2">0</pdfrwt>
<totfact> 0.20039985E+01</totfact>
</mgrwt>
</event>
<event>
 6    1  0.1929825E-004  0.3000000E+03  0.7818608E-02  0.1093470E+00
          1   -1    0    0  502    0  0.00000000000E+00  0.00000000000E+00  0.27531885526E+02  0.27531885526E+02  0.00000000000E+00 0.  1.
         13   -1    0    0    0    0 -0.00000000000E+00 -0.00000000000E+00 -0.10000000000E+04  0.10000000000E+04  0.00000000000E+00 0.  1.
    9000005    2    1    2  501    0 -0.16273257071E+01 -0.99843023639E+01 -0.96134946215E+03  0.10124999558E+04  0.31758626793E+03 0.  0.
         13    1    3    3    0    0  0.80138512824E+02 -0.13130111517E+03 -0.65763640247E+03  0.67538714967E+03  0.00000000000E+00 0.  1.
          1    1    3    3  501    0 -0.81765838531E+02  0.12131681280E+03 -0.30371305968E+03  0.33711280610E+03  0.00000000000E+00 0.  1.
         21    1    1    2  502  501  0.16273257071E+01  0.99843023639E+01 -0.11118652323E+02  0.15031929754E+02  0.00000000000E+00 0.  1.
<mgrwt>
<rscale>  1 0.30000000E+03</rscale>
<asrwt>0</asrwt>
<pdfrwt beam="1">  1        1 0.10011616E+00 0.30000000E+03</pdfrwt>
<pdfrwt beam="2">0</pdfrwt>
<totfact> 0.34168892E+01</totfact>
</mgrwt>
</event>
<event>
 6    1  0.1929825E-004  0.3000000E+03  0.7818608E-02  0.1093470E+00
          1   -1    0    0  502    0  0.00000000000E+00  0.00000000000E+00  0.33502160740E+02  0.33502160740E+02  0.00000000000E+00 0.  1.
         13   -1    0    0    0    0 -0.00000000000E+00 -0.00000000000E+00 -0.10000000000E+04  0.10000000000E+04  0.00000000000E+00 0.  1.
    9000005    2    1    2  501    0  0.64011371610E+01  0.25525835452E+02 -0.93674823232E+03  0.99378337494E+03  0.33078029372E+03 0.  0.
         13    1    3    3    0    0  0.58982668488E+02  0.12793047603E+03 -0.18121115252E+03  0.22952699989E+03  0.00000000000E+00 0.  1.
          3    1    3    3  501    0 -0.52581531327E+02 -0.10240464058E+03 -0.75553707980E+03  0.76425637505E+03  0.00000000000E+00 0.  1.
         21    1    1    2  502  501 -0.64011371610E+01 -0.25525835452E+02 -0.29749606941E+02  0.39718785803E+02  0.00000000000E+00 0.  1.
<mgrwt>
<rscale>  1 0.30000000E+03</rscale>
<asrwt>0</asrwt>
<pdfrwt beam="1">  1        1 0.12182630E+00 0.30000000E+03</pdfrwt>
<pdfrwt beam="2">0</pdfrwt>
<totfact> 0.25387580E+01</totfact>
</mgrwt>
</event>
<event>
 6    1  0.1929825E-004  0.3000000E+03  0.7818608E-02  0.1093470E+00
          1   -1    0    0  502    0  0.00000000000E+00  0.00000000000E+00  0.34008494531E+02  0.34008494531E+02  0.00000000000E+00 0.  1.
         13   -1    0    0    0    0 -0.00000000000E+00 -0.00000000000E+00 -0.10000000000E+04  0.10000000000E+04  0.00000000000E+00 0.  1.
    9000005    2    1    2  501    0  0.52091875067E+01 -0.11476949909E+02 -0.96008863758E+03  0.10200908847E+04  0.34446533215E+03 0.  0.
         13    1    3    3    0    0 -0.39930242111E+02  0.99498074652E+02 -0.85204529929E+03  0.85876392748E+03  0.00000000000E+00 0.  1.
          3    1    3    3  501    0  0.45139429618E+02 -0.11097502456E+03 -0.10804333829E+03  0.16132695723E+03  0.00000000000E+00 0.  1.
         21    1    1    2  502  501 -0.52091875067E+01  0.11476949909E+02 -0.59028678926E+01  0.13917609818E+02  0.00000000000E+00 0.  1.
<mgrwt>
<rscale>  1 0.30000000E+03</rscale>
<asrwt>0</asrwt>
<pdfrwt beam="1">  1        1 0.12366751E+00 0.30000000E+03</pdfrwt>
<pdfrwt beam="2">0</pdfrwt>
<totfact> 0.24793019E+01</totfact>
</mgrwt>
</event>
<event>
 6    1  0.1929825E-004  0.3000000E+03  0.7818608E-02  0.1093470E+00
          1   -1    0    0  502    0  0.00000000000E+00  0.00000000000E+00  0.70563697988E+02  0.70563697988E+02  0.00000000000E+00 0.  1.
         13   -1    0    0    0    0 -0.00000000000E+00 -0.00000000000E+00 -0.10000000000E+04  0.10000000000E+04  0.00000000000E+00 0.  1.
    9000005    2    1    2  501    0 -0.55827554879E+02  0.40950917101E+02 -0.94217559959E+03  0.10001649537E+04  0.32839211415E+03 0.  0.
         13    1    3    3    0    0 -0.11827175213E+03 -0.11365140145E+03 -0.38265151966E+03  0.41632563445E+03  0.00000000000E+00 0.  1.
          3    1    3    3  501    0  0.62444197246E+02  0.15460231855E+03 -0.55952407993E+03  0.58383931924E+03  0.00000000000E+00 0.  1.
         21    1    1    2  502  501  0.55827554879E+02 -0.40950917101E+02  0.12739297581E+02  0.70398744293E+02  0.00000000000E+00 0.  1.
<mgrwt>
<rscale>  1 0.30000000E+03</rscale>
<asrwt>0</asrwt>
<pdfrwt beam="1">  1        1 0.25659581E+00 0.30000000E+03</pdfrwt>
<pdfrwt beam="2">0</pdfrwt>
<totfact> 0.55585261E+00</totfact>
</mgrwt>
</event>
<event>
 6    1  0.1929825E-004  0.3000000E+03  0.7818608E-02  0.1093470E+00
          1   -1    0    0  502    0  0.00000000000E+00  0.00000000000E+00  0.30640651909E+02  0.30640651909E+02  0.00000000000E+00 0.  1.
         13   -1    0    0    0    0 -0.00000000000E+00 -0.00000000000E+00 -0.10000000000E+04  0.10000000000E+04  0.00000000000E+00 0.  1.
    9000005    2    1    2  501    0  0.12814951605E+01 -0.16807882819E+02 -0.96175656646E+03  0.10121487768E+04  0.31493698766E+03 0.  0.
         13    1    3    3    0    0 -0.92293847061E+01 -0.13364096386E+03 -0.19566563422E+03  0.23712892944E+03  0.00000000000E+00 0.  1.
          3    1    3    3  501    0  0.10510879867E+02  0.11683308104E+03 -0.76609093224E+03  0.77501984741E+03  0.00000000000E+00 0.  1.
         21    1    1    2  502  501 -0.12814951605E+01  0.16807882819E+02 -0.76027816302E+01  0.18491875060E+02  0.00000000000E+00 0. -1.
<mgrwt>
<rscale>  1 0.30000000E+03</rscale>
<asrwt>0</asrwt>
<pdfrwt beam="1">  1        1 0.11142079E+00 0.30000000E+03</pdfrwt>
<pdfrwt beam="2">0</pdfrwt>
<totfact> 0.29138236E+01</totfact>
</mgrwt>
</event>
<event>
 6    1  0.1929825E-004  0.3000000E+03  0.7818608E-02  0.1093470E+00
          1   -1    0    0  502    0  0.00000000000E+00  0.00000000000E+00  0.28215675343E+02  0.28215675343E+02  0.00000000000E+00 0.  1.
         13   -1    0    0    0    0 -0.00000000000E+00 -0.00000000000E+00 -0.10000000000E+04  0.10000000000E+04  0.00000000000E+00 0.  1.
    9000005    2    1    2  501    0  0.13635635218E+02 -0.37529117230E+01 -0.94220252195E+03  0.99542698910E+03  0.32082593936E+03 0.  0.
         13    1    3    3    0    0  0.15181148195E+02  0.15809635609E+03 -0.44010763834E+03  0.46788851065E+03  0.00000000000E+00 0.  1.
          3    1    3    3  501    0 -0.15455129772E+01 -0.16184926781E+03 -0.50209488361E+03  0.52753847845E+03  0.00000000000E+00 0.  1.
         21    1    1    2  502  501 -0.13635635218E+02  0.37529117230E+01 -0.29581802704E+02  0.32788686241E+02  0.00000000000E+00 0.  1.
<mgrwt>
<rscale>  1 0.30000000E+03</rscale>
<asrwt>0</asrwt>
<pdfrwt beam="1">  1        1 0.10260267E+00 0.30000000E+03</pdfrwt>
<pdfrwt beam="2">0</pdfrwt>
<totfact> 0.32960014E+01</totfact>
</mgrwt>
</event>
<event>
 6    1  0.1929825E-004  0.3000000E+03  0.7818608E-02  0.1093470E+00
          1   -1    0    0  502    0  0.00000000000E+00  0.00000000000E+00  0.67659373918E+02  0.67659373918E+02  0.00000000000E+00 0.  1.
         13   -1    0    0    0    0 -0.00000000000E+00 -0.00000000000E+00 -0.10000000000E+04  0.10000000000E+04  0.00000000000E+00 0.  1.
    9000005    2    1    2  501    0  0.63198388166E+02 -0.13039252206E+03 -0.76121899393E+03  0.84342989533E+03  0.33305162595E+03 0.  0.
         13    1    3    3    0    0 -0.50196216752E+02 -0.22911484969E+02 -0.64833303249E+03  0.65067681482E+03  0.00000000000E+00 0.  1.
          3    1    3    3  501    0  0.11339460492E+03 -0.10748103709E+03 -0.11288596144E+03  0.19275308051E+03  0.00000000000E+00 0.  1.
         21    1    1    2  502  501 -0.63198388166E+02  0.13039252206E+03 -0.17112163215E+03  0.22422947858E+03  0.00000000000E+00 0.  1.
<mgrwt>
<rscale>  1 0.30000000E+03</rscale>
<asrwt>0</asrwt>
<pdfrwt beam="1">  1        1 0.24603461E+00 0.30000000E+03</pdfrwt>
<pdfrwt beam="2">0</pdfrwt>
<totfact> 0.62254677E+00</totfact>
</mgrwt>
</event>
<event>
 6    1  0.1929825E-004  0.3000000E+03  0.7818608E-02  0.1093470E+00
          1   -1    0    0  502    0  0.00000000000E+00  0.00000000000E+00  0.35195477620E+02  0.35195477620E+02  0.00000000000E+00 0.  1.
         13   -1    0    0    0    0 -0.00000000000E+00 -0.00000000000E+00 -0.10000000000E+04  0.10000000000E+04  0.00000000000E+00 0.  1.
    9000005    2    1    2  501    0  0.29017711726E+02  0.26033760120E+01 -0.94514023856E+03  0.10000459510E+04  0.32550426800E+03 0.  0.
         13    1    3    3    0    0 -0.68761071354E+02 -0.84672479544E+02 -0.11082242131E+03  0.15549637549E+03  0.00000000000E+00 0.  1.
          3    1    3    3  501    0  0.97778783081E+02  0.87275855556E+02 -0.83431781725E+03  0.84454957555E+03  0.00000000000E+00 0.  1.
         21    1    1    2  502  501 -0.29017711726E+02 -0.26033760120E+01 -0.19664283818E+02  0.35149526577E+02  0.00000000000E+00 0.  1.
<mgrwt>
<rscale>  1 0.30000000E+03</rscale>
<asrwt>0</asrwt>
<pdfrwt beam="1">  1        1 0.12798382E+00 0.30000000E+03</pdfrwt>
<pdfrwt beam="2">0</pdfrwt>
<totfact> 0.23467716E+01</totfact>
</mgrwt>
</event>
<event>
 6    1  0.1929825E-004  0.3000000E+03  0.7818608E-02  0.1093470E+00
          1   -1    0    0  502    0  0.00000000000E+00  0.00000000000E+00  0.56312471473E+02  0.56312471473E+02  0.00000000000E+00 0.  1.
         13   -1    0    0    0    0 -0.00000000000E+00 -0.00000000000E+00 -0.10000000000E+04  0.10000000000E+04  0.00000000000E+00 0.  1.
    9000005    2    1    2  501    0  0.41271264294E+02  0.79145707875E+02 -0.88878173219E+03  0.95151740097E+03  0.32784910634E+03 0.  0.
         13    1    3    3    0    0  0.10044365897E+03 -0.10551612850E+03 -0.39719402996E+03  0.42306699167E+03  0.00000000000E+00 0.  1.
          3    1    3    3  501    0 -0.59172394674E+02  0.18466183637E+03 -0.49158770223E+03  0.52845040930E+03  0.00000000000E+00 0.  1.
         21    1    1    2  502  501 -0.41271264294E+02 -0.79145707875E+02 -0.54905796334E+02  0.10479507051E+03  0.00000000000E+00 0.  1.
<mgrwt>
<rscale>  1 0.30000000E+03</rscale>
<asrwt>0</asrwt>
<pdfrwt beam="1">  1        1 0.20477306E+00 0.30000000E+03</pdfrwt>
<pdfrwt beam="2">0</pdfrwt>
<totfact> 0.97228034E+00</totfact>
</mgrwt>
</event>
<event>
 6    1  0.1929825E-004  0.3000000E+03  0.7818608E-02  0.1093470E+00
          1   -1    0    0  502    0  0.00000000000E+00  0.00000000000E+00  0.39303063329E+02  0.39303063329E+02  0.00000000000E+00 0.  1.
         13   -1    0    0    0    0 -0.00000000000E+00 -0.00000000000E+00 -0.10000000000E+04  0.10000000000E+04  0.00000000000E+00 0.  1.
    9000005    2    1    2  501    0 -0.47847220574E+02  0.77504982493E+01 -0.91339578098E+03  0.97157695264E+03  0.32759806996E+03 0.  0.
         13    1    3    3    0    0 -0.24405619627E+01 -0.13507231403E+03 -0.19191488515E+03  0.23469514163E+03  0.00000000000E+00 0.  1.
          1    1    3    3  501    0 -0.45406658611E+02  0.14282281228E+03 -0.72148089583E+03  0.73688181101E+03  0.00000000000E+00 0.  1.
         21    1    1    2  502  501  0.47847220574E+02 -0.77504982493E+01 -0.47301155686E+02  0.67726110689E+02  0.00000000000E+00 0.  1.
<mgrwt>
<rscale>  1 0.30000000E+03</rscale>
<asrwt>0</asrwt>
<pdfrwt beam="1">  1        1 0.14292053E+00 0.30000000E+03</pdfrwt>
<pdfrwt beam="2">0</pdfrwt>
<totfact> 0.19534498E+01</totfact>
</mgrwt>
</event>
<event>
 6    1  0.1929825E-004  0.3000000E+03  0.7818608E-02  0.1093470E+00
          1   -1    0    0  502    0  0.00000000000E+00  0.00000000000E+00  0.33673586446E+02  0.33673586446E+02  0.00000000000E+00 0.  1.
         13   -1    0    0    0    0 -0.00000000000E+00 -0.00000000000E+00 -0.10000000000E+04  0.10000000000E+04  0.00000000000E+00 0.  1.
    9000005    2    1    2  501    0 -0.41542274471E+02 -0.25265247826E+02 -0.86958212728E+03  0.92539824187E+03  0.31276946248E+03 0.  0.
         13    1    3    3    0    0  0.26055949419E+02  0.10395021021E+03 -0.11636498268E+03  0.15819408301E+03  0.00000000000E+00 0.  1.
          3    1    3    3  501    0 -0.67598223890E+02 -0.12921545804E+03 -0.75321714459E+03  0.76720415886E+03  0.00000000000E+00 0.  1.
         21    1    1    2  502  501  0.41542274471E+02  0.25265247826E+02 -0.96744286276E+02  0.10827534458E+03  0.00000000000E+00 0.  1.
<mgrwt>
<rscale>  1 0.30000000E+03</rscale>
<asrwt>0</asrwt>
<pdfrwt beam="1">  1        1 0.12244966E+00 0.30000000E+03</pdfrwt>
<pdfrwt beam="2">0</pdfrwt>
<totfact> 0.25184217E+01</totfact>
</mgrwt>
</event>
<event>
 6    1  0.1929825E-004  0.3000000E+03  0.7818608E-02  0.1093470E+00
          1   -1    0    0  502    0  0.00000000000E+00  0.00000000000E+00  0.48047073333E+02  0.48047073333E+02  0.00000000000E+00 0.  1.
         13   -1    0    0    0    0 -0.00000000000E+00 -0.00000000000E+00 -0.10000000000E+04  0.10000000000E+04  0.00000000000E+00 0.  1.
    9000005    2    1    2  501    0 -0.52458567207E+02 -0.70326157863E+02 -0.83936497124E+03  0.90531054171E+03  0.32765218179E+03 0.  0.
         13    1    3    3    0    0 -0.25283667427E+02  0.10609544715E+03 -0.58181600525E+03  0.59195048079E+03  0.00000000000E+00 0.  1.
          3    1    3    3  501    0 -0.27174899780E+02 -0.17642160502E+03 -0.25754896599E+03  0.31336006091E+03  0.00000000000E+00 0.  1.
         21    1    1    2  502  501  0.52458567207E+02  0.70326157863E+02 -0.11258795543E+03  0.14273653163E+03  0.00000000000E+00 0.  1.
<mgrwt>
<rscale>  1 0.30000000E+03</rscale>
<asrwt>0</asrwt>
<pdfrwt beam="1">  1        1 0.17471700E+00 0.30000000E+03</pdfrwt>
<pdfrwt beam="2">0</pdfrwt>
<totfact> 0.13550699E+01</totfact>
</mgrwt>
</event>
<event>
 6    1  0.1929825E-004  0.3000000E+03  0.7818608E-02  0.1093470E+00
          1   -1    0    0  502    0  0.00000000000E+00  0.00000000000E+00  0.38313610761E+02  0.38313610761E+02  0.00000000000E+00 0.  1.
         13   -1    0    0    0    0 -0.00000000000E+00 -0.00000000000E+00 -0.10000000000E+04  0.10000000000E+04  0.00000000000E+00 0.  1.
    9000005    2    1    2  501    0  0.13639124914E+02  0.29237750085E+02 -0.95046914192E+03  0.10041566437E+04  0.32233228767E+03 0.  0.
         13    1    3    3    0    0  0.14678063993E+02 -0.79426123004E+01 -0.96432157478E+03  0.96446598190E+03  0.00000000000E+00 0.  1.
          1    1    3    3  501    0 -0.10389390788E+01  0.37180362385E+02  0.13852432861E+02  0.39690661845E+02  0.00000000000E+00 0.  1.
         21    1    1    2  502  501 -0.13639124914E+02 -0.29237750085E+02 -0.11217247320E+02  0.34156967018E+02  0.00000000000E+00 0. -1.
<mgrwt>
<rscale>  1 0.30000000E+03</rscale>
<asrwt>0</asrwt>
<pdfrwt beam="1">  1        1 0.13932251E+00 0.30000000E+03</pdfrwt>
<pdfrwt beam="2">0</pdfrwt>
<totfact> 0.20398597E+01</totfact>
</mgrwt>
</event>
<event>
 6    1  0.1929825E-004  0.3000000E+03  0.7818608E-02  0.1093470E+00
          1   -1    0    0  502    0  0.00000000000E+00  0.00000000000E+00  0.17528183879E+02  0.17528183879E+02  0.00000000000E+00 0.  1.
         13   -1    0    0    0    0 -0.00000000000E+00 -0.00000000000E+00 -0.10000000000E+04  0.10000000000E+04  0.00000000000E+00 0.  1.
    9000005    2    1    2  501    0  0.61548858145E+01  0.92178419378E+01 -0.98059900995E+03  0.10062872483E+04  0.22564741652E+03 0.  0.
         13    1    3    3    0    0  0.10060097684E+03 -0.47401794383E+02 -0.59355705721E+03  0.60388530933E+03  0.00000000000E+00 0.  1.
          3    1    3    3  501    0 -0.94446091022E+02  0.56619636320E+02 -0.38704195273E+03  0.40240193899E+03  0.00000000000E+00 0.  1.
         21    1    1    2  502  501 -0.61548858145E+01 -0.92178419378E+01 -0.18728061736E+01  0.11240935564E+02  0.00000000000E+00 0.  1.
<mgrwt>
<rscale>  1 0.30000000E+03</rscale>
<asrwt>0</asrwt>
<pdfrwt beam="1">  1        1 0.63738985E-01 0.30000000E+03</pdfrwt>
<pdfrwt beam="2">0</pdfrwt>
<totfact> 0.63972410E+01</totfact>
</mgrwt>
</event>
<event>
 6    1  0.1929825E-004  0.3000000E+03  0.7818608E-02  0.1093470E+00
          1   -1    0    0  502    0  0.00000000000E+00  0.00000000000E+00  0.21456168685E+02  0.21456168685E+02  0.00000000000E+00 0.  1.
         13   -1    0    0    0    0 -0.00000000000E+00 -0.00000000000E+00 -0.10000000000E+04  0.10000000000E+04  0.00000000000E+00 0.  1.
    9000005    2    1    2  501    0  0.87041281489E+01 -0.72530337550E+01 -0.96900417592E+03  0.10066449104E+04  0.27246378555E+03 0.  0.
         13    1    3    3    0    0 -0.12481222277E+03 -0.12872827339E+02 -0.62756791981E+03  0.63998851131E+03  0.00000000000E+00 0.  1.
          3    1    3    3  501    0  0.13351635092E+03  0.56197935841E+01 -0.34143625611E+03  0.36665639914E+03  0.00000000000E+00 0.  1.
         21    1    1    2  502  501 -0.87041281489E+01  0.72530337550E+01 -0.95396553959E+01  0.14811258237E+02  0.00000000000E+00 0.  1.
<mgrwt>
<rscale>  1 0.30000000E+03</rscale>
<asrwt>0</asrwt>
<pdfrwt beam="1">  1        1 0.78022596E-01 0.30000000E+03</pdfrwt>
<pdfrwt beam="2">0</pdfrwt>
<totfact> 0.48615875E+01</totfact>
</mgrwt>
</event>
<event>
 6    1  0.1929825E-004  0.3000000E+03  0.7818608E-02  0.1093470E+00
          1   -1    0    0  502    0  0.00000000000E+00  0.00000000000E+00  0.98132266050E+02  0.98132266050E+02  0.00000000000E+00 0.  1.
         13   -1    0    0    0    0 -0.00000000000E+00 -0.00000000000E+00 -0.10000000000E+04  0.10000000000E+04  0.00000000000E+00 0.  1.
    9000005    2    1    2  501    0  0.32774908778E+02  0.59303385945E+01 -0.97158108855E+03  0.10208709214E+04  0.31160594197E+03 0.  0.
         13    1    3    3    0    0 -0.13957028214E+03  0.16773025765E+02 -0.42195221739E+03  0.44475259618E+03  0.00000000000E+00 0.  1.
          3    1    3    3  501    0  0.17234519091E+03 -0.10842687170E+02 -0.54962887116E+03  0.57611832527E+03  0.00000000000E+00 0.  1.
         21    1    1    2  502  501 -0.32774908778E+02 -0.59303385945E+01  0.69713354596E+02  0.77261344606E+02  0.00000000000E+00 0.  1.
<mgrwt>
<rscale>  1 0.30000000E+03</rscale>
<asrwt>0</asrwt>
<pdfrwt beam="1">  1        1 0.35684536E+00 0.30000000E+03</pdfrwt>
<pdfrwt beam="2">0</pdfrwt>
<totfact> 0.18146089E+00</totfact>
</mgrwt>
</event>
<event>
 6    1  0.1929825E-004  0.3000000E+03  0.7818608E-02  0.1093470E+00
          1   -1    0    0  502    0  0.00000000000E+00  0.00000000000E+00  0.34631112172E+02  0.34631112172E+02  0.00000000000E+00 0.  1.
         13   -1    0    0    0    0 -0.00000000000E+00 -0.00000000000E+00 -0.10000000000E+04  0.10000000000E+04  0.00000000000E+00 0.  1.
    9000005    2    1    2  501    0  0.47351785654E+01 -0.38585217115E+02 -0.91934322055E+03  0.97438492603E+03  0.32050395632E+03 0.  0.
         13    1    3    3    0    0  0.57339651276E+02 -0.86744342859E+02 -0.77904095603E+02  0.12992869097E+03  0.00000000000E+00 0.  1.
          3    1    3    3  501    0 -0.52604472710E+02  0.48159125744E+02 -0.84143912494E+03  0.84445623506E+03  0.00000000000E+00 0.  1.
         21    1    1    2  502  501 -0.47351785654E+01  0.38585217115E+02 -0.46025667280E+02  0.60246186140E+02  0.00000000000E+00 0.  1.
<mgrwt>
<rscale>  1 0.30000000E+03</rscale>
<asrwt>0</asrwt>
<pdfrwt beam="1">  1        1 0.12593158E+00 0.30000000E+03</pdfrwt>
<pdfrwt beam="2">0</pdfrwt>
<totfact> 0.24086289E+01</totfact>
</mgrwt>
</event>
<event>
 6    1  0.1929825E-004  0.3000000E+03  0.7818608E-02  0.1093470E+00
          1   -1    0    0  502    0  0.00000000000E+00  0.00000000000E+00  0.39113071190E+02  0.39113071190E+02  0.00000000000E+00 0.  1.
         13   -1    0    0    0    0 -0.00000000000E+00 -0.00000000000E+00 -0.10000000000E+04  0.10000000000E+04  0.00000000000E+00 0.  1.
    9000005    2    1    2  501    0  0.33397469277E+01  0.15232360563E+02 -0.95439581403E+03  0.10222218519E+04  0.36581821435E+03 0.  0.
         13    1    3    3    0    0 -0.11721051902E+03  0.12218257283E+03 -0.26676743647E+03  0.31596163064E+03  0.00000000000E+00 0.  1.
          3    1    3    3  501    0  0.12055026595E+03 -0.10695021227E+03 -0.68762837756E+03  0.70626022127E+03  0.00000000000E+00 0.  1.
         21    1    1    2  502  501 -0.33397469277E+01 -0.15232360563E+02 -0.64911147771E+01  0.16891219284E+02  0.00000000000E+00 0. -1.
<mgrwt>
<rscale>  1 0.30000000E+03</rscale>
<asrwt>0</asrwt>
<pdfrwt beam="1">  1        1 0.14222965E+00 0.30000000E+03</pdfrwt>
<pdfrwt beam="2">0</pdfrwt>
<totfact> 0.19696762E+01</totfact>
</mgrwt>
</event>
<event>
 6    1  0.1929825E-004  0.3000000E+03  0.7818608E-02  0.1093470E+00
          1   -1    0    0  502    0  0.00000000000E+00  0.00000000000E+00  0.36197602976E+02  0.36197602976E+02  0.00000000000E+00 0.  1.
         13   -1    0    0    0    0 -0.00000000000E+00 -0.00000000000E+00 -0.10000000000E+04  0.10000000000E+04  0.00000000000E+00 0.  1.
    9000005    2    1    2  501    0  0.15465745538E+02 -0.15409274125E+02 -0.96148396871E+03  0.10142428740E+04  0.32211884513E+03 0.  0.
         13    1    3    3    0    0 -0.11088270967E+03 -0.11380375599E+03 -0.55673318970E+03  0.57896296487E+03  0.00000000000E+00 0.  1.
          3    1    3    3  501    0  0.12634845520E+03  0.98394481861E+02 -0.40475077901E+03  0.43527990914E+03  0.00000000000E+00 0.  1.
         21    1    1    2  502  501 -0.15465745538E+02  0.15409274125E+02 -0.23184283170E+01  0.21954728966E+02  0.00000000000E+00 0.  1.
<mgrwt>
<rscale>  1 0.30000000E+03</rscale>
<asrwt>0</asrwt>
<pdfrwt beam="1">  1        1 0.13162792E+00 0.30000000E+03</pdfrwt>
<pdfrwt beam="2">0</pdfrwt>
<totfact> 0.22418954E+01</totfact>
</mgrwt>
</event>
<event>
 6    1  0.1929825E-004  0.3000000E+03  0.7818608E-02  0.1093470E+00
          1   -1    0    0  502    0  0.00000000000E+00  0.00000000000E+00  0.40748272527E+02  0.40748272527E+02  0.00000000000E+00 0.  1.
         13   -1    0    0    0    0 -0.00000000000E+00 -0.00000000000E+00 -0.10000000000E+04  0.10000000000E+04  0.00000000000E+00 0.  1.
    9000005    2    1    2  501    0 -0.12903954943E+02  0.42620464163E+02 -0.92663678016E+03  0.98555089209E+03  0.33267374790E+03 0.  0.
         13    1    3    3    0    0  0.55743790840E+02  0.17624860901E+03 -0.48280052924E+03  0.51697900675E+03  0.00000000000E+00 0.  1.
          1    1    3    3  501    0 -0.68647745784E+02 -0.13362814484E+03 -0.44383625092E+03  0.46857188534E+03  0.00000000000E+00 0.  1.
         21    1    1    2  502  501  0.12903954943E+02 -0.42620464163E+02 -0.32614947314E+02  0.55197380435E+02  0.00000000000E+00 0.  1.
<mgrwt>
<rscale>  1 0.30000000E+03</rscale>
<asrwt>0</asrwt>
<pdfrwt beam="1">  1        1 0.14817585E+00 0.30000000E+03</pdfrwt>
<pdfrwt beam="2">0</pdfrwt>
<totfact> 0.18353785E+01</totfact>
</mgrwt>
</event>
<event>
 6    1  0.1929825E-004  0.3000000E+03  0.7818608E-02  0.1093470E+00
          1   -1    0    0  502    0  0.00000000000E+00  0.00000000000E+00  0.44502569617E+02  0.44502569617E+02  0.00000000000E+00 0.  1.
         13   -1    0    0    0    0 -0.00000000000E+00 -0.00000000000E+00 -0.10000000000E+04  0.10000000000E+04  0.00000000000E+00 0.  1.
    9000005    2    1    2  501    0 -0.11953164407E+02  0.67936777084E+02 -0.76373128502E+03  0.84070723521E+03  0.34459381276E+03 0.  0.
         13    1    3    3    0    0  0.24414795575E+02 -0.13228706721E+03 -0.42254351757E+03  0.44343993352E+03  0.00000000000E+00 0.  1.
          1    1    3    3  501    0 -0.36367959982E+02  0.20022384429E+03 -0.34118776745E+03  0.39726730169E+03  0.00000000000E+00 0.  1.
         21    1    1    2  502  501  0.11953164407E+02 -0.67936777084E+02 -0.19176614536E+03  0.20379533441E+03  0.00000000000E+00 0. -1.
<mgrwt>
<rscale>  1 0.30000000E+03</rscale>
<asrwt>0</asrwt>
<pdfrwt beam="1">  1        1 0.16182787E+00 0.30000000E+03</pdfrwt>
<pdfrwt beam="2">0</pdfrwt>
<totfact> 0.15672472E+01</totfact>
</mgrwt>
</event>
<event>
 6    1  0.1929825E-004  0.3000000E+03  0.7818608E-02  0.1093470E+00
          1   -1    0    0  502    0  0.00000000000E+00  0.00000000000E+00  0.38703521468E+02  0.38703521468E+02  0.00000000000E+00 0.  1.
         13   -1    0    0    0    0 -0.00000000000E+00 -0.00000000000E+00 -0.10000000000E+04  0.10000000000E+04  0.00000000000E+00 0.  1.
    9000005    2    1    2  501    0  0.53878193508E+01  0.11660495883E+02 -0.97020040388E+03  0.10230742013E+04  0.32438711742E+03 0.  0.
         13    1    3    3    0    0  0.93041865525E+02 -0.57011342626E+02 -0.85830878294E+03  0.86521734194E+03  0.00000000000E+00 0.  1.
          1    1    3    3  501    0 -0.87654046175E+02  0.68671838510E+02 -0.11189162095E+03  0.15785685938E+03  0.00000000000E+00 0.  1.
         21    1    1    2  502  501 -0.53878193508E+01 -0.11660495883E+02  0.89039253518E+01  0.15629320148E+02  0.00000000000E+00 0.  1.
<mgrwt>
<rscale>  1 0.30000000E+03</rscale>
<asrwt>0</asrwt>
<pdfrwt beam="1">  1        1 0.14074037E+00 0.30000000E+03</pdfrwt>
<pdfrwt beam="2">0</pdfrwt>
<totfact> 0.20052395E+01</totfact>
</mgrwt>
</event>
<event>
 6    1  0.1929825E-004  0.3000000E+03  0.7818608E-02  0.1093470E+00
          1   -1    0    0  502    0  0.00000000000E+00  0.00000000000E+00  0.61213858877E+02  0.61213858877E+02  0.00000000000E+00 0.  1.
         13   -1    0    0    0    0 -0.00000000000E+00 -0.00000000000E+00 -0.10000000000E+04  0.10000000000E+04  0.00000000000E+00 0.  1.
    9000005    2    1    2  501    0 -0.10388721832E+02  0.90566518034E+01 -0.97308122056E+03  0.10242530559E+04  0.31940149065E+03 0.  0.
         13    1    3    3    0    0 -0.45876012727E+02  0.12817664056E+03 -0.20439871101E+03  0.24558642632E+03  0.00000000000E+00 0.  1.
          3    1    3    3  501    0  0.35487290895E+02 -0.11911998875E+03 -0.76868250955E+03  0.77866662958E+03  0.00000000000E+00 0.  1.
         21    1    1    2  502  501  0.10388721832E+02 -0.90566518034E+01  0.34295079437E+02  0.36960802978E+02  0.00000000000E+00 0.  1.
<mgrwt>
<rscale>  1 0.30000000E+03</rscale>
<asrwt>0</asrwt>
<pdfrwt beam="1">  1        1 0.22259632E+00 0.30000000E+03</pdfrwt>
<pdfrwt beam="2">0</pdfrwt>
<totfact> 0.80155382E+00</totfact>
</mgrwt>
</event>
<event>
 6    1  0.1929825E-004  0.3000000E+03  0.7818608E-02  0.1093470E+00
          1   -1    0    0  502    0  0.00000000000E+00  0.00000000000E+00  0.52117401938E+02  0.52117401938E+02  0.00000000000E+00 0.  1.
         13   -1    0    0    0    0 -0.00000000000E+00 -0.00000000000E+00 -0.10000000000E+04  0.10000000000E+04  0.00000000000E+00 0.  1.
    9000005    2    1    2  501    0  0.26480374057E+01  0.26621972445E+02 -0.93748262092E+03  0.10234137255E+04  0.40961719618E+03 0.  0.
         13    1    3    3    0    0  0.14398014903E+03  0.46181136233E+02 -0.83289121197E+03  0.84650502163E+03  0.00000000000E+00 0.  1.
          1    1    3    3  501    0 -0.14133211163E+03 -0.19559163788E+02 -0.10459140895E+03  0.17690870383E+03  0.00000000000E+00 0.  1.
         21    1    1    2  502  501 -0.26480374057E+01 -0.26621972445E+02 -0.10399977139E+02  0.28703676480E+02  0.00000000000E+00 0. -1.
<mgrwt>
<rscale>  1 0.30000000E+03</rscale>
<asrwt>0</asrwt>
<pdfrwt beam="1">  1        1 0.18951822E+00 0.30000000E+03</pdfrwt>
<pdfrwt beam="2">0</pdfrwt>
<totfact> 0.11495036E+01</totfact>
</mgrwt>
</event>
<event>
 6    1  0.1929825E-004  0.3000000E+03  0.7818608E-02  0.1093470E+00
          1   -1    0    0  502    0  0.00000000000E+00  0.00000000000E+00  0.34558782786E+02  0.34558782786E+02  0.00000000000E+00 0.  1.
         13   -1    0    0    0    0 -0.00000000000E+00 -0.00000000000E+00 -0.10000000000E+04  0.10000000000E+04  0.00000000000E+00 0.  1.
    9000005    2    1    2  501    0  0.44941203428E+01 -0.20741305185E+02 -0.94339816808E+03  0.10039598470E+04  0.34276066273E+03 0.  0.
         13    1    3    3    0    0 -0.10651946468E+03 -0.99659914170E+01 -0.80512014024E+02  0.13389511471E+03  0.00000000000E+00 0.  1.
          1    1    3    3  501    0  0.11101358502E+03 -0.10775313768E+02 -0.86288615406E+03  0.87006473226E+03  0.00000000000E+00 0.  1.
         21    1    1    2  502  501 -0.44941203428E+01  0.20741305185E+02 -0.22043049129E+02  0.30598935820E+02  0.00000000000E+00 0. -1.
<mgrwt>
<rscale>  1 0.30000000E+03</rscale>
<asrwt>0</asrwt>
<pdfrwt beam="1">  1        1 0.12566857E+00 0.30000000E+03</pdfrwt>
<pdfrwt beam="2">0</pdfrwt>
<totfact> 0.24167065E+01</totfact>
</mgrwt>
</event>
<event>
 6    1  0.1929825E-004  0.3000000E+03  0.7818608E-02  0.1093470E+00
          1   -1    0    0  502    0  0.00000000000E+00  0.00000000000E+00  0.29660245621E+02  0.29660245621E+02  0.00000000000E+00 0.  1.
         13   -1    0    0    0    0 -0.00000000000E+00 -0.00000000000E+00 -0.10000000000E+04  0.10000000000E+04  0.00000000000E+00 0.  1.
    9000005    2    1    2  501    0 -0.11496460813E+02 -0.13077119840E+02 -0.84959221887E+03  0.90766374154E+03  0.31897233372E+03 0.  0.
         13    1    3    3    0    0 -0.32589266423E+02  0.13727648833E+03 -0.23073176927E+03  0.27045155552E+03  0.00000000000E+00 0.  1.
          1    1    3    3  501    0  0.21092805611E+02 -0.15035360817E+03 -0.61886044960E+03  0.63721218602E+03  0.00000000000E+00 0.  1.
         21    1    1    2  502  501  0.11496460813E+02  0.13077119840E+02 -0.12074753551E+03  0.12199650408E+03  0.00000000000E+00 0. -1.
<mgrwt>
<rscale>  1 0.30000000E+03</rscale>
<asrwt>0</asrwt>
<pdfrwt beam="1">  1        1 0.10785567E+00 0.30000000E+03</pdfrwt>
<pdfrwt beam="2">0</pdfrwt>
<totfact> 0.30602633E+01</totfact>
</mgrwt>
</event>
<event>
 6    1  0.1929825E-004  0.3000000E+03  0.7818608E-02  0.1093470E+00
          1   -1    0    0  502    0  0.00000000000E+00  0.00000000000E+00  0.38551978957E+02  0.38551978957E+02  0.00000000000E+00 0.  1.
         13   -1    0    0    0    0 -0.00000000000E+00 -0.00000000000E+00 -0.10000000000E+04  0.10000000000E+04  0.00000000000E+00 0.  1.
    9000005    2    1    2  501    0  0.23300353173E+01  0.18938120596E+02 -0.96387776136E+03  0.10193169818E+04  0.33103276142E+03 0.  0.
         13    1    3    3    0    0 -0.95167317466E+02 -0.10513042333E+03 -0.67907302251E+03  0.69372140959E+03  0.00000000000E+00 0.  1.
          3    1    3    3  501    0  0.97497352783E+02  0.12406854393E+03 -0.28480473885E+03  0.32559557224E+03  0.00000000000E+00 0.  1.
         21    1    1    2  502  501 -0.23300353173E+01 -0.18938120596E+02  0.24297403201E+01  0.19234997123E+02  0.00000000000E+00 0.  1.
<mgrwt>
<rscale>  1 0.30000000E+03</rscale>
<asrwt>0</asrwt>
<pdfrwt beam="1">  1        1 0.14018931E+00 0.30000000E+03</pdfrwt>
<pdfrwt beam="2">0</pdfrwt>
<totfact> 0.20186054E+01</totfact>
</mgrwt>
</event>
<event>
 6    1  0.1929825E-004  0.3000000E+03  0.7818608E-02  0.1093470E+00
          1   -1    0    0  502    0  0.00000000000E+00  0.00000000000E+00  0.59568111696E+02  0.59568111696E+02  0.00000000000E+00 0.  1.
         13   -1    0    0    0    0 -0.00000000000E+00 -0.00000000000E+00 -0.10000000000E+04  0.10000000000E+04  0.00000000000E+00 0.  1.
    9000005    2    1    2  501    0 -0.29247016004E+02 -0.12748681179E+02 -0.94520093700E+03  0.10273088395E+04  0.40117418111E+03 0.  0.
         13    1    3    3    0    0 -0.65925814357E+02  0.13339551041E+03 -0.12783040339E+03  0.19616622346E+03  0.00000000000E+00 0.  1.
          3    1    3    3  501    0  0.36678798353E+02 -0.14614419159E+03 -0.81737053361E+03  0.83114261604E+03  0.00000000000E+00 0.  1.
         21    1    1    2  502  501  0.29247016004E+02  0.12748681179E+02  0.47690486993E+01  0.32259272194E+02  0.00000000000E+00 0.  1.
<mgrwt>
<rscale>  1 0.30000000E+03</rscale>
<asrwt>0</asrwt>
<pdfrwt beam="1">  1        1 0.21661177E+00 0.30000000E+03</pdfrwt>
<pdfrwt beam="2">0</pdfrwt>
<totfact> 0.85505826E+00</totfact>
</mgrwt>
</event>
<event>
 6    1  0.1929825E-004  0.3000000E+03  0.7818608E-02  0.1093470E+00
          1   -1    0    0  502    0  0.00000000000E+00  0.00000000000E+00  0.42798832556E+02  0.42798832556E+02  0.00000000000E+00 0.  1.
         13   -1    0    0    0    0 -0.00000000000E+00 -0.00000000000E+00 -0.10000000000E+04  0.10000000000E+04  0.00000000000E+00 0.  1.
    9000005    2    1    2  501    0 -0.21478930315E+02  0.30587353954E+02 -0.94035345839E+03  0.10018015647E+04  0.34343095043E+03 0.  0.
         13    1    3    3    0    0 -0.98455666133E+02 -0.12847713784E+03 -0.35096885254E+03  0.38649583257E+03  0.00000000000E+00 0.  1.
          1    1    3    3  501    0  0.76976735818E+02  0.15906449180E+03 -0.58938460584E+03  0.61530573215E+03  0.00000000000E+00 0.  1.
         21    1    1    2  502  501  0.21478930315E+02 -0.30587353954E+02 -0.16847709057E+02  0.40997267834E+02  0.00000000000E+00 0. -1.
<mgrwt>
<rscale>  1 0.30000000E+03</rscale>
<asrwt>0</asrwt>
<pdfrwt beam="1">  1        1 0.15563245E+00 0.30000000E+03</pdfrwt>
<pdfrwt beam="2">0</pdfrwt>
<totfact> 0.16826564E+01</totfact>
</mgrwt>
</event>
<event>
 6    1  0.1929825E-004  0.3000000E+03  0.7818608E-02  0.1093470E+00
          3   -1    0    0  502    0  0.00000000000E+00  0.00000000000E+00  0.32619041364E+02  0.32619041364E+02  0.00000000000E+00 0.  1.
         13   -1    0    0    0    0 -0.00000000000E+00 -0.00000000000E+00 -0.10000000000E+04  0.10000000000E+04  0.00000000000E+00 0.  1.
    9000005    2    1    2  501    0 -0.10538352087E+02 -0.89367631649E+01 -0.96759245084E+03  0.10187999484E+04  0.31863342794E+03 0.  0.
         13    1    3    3    0    0 -0.16026811635E+03 -0.37583478923E+02 -0.44708596729E+03  0.47642864015E+03  0.00000000000E+00 0.  1.
          1    1    3    3  501    0  0.14972976426E+03  0.28646715759E+02 -0.52050648355E+03  0.54237130828E+03  0.00000000000E+00 0.  1.
         21    1    1    2  502  501  0.10538352087E+02  0.89367631649E+01  0.21149220324E+00  0.13819092935E+02  0.00000000000E+00 0.  1.
<mgrwt>
<rscale>  1 0.30000000E+03</rscale>
<asrwt>0</asrwt>
<pdfrwt beam="1">  1        3 0.11861495E+00 0.30000000E+03</pdfrwt>
<pdfrwt beam="2">0</pdfrwt>
<totfact> 0.24000227E+00</totfact>
</mgrwt>
</event>
<event>
 6    1  0.1929825E-004  0.3000000E+03  0.7818608E-02  0.1093470E+00
          1   -1    0    0  502    0  0.00000000000E+00  0.00000000000E+00  0.30896847983E+02  0.30896847983E+02  0.00000000000E+00 0.  1.
         13   -1    0    0    0    0 -0.00000000000E+00 -0.00000000000E+00 -0.10000000000E+04  0.10000000000E+04  0.00000000000E+00 0.  1.
    9000005    2    1    2  501    0 -0.16038379867E+02 -0.24689762625E+01 -0.94714670819E+03  0.10035946338E+04  0.33143925044E+03 0.  0.
         13    1    3    3    0    0  0.19226653219E+02 -0.10179876438E+03 -0.86170442950E+03  0.86790965914E+03  0.00000000000E+00 0.  1.
          3    1    3    3  501    0 -0.35265033086E+02  0.99329788113E+02 -0.85442278692E+02  0.13568497468E+03  0.00000000000E+00 0.  1.
         21    1    1    2  502  501  0.16038379867E+02  0.24689762625E+01 -0.21956443830E+02  0.27302214163E+02  0.00000000000E+00 0. -1.
<mgrwt>
<rscale>  1 0.30000000E+03</rscale>
<asrwt>0</asrwt>
<pdfrwt beam="1">  1        1 0.11235241E+00 0.30000000E+03</pdfrwt>
<pdfrwt beam="2">0</pdfrwt>
<totfact> 0.28771960E+01</totfact>
</mgrwt>
</event>
<event>
 6    1  0.1929825E-004  0.3000000E+03  0.7818608E-02  0.1093470E+00
          1   -1    0    0  502    0  0.00000000000E+00  0.00000000000E+00  0.44913597425E+02  0.44913597425E+02  0.00000000000E+00 0.  1.
         13   -1    0    0    0    0 -0.00000000000E+00 -0.00000000000E+00 -0.10000000000E+04  0.10000000000E+04  0.00000000000E+00 0.  1.
    9000005    2    1    2  501    0  0.10921258225E+02  0.41308785378E+02 -0.91881175305E+03  0.98886415649E+03  0.36305866306E+03 0.  0.
         13    1    3    3    0    0  0.32930261782E+02 -0.44474989578E+02  0.96619091700E+01  0.56176323552E+02  0.00000000000E+00 0.  1.
          3    1    3    3  501    0 -0.22009003557E+02  0.85783774956E+02 -0.92847366222E+03  0.93268783294E+03  0.00000000000E+00 0.  1.
         21    1    1    2  502  501 -0.10921258225E+02 -0.41308785378E+02 -0.36274649529E+02  0.56049440934E+02  0.00000000000E+00 0.  1.
<mgrwt>
<rscale>  1 0.30000000E+03</rscale>
<asrwt>0</asrwt>
<pdfrwt beam="1">  1        1 0.16332252E+00 0.30000000E+03</pdfrwt>
<pdfrwt beam="2">0</pdfrwt>
<totfact> 0.15408020E+01</totfact>
</mgrwt>
</event>
<event>
 6    1  0.1929825E-004  0.3000000E+03  0.7818608E-02  0.1093470E+00
          1   -1    0    0  502    0  0.00000000000E+00  0.00000000000E+00  0.69424028988E+02  0.69424028988E+02  0.00000000000E+00 0.  1.
         13   -1    0    0    0    0 -0.00000000000E+00 -0.00000000000E+00 -0.10000000000E+04  0.10000000000E+04  0.00000000000E+00 0.  1.
    9000005    2    1    2  501    0  0.11225013238E+03  0.30259213961E+02 -0.83355432227E+03  0.91800106979E+03  0.36660256914E+03 0.  0.
         13    1    3    3    0    0 -0.37029039549E+02 -0.28084855504E+02  0.19222588261E+02  0.50293307487E+02  0.00000000000E+00 0.  1.
          3    1    3    3  501    0  0.14927917193E+03  0.58344069465E+02 -0.85277691053E+03  0.86770776230E+03  0.00000000000E+00 0.  1.
         21    1    1    2  502  501 -0.11225013238E+03 -0.30259213961E+02 -0.97021648739E+02  0.15142295920E+03  0.00000000000E+00 0.  1.
<mgrwt>
<rscale>  1 0.30000000E+03</rscale>
<asrwt>0</asrwt>
<pdfrwt beam="1">  1        1 0.25245155E+00 0.30000000E+03</pdfrwt>
<pdfrwt beam="2">0</pdfrwt>
<totfact> 0.58113240E+00</totfact>
</mgrwt>
</event>
<event>
 6    1  0.1929825E-004  0.3000000E+03  0.7818608E-02  0.1093470E+00
          1   -1    0    0  502    0  0.00000000000E+00  0.00000000000E+00  0.39319090036E+02  0.39319090036E+02  0.00000000000E+00 0.  1.
         13   -1    0    0    0    0 -0.00000000000E+00 -0.00000000000E+00 -0.10000000000E+04  0.10000000000E+04  0.00000000000E+00 0.  1.
    9000005    2    1    2  501    0  0.32958626674E+02 -0.27593344132E+02 -0.92437888739E+03  0.98305630877E+03  0.33177660413E+03 0.  0.
         13    1    3    3    0    0  0.11113127164E+02  0.12244382300E+03 -0.70948304167E+03  0.72005706566E+03  0.00000000000E+00 0.  1.
          3    1    3    3  501    0  0.21845499509E+02 -0.15003716714E+03 -0.21489584572E+03  0.26299924312E+03  0.00000000000E+00 0.  1.
         21    1    1    2  502  501 -0.32958626674E+02  0.27593344132E+02 -0.36302022572E+02  0.56262781262E+02  0.00000000000E+00 0. -1.
<mgrwt>
<rscale>  1 0.30000000E+03</rscale>
<asrwt>0</asrwt>
<pdfrwt beam="1">  1        1 0.14297881E+00 0.30000000E+03</pdfrwt>
<pdfrwt beam="2">0</pdfrwt>
<totfact> 0.19520888E+01</totfact>
</mgrwt>
</event>
<event>
 6    1  0.1929825E-004  0.3000000E+03  0.7818608E-02  0.1093470E+00
          1   -1    0    0  502    0  0.00000000000E+00  0.00000000000E+00  0.26724961708E+02  0.26724961708E+02  0.00000000000E+00 0.  1.
         13   -1    0    0    0    0 -0.00000000000E+00 -0.00000000000E+00 -0.10000000000E+04  0.10000000000E+04  0.00000000000E+00 0.  1.
    9000005    2    1    2  501    0 -0.79035236702E+01 -0.58581027510E+01 -0.95482907755E+03  0.10058195432E+04  0.31603418034E+03 0.  0.
         13    1    3    3    0    0  0.12191398974E+03  0.22817698436E+02 -0.17358064724E+03  0.21333989161E+03  0.00000000000E+00 0.  1.
          3    1    3    3  501    0 -0.12981751341E+03 -0.28675801187E+02 -0.78124843031E+03  0.79247965161E+03  0.00000000000E+00 0.  1.
         21    1    1    2  502  501  0.79035236702E+01  0.58581027510E+01 -0.18445960743E+02  0.20905418484E+02  0.00000000000E+00 0. -1.
<mgrwt>
<rscale>  1 0.30000000E+03</rscale>
<asrwt>0</asrwt>
<pdfrwt beam="1">  1        1 0.97181884E-01 0.30000000E+03</pdfrwt>
<pdfrwt beam="2">0</pdfrwt>
<totfact> 0.35681288E+01</totfact>
</mgrwt>
</event>
<event>
 6    1  0.1929825E-004  0.3000000E+03  0.7818608E-02  0.1093470E+00
          1   -1    0    0  502    0  0.00000000000E+00  0.00000000000E+00  0.34426803228E+02  0.34426803228E+02  0.00000000000E+00 0.  1.
         13   -1    0    0    0    0 -0.00000000000E+00 -0.00000000000E+00 -0.10000000000E+04  0.10000000000E+04  0.00000000000E+00 0.  1.
    9000005    2    1    2  501    0  0.24466539534E+02 -0.13637043641E+02 -0.91182638901E+03  0.97381904910E+03  0.34075151676E+03 0.  0.
         13    1    3    3    0    0  0.91317130507E+01 -0.13396503164E+03 -0.79203869189E+03  0.80334009444E+03  0.00000000000E+00 0.  1.
          1    1    3    3  501    0  0.15334826484E+02  0.12032798800E+03 -0.11978769712E+03  0.17047895466E+03  0.00000000000E+00 0.  1.
         21    1    1    2  502  501 -0.24466539534E+02  0.13637043641E+02 -0.53746807763E+02  0.60607754131E+02  0.00000000000E+00 0.  1.
<mgrwt>
<rscale>  1 0.30000000E+03</rscale>
<asrwt>0</asrwt>
<pdfrwt beam="1">  1        1 0.12518864E+00 0.30000000E+03</pdfrwt>
<pdfrwt beam="2">0</pdfrwt>
<totfact> 0.24315345E+01</totfact>
</mgrwt>
</event>
<event>
 6    1  0.1929825E-004  0.3000000E+03  0.7818608E-02  0.1093470E+00
          1   -1    0    0  502    0  0.00000000000E+00  0.00000000000E+00  0.29320551853E+02  0.29320551853E+02  0.00000000000E+00 0.  1.
         13   -1    0    0    0    0 -0.00000000000E+00 -0.00000000000E+00 -0.10000000000E+04  0.10000000000E+04  0.00000000000E+00 0.  1.
    9000005    2    1    2  501    0  0.20672683586E+02  0.79389601843E+01 -0.91728476784E+03  0.97151589096E+03  0.31928262425E+03 0.  0.
         13    1    3    3    0    0 -0.11590202511E+03 -0.14744744679E+02 -0.72625562891E+03  0.73559358714E+03  0.00000000000E+00 0.  1.
          1    1    3    3  501    0  0.13657470869E+03  0.22683704863E+02 -0.19102913893E+03  0.23592230382E+03  0.00000000000E+00 0.  1.
         21    1    1    2  502  501 -0.20672683586E+02 -0.79389601843E+01 -0.53394680312E+02  0.57804660894E+02  0.00000000000E+00 0.  1.
<mgrwt>
<rscale>  1 0.30000000E+03</rscale>
<asrwt>0</asrwt>
<pdfrwt beam="1">  1        1 0.10662041E+00 0.30000000E+03</pdfrwt>
<pdfrwt beam="2">0</pdfrwt>
<totfact> 0.31134553E+01</totfact>
</mgrwt>
</event>
<event>
 6    1  0.1929825E-004  0.3000000E+03  0.7818608E-02  0.1093470E+00
          1   -1    0    0  502    0  0.00000000000E+00  0.00000000000E+00  0.29496819524E+02  0.29496819524E+02  0.00000000000E+00 0.  1.
         13   -1    0    0    0    0 -0.00000000000E+00 -0.00000000000E+00 -0.10000000000E+04  0.10000000000E+04  0.00000000000E+00 0.  1.
    9000005    2    1    2  501    0  0.54362429771E+01 -0.58731172251E+01 -0.95240989047E+03  0.10097126494E+04  0.33521782274E+03 0.  0.
         13    1    3    3    0    0 -0.83858292096E+02  0.15523309368E+01 -0.90397368847E+03  0.90785629498E+03  0.00000000000E+00 0.  1.
          1    1    3    3  501    0  0.89294535073E+02 -0.74254481619E+01 -0.48436201992E+02  0.10185635443E+03  0.00000000000E+00 0.  1.
         21    1    1    2  502  501 -0.54362429771E+01  0.58731172251E+01 -0.18093290010E+02  0.19784170112E+02  0.00000000000E+00 0. -1.
<mgrwt>
<rscale>  1 0.30000000E+03</rscale>
<asrwt>0</asrwt>
<pdfrwt beam="1">  1        1 0.10726139E+00 0.30000000E+03</pdfrwt>
<pdfrwt beam="2">0</pdfrwt>
<totfact> 0.30856898E+01</totfact>
</mgrwt>
</event>
<event>
 6    1  0.1929825E-004  0.3000000E+03  0.7818608E-02  0.1093470E+00
          1   -1    0    0  502    0  0.00000000000E+00  0.00000000000E+00  0.17879387889E+02  0.17879387889E+02  0.00000000000E+00 0.  1.
         13   -1    0    0    0    0 -0.00000000000E+00 -0.00000000000E+00 -0.10000000000E+04  0.10000000000E+04  0.00000000000E+00 0.  1.
    9000005    2    1    2  501    0  0.95935101300E-01  0.98230156076E+01 -0.96042149346E+03  0.99406022355E+03  0.25622213433E+03 0.  0.
         13    1    3    3    0    0 -0.60737730068E+02 -0.48017719407E+02 -0.85866473897E+03  0.86214842527E+03  0.00000000000E+00 0.  1.
          3    1    3    3  501    0  0.60833665170E+02  0.57840735015E+02 -0.10175675448E+03  0.13191179829E+03  0.00000000000E+00 0.  1.
         21    1    1    2  502  501 -0.95935101300E-01 -0.98230156076E+01 -0.21699118655E+02  0.23819164334E+02  0.00000000000E+00 0.  1.
<mgrwt>
<rscale>  1 0.30000000E+03</rscale>
<asrwt>0</asrwt>
<pdfrwt beam="1">  1        1 0.65016093E-01 0.30000000E+03</pdfrwt>
<pdfrwt beam="2">0</pdfrwt>
<totfact> 0.62294269E+01</totfact>
</mgrwt>
</event>
<event>
 6    1  0.1929825E-004  0.3000000E+03  0.7818608E-02  0.1093470E+00
          1   -1    0    0  502    0  0.00000000000E+00  0.00000000000E+00  0.31678615038E+02  0.31678615038E+02  0.00000000000E+00 0.  1.
         13   -1    0    0    0    0 -0.00000000000E+00 -0.00000000000E+00 -0.10000000000E+04  0.10000000000E+04  0.00000000000E+00 0.  1.
    9000005    2    1    2  501    0  0.13983752444E+02 -0.52526070443E+01 -0.95974026785E+03  0.10144515786E+04  0.32831004919E+03 0.  0.
         13    1    3    3    0    0  0.58801806298E+02  0.12048729770E+03 -0.18601458915E+03  0.22929515631E+03  0.00000000000E+00 0.  1.
          1    1    3    3  501    0 -0.44818053854E+02 -0.12573990475E+03 -0.77372567870E+03  0.78515642230E+03  0.00000000000E+00 0.  1.
         21    1    1    2  502  501 -0.13983752444E+02  0.52526070443E+01 -0.85811171145E+01  0.17227036429E+02  0.00000000000E+00 0.  1.
<mgrwt>
<rscale>  1 0.30000000E+03</rscale>
<asrwt>0</asrwt>
<pdfrwt beam="1">  1        1 0.11519521E+00 0.30000000E+03</pdfrwt>
<pdfrwt beam="2">0</pdfrwt>
<totfact> 0.27693947E+01</totfact>
</mgrwt>
</event>
<event>
 6    1  0.1929825E-004  0.3000000E+03  0.7818608E-02  0.1093470E+00
          1   -1    0    0  502    0  0.00000000000E+00  0.00000000000E+00  0.40229144122E+02  0.40229144122E+02  0.00000000000E+00 0.  1.
         13   -1    0    0    0    0 -0.00000000000E+00 -0.00000000000E+00 -0.10000000000E+04  0.10000000000E+04  0.00000000000E+00 0.  1.
    9000005    2    1    2  501    0 -0.23129795135E+02 -0.58530318025E+02 -0.84264603010E+03  0.90726670445E+03  0.33033279492E+03 0.  0.
         13    1    3    3    0    0  0.50120095506E+02 -0.13963647842E+03 -0.16928707629E+03  0.22509661099E+03  0.00000000000E+00 0.  1.
          1    1    3    3  501    0 -0.73249890641E+02  0.81106160398E+02 -0.67335895381E+03  0.68217009345E+03  0.00000000000E+00 0.  1.
         21    1    1    2  502  501  0.23129795135E+02  0.58530318025E+02 -0.11712482578E+03  0.13296243968E+03  0.00000000000E+00 0.  1.
<mgrwt>
<rscale>  1 0.30000000E+03</rscale>
<asrwt>0</asrwt>
<pdfrwt beam="1">  1        1 0.14628811E+00 0.30000000E+03</pdfrwt>
<pdfrwt beam="2">0</pdfrwt>
<totfact> 0.18767304E+01</totfact>
</mgrwt>
</event>
<event>
 6    1  0.1929825E-004  0.3000000E+03  0.7818608E-02  0.1093470E+00
          1   -1    0    0  502    0  0.00000000000E+00  0.00000000000E+00  0.34490730225E+02  0.34490730225E+02  0.00000000000E+00 0.  1.
         13   -1    0    0    0    0 -0.00000000000E+00 -0.00000000000E+00 -0.10000000000E+04  0.10000000000E+04  0.00000000000E+00 0.  1.
    9000005    2    1    2  501    0 -0.18946520545E+02 -0.15225275655E+00 -0.95705798411E+03  0.10137442112E+04  0.33370398110E+03 0.  0.
         13    1    3    3    0    0 -0.55554613433E+02 -0.51127437029E+01 -0.97221406173E+03  0.97381345084E+03  0.00000000000E+00 0.  1.
          3    1    3    3  501    0  0.36608092887E+02  0.49604909464E+01  0.15156077616E+02  0.39930760373E+02  0.00000000000E+00 0.  1.
         21    1    1    2  502  501  0.18946520545E+02  0.15225275655E+00 -0.84512856650E+01  0.20746519011E+02  0.00000000000E+00 0.  1.
<mgrwt>
<rscale>  1 0.30000000E+03</rscale>
<asrwt>0</asrwt>
<pdfrwt beam="1">  1        1 0.12542110E+00 0.30000000E+03</pdfrwt>
<pdfrwt beam="2">0</pdfrwt>
<totfact> 0.24243378E+01</totfact>
</mgrwt>
</event>
<event>
 6    1  0.1929825E-004  0.3000000E+03  0.7818608E-02  0.1093470E+00
          1   -1    0    0  502    0  0.00000000000E+00  0.00000000000E+00  0.36750715477E+02  0.36750715477E+02  0.00000000000E+00 0.  1.
         13   -1    0    0    0    0 -0.00000000000E+00 -0.00000000000E+00 -0.10000000000E+04  0.10000000000E+04  0.00000000000E+00 0.  1.
    9000005    2    1    2  501    0  0.38820258612E+02  0.26799345344E+02 -0.88713740455E+03  0.94720611395E+03  0.32857484743E+03 0.  0.
         13    1    3    3    0    0 -0.13815877291E+03  0.60172715835E+02 -0.36514803947E+03  0.39502112980E+03  0.00000000000E+00 0.  1.
          1    1    3    3  501    0  0.17697903153E+03 -0.33373370491E+02 -0.52198936508E+03  0.55218498415E+03  0.00000000000E+00 0.  1.
         21    1    1    2  502  501 -0.38820258612E+02 -0.26799345344E+02 -0.76111879973E+02  0.89544601527E+02  0.00000000000E+00 0.  1.
<mgrwt>
<rscale>  1 0.30000000E+03</rscale>
<asrwt>0</asrwt>
<pdfrwt beam="1">  1        1 0.13363925E+00 0.30000000E+03</pdfrwt>
<pdfrwt beam="2">0</pdfrwt>
<totfact> 0.21866257E+01</totfact>
</mgrwt>
</event>
<event>
 6    1  0.1929825E-004  0.3000000E+03  0.7818608E-02  0.1093470E+00
          3   -1    0    0  502    0  0.00000000000E+00  0.00000000000E+00  0.24634171688E+02  0.24634171688E+02  0.00000000000E+00 0.  1.
         13   -1    0    0    0    0 -0.00000000000E+00 -0.00000000000E+00 -0.10000000000E+04  0.10000000000E+04  0.00000000000E+00 0.  1.
    9000005    2    1    2  501    0 -0.15787523325E+02  0.86877126181E+01 -0.95893006144E+03  0.10002444879E+04  0.28393212318E+03 0.  0.
         13    1    3    3    0    0 -0.74590388598E+02  0.34761520025E+02 -0.92281132823E+03  0.92647333305E+03  0.00000000000E+00 0.  1.
          3    1    3    3  501    0  0.58802865273E+02 -0.26073807407E+02 -0.36118733209E+02  0.73771154835E+02  0.00000000000E+00 0.  1.
         21    1    1    2  502  501  0.15787523325E+02 -0.86877126181E+01 -0.16435766874E+02  0.24389683803E+02  0.00000000000E+00 0.  1.
<mgrwt>
<rscale>  1 0.30000000E+03</rscale>
<asrwt>0</asrwt>
<pdfrwt beam="1">  1        3 0.89578995E-01 0.30000000E+03</pdfrwt>
<pdfrwt beam="2">0</pdfrwt>
<totfact> 0.51601383E+00</totfact>
</mgrwt>
</event>
<event>
 6    1  0.1929825E-004  0.3000000E+03  0.7818608E-02  0.1093470E+00
          1   -1    0    0  502    0  0.00000000000E+00  0.00000000000E+00  0.54538277229E+02  0.54538277229E+02  0.00000000000E+00 0.  1.
         13   -1    0    0    0    0 -0.00000000000E+00 -0.00000000000E+00 -0.10000000000E+04  0.10000000000E+04  0.00000000000E+00 0.  1.
    9000005    2    1    2  501    0  0.91163458044E+02  0.68788019220E+02 -0.71274454161E+03  0.79530893074E+03  0.33386965429E+03 0.  0.
         13    1    3    3    0    0 -0.73048362277E+02  0.92377980557E+02 -0.82999521569E+02  0.14407871149E+03  0.00000000000E+00 0.  1.
          3    1    3    3  501    0  0.16421182032E+03 -0.23589961337E+02 -0.62974502004E+03  0.65123021926E+03  0.00000000000E+00 0.  1.
         21    1    1    2  502  501 -0.91163458044E+02 -0.68788019220E+02 -0.23271718116E+03  0.25922934649E+03  0.00000000000E+00 0.  1.
<mgrwt>
<rscale>  1 0.30000000E+03</rscale>
<asrwt>0</asrwt>
<pdfrwt beam="1">  1        1 0.19832143E+00 0.30000000E+03</pdfrwt>
<pdfrwt beam="2">0</pdfrwt>
<totfact> 0.10433454E+01</totfact>
</mgrwt>
</event>
<event>
 6    1  0.1929825E-004  0.3000000E+03  0.7818608E-02  0.1093470E+00
          1   -1    0    0  502    0  0.00000000000E+00  0.00000000000E+00  0.29714805236E+02  0.29714805236E+02  0.00000000000E+00 0.  1.
         13   -1    0    0    0    0 -0.00000000000E+00 -0.00000000000E+00 -0.10000000000E+04  0.10000000000E+04  0.00000000000E+00 0.  1.
    9000005    2    1    2  501    0  0.17913367039E+02  0.41568963330E+01 -0.79889540758E+03  0.85734129318E+03  0.31058340626E+03 0.  0.
         13    1    3    3    0    0  0.69669314217E+02  0.91980222034E+02 -0.71797681602E+03  0.72718971592E+03  0.00000000000E+00 0.  1.
          1    1    3    3  501    0 -0.51755947178E+02 -0.87823325701E+02 -0.80918591554E+02  0.13015157727E+03  0.00000000000E+00 0.  1.
         21    1    1    2  502  501 -0.17913367039E+02 -0.41568963330E+01 -0.17138978719E+03  0.17237351205E+03  0.00000000000E+00 0. -1.
<mgrwt>
<rscale>  1 0.30000000E+03</rscale>
<asrwt>0</asrwt>
<pdfrwt beam="1">  1        1 0.10805407E+00 0.30000000E+03</pdfrwt>
<pdfrwt beam="2">0</pdfrwt>
<totfact> 0.30518415E+01</totfact>
</mgrwt>
</event>
<event>
 6    1  0.1929825E-004  0.3000000E+03  0.7818608E-02  0.1093470E+00
          1   -1    0    0  502    0  0.00000000000E+00  0.00000000000E+00  0.44838361788E+02  0.44838361788E+02  0.00000000000E+00 0.  1.
         13   -1    0    0    0    0 -0.00000000000E+00 -0.00000000000E+00 -0.10000000000E+04  0.10000000000E+04  0.00000000000E+00 0.  1.
    9000005    2    1    2  501    0  0.17802083173E+02  0.23951554561E+01 -0.96725050940E+03  0.10231867627E+04  0.33318906431E+03 0.  0.
         13    1    3    3    0    0 -0.30618413317E+02 -0.15797422655E+03 -0.38391793233E+03  0.41627673758E+03  0.00000000000E+00 0.  1.
          1    1    3    3  501    0  0.48420496490E+02  0.16036938200E+03 -0.58333257707E+03  0.60691002516E+03  0.00000000000E+00 0.  1.
         21    1    1    2  502  501 -0.17802083173E+02 -0.23951554561E+01  0.12088871186E+02  0.21651599052E+02  0.00000000000E+00 0.  1.
<mgrwt>
<rscale>  1 0.30000000E+03</rscale>
<asrwt>0</asrwt>
<pdfrwt beam="1">  1        1 0.16304893E+00 0.30000000E+03</pdfrwt>
<pdfrwt beam="2">0</pdfrwt>
<totfact> 0.15456040E+01</totfact>
</mgrwt>
</event>
<event>
 6    1  0.1929825E-004  0.3000000E+03  0.7818608E-02  0.1093470E+00
          1   -1    0    0  502    0  0.00000000000E+00  0.00000000000E+00  0.41031300323E+02  0.41031300323E+02  0.00000000000E+00 0.  1.
         13   -1    0    0    0    0 -0.00000000000E+00 -0.00000000000E+00 -0.10000000000E+04  0.10000000000E+04  0.00000000000E+00 0.  1.
    9000005    2    1    2  501    0 -0.38446408512E+02  0.29984330354E+02 -0.91662710414E+03  0.97645578556E+03  0.33299169166E+03 0.  0.
         13    1    3    3    0    0 -0.18385995228E+02 -0.13171894566E+03 -0.65401037653E+03  0.66739605788E+03  0.00000000000E+00 0.  1.
          3    1    3    3  501    0 -0.20060413284E+02  0.16170327601E+03 -0.26261672761E+03  0.30905972768E+03  0.00000000000E+00 0.  1.
         21    1    1    2  502  501  0.38446408512E+02 -0.29984330354E+02 -0.42341595537E+02  0.64575514762E+02  0.00000000000E+00 0. -1.
<mgrwt>
<rscale>  1 0.30000000E+03</rscale>
<asrwt>0</asrwt>
<pdfrwt beam="1">  1        1 0.14920504E+00 0.30000000E+03</pdfrwt>
<pdfrwt beam="2">0</pdfrwt>
<totfact> 0.18133133E+01</totfact>
</mgrwt>
</event>
<event>
 6    1  0.1929825E-004  0.3000000E+03  0.7818608E-02  0.1093470E+00
          1   -1    0    0  502    0  0.00000000000E+00  0.00000000000E+00  0.35551471772E+02  0.35551471772E+02  0.00000000000E+00 0.  1.
         13   -1    0    0    0    0 -0.00000000000E+00 -0.00000000000E+00 -0.10000000000E+04  0.10000000000E+04  0.00000000000E+00 0.  1.
    9000005    2    1    2  501    0 -0.17479185467E+02 -0.16311508574E+01 -0.96219671514E+03  0.10178525102E+04  0.33150117854E+03 0.  0.
         13    1    3    3    0    0 -0.24016080253E+02 -0.14672699046E+03 -0.24895657159E+03  0.28997406156E+03  0.00000000000E+00 0.  1.
          1    1    3    3  501    0  0.65368947863E+01  0.14509583960E+03 -0.71324014355E+03  0.72787844867E+03  0.00000000000E+00 0.  1.
         21    1    1    2  502  501  0.17479185467E+02  0.16311508574E+01 -0.22518130924E+01  0.17698961549E+02  0.00000000000E+00 0.  1.
<mgrwt>
<rscale>  1 0.30000000E+03</rscale>
<asrwt>0</asrwt>
<pdfrwt beam="1">  1        1 0.12927835E+00 0.30000000E+03</pdfrwt>
<pdfrwt beam="2">0</pdfrwt>
<totfact> 0.23088005E+01</totfact>
</mgrwt>
</event>
<event>
 6    1  0.1929825E-004  0.3000000E+03  0.7818608E-02  0.1093470E+00
          1   -1    0    0  502    0  0.00000000000E+00  0.00000000000E+00  0.27222328937E+02  0.27222328937E+02  0.00000000000E+00 0.  1.
         13   -1    0    0    0    0 -0.00000000000E+00 -0.00000000000E+00 -0.10000000000E+04  0.10000000000E+04  0.00000000000E+00 0.  1.
    9000005    2    1    2  501    0  0.35087575288E+02  0.34435302207E+02 -0.93894126308E+03  0.96754125587E+03  0.22827277172E+03 0.  0.
         13    1    3    3    0    0  0.12981630506E+02  0.51907687727E+02 -0.36753097520E+02  0.64913180119E+02  0.00000000000E+00 0.  1.
          1    1    3    3  501    0  0.22105944782E+02 -0.17472385521E+02 -0.90218816556E+03  0.90262807575E+03  0.00000000000E+00 0.  1.
         21    1    1    2  502  501 -0.35087575288E+02 -0.34435302207E+02 -0.33836407978E+02  0.59681073068E+02  0.00000000000E+00 0.  1.
<mgrwt>
<rscale>  1 0.30000000E+03</rscale>
<asrwt>0</asrwt>
<pdfrwt beam="1">  1        1 0.98990496E-01 0.30000000E+03</pdfrwt>
<pdfrwt beam="2">0</pdfrwt>
<totfact> 0.34737689E+01</totfact>
</mgrwt>
</event>
<event>
 6    1  0.1929825E-004  0.3000000E+03  0.7818608E-02  0.1093470E+00
          1   -1    0    0  502    0  0.00000000000E+00  0.00000000000E+00  0.48249319600E+02  0.48249319600E+02  0.00000000000E+00 0.  1.
         13   -1    0    0    0    0 -0.00000000000E+00 -0.00000000000E+00 -0.10000000000E+04  0.10000000000E+04  0.00000000000E+00 0.  1.
    9000005    2    1    2  501    0 -0.27846600569E+02  0.69812142787E+02 -0.88230530461E+03  0.94591736632E+03  0.33263770820E+03 0.  0.
         13    1    3    3    0    0  0.94896554646E+02 -0.94154048950E+02 -0.40598635870E+03  0.42742866594E+03  0.00000000000E+00 0.  1.
          1    1    3    3  501    0 -0.12274315522E+03  0.16396619174E+03 -0.47631894591E+03  0.51848870038E+03  0.00000000000E+00 0.  1.
         21    1    1    2  502  501  0.27846600569E+02 -0.69812142787E+02 -0.69445375789E+02  0.10233195328E+03  0.00000000000E+00 0.  1.
<mgrwt>
<rscale>  1 0.30000000E+03</rscale>
<asrwt>0</asrwt>
<pdfrwt beam="1">  1        1 0.17545244E+00 0.30000000E+03</pdfrwt>
<pdfrwt beam="2">0</pdfrwt>
<totfact> 0.13439643E+01</totfact>
</mgrwt>
</event>
<event>
 6    1  0.1929825E-004  0.3000000E+03  0.7818608E-02  0.1093470E+00
          1   -1    0    0  502    0  0.00000000000E+00  0.00000000000E+00  0.26343818309E+02  0.26343818309E+02  0.00000000000E+00 0.  1.
         13   -1    0    0    0    0 -0.00000000000E+00 -0.00000000000E+00 -0.10000000000E+04  0.10000000000E+04  0.00000000000E+00 0.  1.
    9000005    2    1    2  501    0 -0.66594140659E+01 -0.15629210542E+02 -0.95963149263E+03  0.10043140221E+04  0.29574555502E+03 0.  0.
         13    1    3    3    0    0  0.12938965238E+03 -0.58745215399E+02 -0.61690647660E+03  0.63306104235E+03  0.00000000000E+00 0.  1.
          1    1    3    3  501    0 -0.13604906644E+03  0.43116004857E+02 -0.34272501603E+03  0.37125297975E+03  0.00000000000E+00 0.  1.
         21    1    1    2  502  501  0.66594140659E+01  0.15629210542E+02 -0.14024689058E+02  0.22029796210E+02  0.00000000000E+00 0. -1.
<mgrwt>
<rscale>  1 0.30000000E+03</rscale>
<asrwt>0</asrwt>
<pdfrwt beam="1">  1        1 0.95795905E-01 0.30000000E+03</pdfrwt>
<pdfrwt beam="2">0</pdfrwt>
<totfact> 0.36430332E+01</totfact>
</mgrwt>
</event>
<event>
 6    1  0.1929825E-004  0.3000000E+03  0.7818608E-02  0.1093470E+00
          1   -1    0    0  502    0  0.00000000000E+00  0.00000000000E+00  0.36385734042E+02  0.36385734042E+02  0.00000000000E+00 0.  1.
         13   -1    0    0    0    0 -0.00000000000E+00 -0.00000000000E+00 -0.10000000000E+04  0.10000000000E+04  0.00000000000E+00 0.  1.
    9000005    2    1    2  501    0  0.29799754557E+01  0.56935385519E+02 -0.83297572974E+03  0.89384821084E+03  0.31916381263E+03 0.  0.
         13    1    3    3    0    0 -0.11611568586E+03 -0.44598014349E+02 -0.60285081080E+03  0.61554929572E+03  0.00000000000E+00 0.  1.
          1    1    3    3  501    0  0.11909566131E+03  0.10153339987E+03 -0.23012491895E+03  0.27829891511E+03  0.00000000000E+00 0.  1.
         21    1    1    2  502  501 -0.29799754557E+01 -0.56935385519E+02 -0.13063853621E+03  0.14253752321E+03  0.00000000000E+00 0.  1.
<mgrwt>
<rscale>  1 0.30000000E+03</rscale>
<asrwt>0</asrwt>
<pdfrwt beam="1">  1        1 0.13231204E+00 0.30000000E+03</pdfrwt>
<pdfrwt beam="2">0</pdfrwt>
<totfact> 0.22228922E+01</totfact>
</mgrwt>
</event>
<event>
 6    1  0.1929825E-004  0.3000000E+03  0.7818608E-02  0.1093470E+00
          3   -1    0    0  502    0  0.00000000000E+00  0.00000000000E+00  0.27699338265E+02  0.27699338265E+02  0.00000000000E+00 0.  1.
         13   -1    0    0    0    0 -0.00000000000E+00 -0.00000000000E+00 -0.10000000000E+04  0.10000000000E+04  0.00000000000E+00 0.  1.
    9000005    2    1    2  501    0  0.10246024451E+02  0.25076568744E-01 -0.94780111118E+03  0.10011435550E+04  0.32226772997E+03 0.  0.
         13    1    3    3    0    0  0.57803643093E+02  0.15109263774E+03 -0.41941201432E+03  0.44952940292E+03  0.00000000000E+00 0.  1.
          3    1    3    3  501    0 -0.47557618641E+02 -0.15106756117E+03 -0.52838909686E+03  0.55161415211E+03  0.00000000000E+00 0.  1.
         21    1    1    2  502  501 -0.10246024451E+02 -0.25076568744E-01 -0.24499550559E+02  0.26555783240E+02  0.00000000000E+00 0. -1.
<mgrwt>
<rscale>  1 0.30000000E+03</rscale>
<asrwt>0</asrwt>
<pdfrwt beam="1">  1        3 0.10072508E+00 0.30000000E+03</pdfrwt>
<pdfrwt beam="2">0</pdfrwt>
<totfact> 0.38432479E+00</totfact>
</mgrwt>
</event>
<event>
 6    1  0.1929825E-004  0.3000000E+03  0.7818608E-02  0.1093470E+00
          1   -1    0    0  502    0  0.00000000000E+00  0.00000000000E+00  0.35419459280E+02  0.35419459280E+02  0.00000000000E+00 0.  1.
         13   -1    0    0    0    0 -0.00000000000E+00 -0.00000000000E+00 -0.10000000000E+04  0.10000000000E+04  0.00000000000E+00 0.  1.
    9000005    2    1    2  501    0  0.19017737622E+02 -0.18510829983E+02 -0.94213818312E+03  0.10006633866E+04  0.33615254289E+03 0.  0.
         13    1    3    3    0    0  0.12212392032E+03  0.10429050958E+03 -0.31792009064E+03  0.35617965458E+03  0.00000000000E+00 0.  1.
          1    1    3    3  501    0 -0.10310618270E+03 -0.12280133957E+03 -0.62421809248E+03  0.64448373206E+03  0.00000000000E+00 0.  1.
         21    1    1    2  502  501 -0.19017737622E+02  0.18510829983E+02 -0.22442357603E+02  0.34756072645E+02  0.00000000000E+00 0.  1.
<mgrwt>
<rscale>  1 0.30000000E+03</rscale>
<asrwt>0</asrwt>
<pdfrwt beam="1">  1        1 0.12879831E+00 0.30000000E+03</pdfrwt>
<pdfrwt beam="2">0</pdfrwt>
<totfact> 0.23227881E+01</totfact>
</mgrwt>
</event>
<event>
 6    1  0.1929825E-004  0.3000000E+03  0.7818608E-02  0.1093470E+00
          1   -1    0    0  502    0  0.00000000000E+00  0.00000000000E+00  0.31839483240E+02  0.31839483240E+02  0.00000000000E+00 0.  1.
         13   -1    0    0    0    0 -0.00000000000E+00 -0.00000000000E+00 -0.10000000000E+04  0.10000000000E+04  0.00000000000E+00 0.  1.
    9000005    2    1    2  501    0 -0.26251745169E+02  0.43649046325E+01 -0.92599129422E+03  0.98197516888E+03  0.32574092283E+03 0.  0.
         13    1    3    3    0    0  0.10559417007E+03  0.18371422392E+02 -0.76923262351E+03  0.77666367688E+03  0.00000000000E+00 0.  1.
          3    1    3    3  501    0 -0.13184591524E+03 -0.14006517759E+02 -0.15675867071E+03  0.20531149200E+03  0.00000000000E+00 0.  1.
         21    1    1    2  502  501  0.26251745169E+02 -0.43649046325E+01 -0.42169222539E+02  0.49864314358E+02  0.00000000000E+00 0.  1.
<mgrwt>
<rscale>  1 0.30000000E+03</rscale>
<asrwt>0</asrwt>
<pdfrwt beam="1">  1        1 0.11578018E+00 0.30000000E+03</pdfrwt>
<pdfrwt beam="2">0</pdfrwt>
<totfact> 0.27479202E+01</totfact>
</mgrwt>
</event>
<event>
 6    1  0.1929825E-004  0.3000000E+03  0.7818608E-02  0.1093470E+00
          1   -1    0    0  502    0  0.00000000000E+00  0.00000000000E+00  0.31645308462E+02  0.31645308462E+02  0.00000000000E+00 0.  1.
         13   -1    0    0    0    0 -0.00000000000E+00 -0.00000000000E+00 -0.10000000000E+04  0.10000000000E+04  0.00000000000E+00 0.  1.
    9000005    2    1    2  501    0  0.12455765135E+02  0.18527730589E+02 -0.93883664213E+03  0.99463533512E+03  0.32769923158E+03 0.  0.
         13    1    3    3    0    0  0.72684868799E+02  0.11211346069E+03 -0.16257139932E+03  0.21043283512E+03  0.00000000000E+00 0.  1.
          3    1    3    3  501    0 -0.60229103664E+02 -0.93585730104E+02 -0.77626524282E+03  0.78420250000E+03  0.00000000000E+00 0.  1.
         21    1    1    2  502  501 -0.12455765135E+02 -0.18527730589E+02 -0.29518049406E+02  0.37009973340E+02  0.00000000000E+00 0.  1.
<mgrwt>
<rscale>  1 0.30000000E+03</rscale>
<asrwt>0</asrwt>
<pdfrwt beam="1">  1        1 0.11507409E+00 0.30000000E+03</pdfrwt>
<pdfrwt beam="2">0</pdfrwt>
<totfact> 0.27738701E+01</totfact>
</mgrwt>
</event>
<event>
 6    1  0.1929825E-004  0.3000000E+03  0.7818608E-02  0.1093470E+00
          1   -1    0    0  502    0  0.00000000000E+00  0.00000000000E+00  0.47256575814E+02  0.47256575814E+02  0.00000000000E+00 0.  1.
         13   -1    0    0    0    0 -0.00000000000E+00 -0.00000000000E+00 -0.10000000000E+04  0.10000000000E+04  0.00000000000E+00 0.  1.
    9000005    2    1    2  501    0  0.11008329428E+02 -0.21405089330E+00 -0.97166006214E+03  0.10253689463E+04  0.32731784326E+03 0.  0.
         13    1    3    3    0    0 -0.85487400239E+02 -0.59488049710E+02 -0.93575525924E+02  0.14001179490E+03  0.00000000000E+00 0.  1.
          3    1    3    3  501    0  0.96495729667E+02  0.59273998817E+02 -0.87808453622E+03  0.88535715139E+03  0.00000000000E+00 0.  1.
         21    1    1    2  502  501 -0.11008329428E+02  0.21405089330E+00  0.18916637956E+02  0.21887629524E+02  0.00000000000E+00 0.  1.
<mgrwt>
<rscale>  1 0.30000000E+03</rscale>
<asrwt>0</asrwt>
<pdfrwt beam="1">  1        1 0.17184246E+00 0.30000000E+03</pdfrwt>
<pdfrwt beam="2">0</pdfrwt>
<totfact> 0.13994371E+01</totfact>
</mgrwt>
</event>
<event>
 6    1  0.1929825E-004  0.3000000E+03  0.7818608E-02  0.1093470E+00
          1   -1    0    0  502    0  0.00000000000E+00  0.00000000000E+00  0.18413404767E+02  0.18413404767E+02  0.00000000000E+00 0.  1.
         13   -1    0    0    0    0 -0.00000000000E+00 -0.00000000000E+00 -0.10000000000E+04  0.10000000000E+04  0.00000000000E+00 0.  1.
    9000005    2    1    2  501    0  0.16902477635E+02 -0.10408625705E+02 -0.97293020584E+03  0.99675777463E+03  0.21572863188E+03 0.  0.
         13    1    3    3    0    0  0.10360936379E+03 -0.48774688761E+02 -0.65703471495E+03  0.66693964283E+03  0.00000000000E+00 0.  1.
          3    1    3    3  501    0 -0.86706886152E+02  0.38366063056E+02 -0.31589549089E+03  0.32981813180E+03  0.00000000000E+00 0.  1.
         21    1    1    2  502  501 -0.16902477635E+02  0.10408625705E+02 -0.86563893914E+01  0.21655630135E+02  0.00000000000E+00 0.  1.
<mgrwt>
<rscale>  1 0.30000000E+03</rscale>
<asrwt>0</asrwt>
<pdfrwt beam="1">  1        1 0.66957977E-01 0.30000000E+03</pdfrwt>
<pdfrwt beam="2">0</pdfrwt>
<totfact> 0.59877089E+01</totfact>
</mgrwt>
</event>
<event>
 6    1  0.1929825E-004  0.3000000E+03  0.7818608E-02  0.1093470E+00
          3   -1    0    0  502    0  0.00000000000E+00  0.00000000000E+00  0.32324066447E+02  0.32324066447E+02  0.00000000000E+00 0.  1.
         13   -1    0    0    0    0 -0.00000000000E+00 -0.00000000000E+00 -0.10000000000E+04  0.10000000000E+04  0.00000000000E+00 0.  1.
    9000005    2    1    2  501    0 -0.16582253060E+02  0.16544517582E+01 -0.96137913740E+03  0.10145095227E+04  0.32357691124E+03 0.  0.
         13    1    3    3    0    0 -0.59888797804E+02 -0.12007215571E+02 -0.98170226611E+01  0.61864491125E+02  0.00000000000E+00 0.  1.
          1    1    3    3  501    0  0.43306544744E+02  0.13661667329E+02 -0.95156211474E+03  0.95264503158E+03  0.00000000000E+00 0.  1.
         21    1    1    2  502  501  0.16582253060E+02 -0.16544517582E+01 -0.62967961486E+01  0.17814543747E+02  0.00000000000E+00 0. -1.
<mgrwt>
<rscale>  1 0.30000000E+03</rscale>
<asrwt>0</asrwt>
<pdfrwt beam="1">  1        3 0.11754231E+00 0.30000000E+03</pdfrwt>
<pdfrwt beam="2">0</pdfrwt>
<totfact> 0.24695440E+00</totfact>
</mgrwt>
</event>
<event>
 6    1  0.1929825E-004  0.3000000E+03  0.7818608E-02  0.1093470E+00
          1   -1    0    0  502    0  0.00000000000E+00  0.00000000000E+00  0.31375578611E+02  0.31375578611E+02  0.00000000000E+00 0.  1.
         13   -1    0    0    0    0 -0.00000000000E+00 -0.00000000000E+00 -0.10000000000E+04  0.10000000000E+04  0.00000000000E+00 0.  1.
    9000005    2    1    2  501    0  0.24569350802E+02 -0.59100037186E+01 -0.94715531106E+03  0.99821681143E+03  0.31415766457E+03 0.  0.
         13    1    3    3    0    0 -0.10492967102E+03  0.54831774139E+02 -0.16494495848E+03  0.20303595407E+03  0.00000000000E+00 0.  1.
          3    1    3    3  501    0  0.12949902183E+03 -0.60741777858E+02 -0.78221035258E+03  0.79518085736E+03  0.00000000000E+00 0.  1.
         21    1    1    2  502  501 -0.24569350802E+02  0.59100037186E+01 -0.21469110332E+02  0.33158767186E+02  0.00000000000E+00 0. -1.
<mgrwt>
<rscale>  1 0.30000000E+03</rscale>
<asrwt>0</asrwt>
<pdfrwt beam="1">  1        1 0.11409325E+00 0.30000000E+03</pdfrwt>
<pdfrwt beam="2">0</pdfrwt>
<totfact> 0.28104913E+01</totfact>
</mgrwt>
</event>
<event>
 6    1  0.1929825E-004  0.3000000E+03  0.7818608E-02  0.1093470E+00
          1   -1    0    0  502    0  0.00000000000E+00  0.00000000000E+00  0.34295037049E+02  0.34295037049E+02  0.00000000000E+00 0.  1.
         13   -1    0    0    0    0 -0.00000000000E+00 -0.00000000000E+00 -0.10000000000E+04  0.10000000000E+04  0.00000000000E+00 0.  1.
    9000005    2    1    2  501    0 -0.32071226926E+02  0.24142533451E+02 -0.91960606518E+03  0.97316784266E+03  0.31586216829E+03 0.  0.
         13    1    3    3    0    0 -0.13063918242E+03  0.11915781616E+02 -0.82709984937E+03  0.83743820230E+03  0.00000000000E+00 0.  1.
          3    1    3    3  501    0  0.98567955493E+02  0.12226751835E+02 -0.92506215809E+02  0.13572964037E+03  0.00000000000E+00 0.  1.
         21    1    1    2  502  501  0.32071226926E+02 -0.24142533451E+02 -0.46098897771E+02  0.61127194388E+02  0.00000000000E+00 0.  1.
<mgrwt>
<rscale>  1 0.30000000E+03</rscale>
<asrwt>0</asrwt>
<pdfrwt beam="1">  1        1 0.12470949E+00 0.30000000E+03</pdfrwt>
<pdfrwt beam="2">0</pdfrwt>
<totfact> 0.24464538E+01</totfact>
</mgrwt>
</event>
<event>
 6    1  0.1929825E-004  0.3000000E+03  0.7818608E-02  0.1093470E+00
          1   -1    0    0  502    0  0.00000000000E+00  0.00000000000E+00  0.40593315896E+02  0.40593315896E+02  0.00000000000E+00 0.  1.
         13   -1    0    0    0    0 -0.00000000000E+00 -0.00000000000E+00 -0.10000000000E+04  0.10000000000E+04  0.00000000000E+00 0.  1.
    9000005    2    1    2  501    0 -0.30104180829E+02  0.14993878021E+02 -0.95134236171E+03  0.10060084727E+04  0.32537621292E+03 0.  0.
         13    1    3    3    0    0 -0.17566678878E+03  0.25861944103E+02 -0.44722433060E+03  0.48118319039E+03  0.00000000000E+00 0.  1.
          1    1    3    3  501    0  0.14556260795E+03 -0.10868066082E+02 -0.50411803110E+03  0.52482528233E+03  0.00000000000E+00 0.  1.
         21    1    1    2  502  501  0.30104180829E+02 -0.14993878021E+02 -0.80643223981E+01  0.34584843172E+02  0.00000000000E+00 0. -1.
<mgrwt>
<rscale>  1 0.30000000E+03</rscale>
<asrwt>0</asrwt>
<pdfrwt beam="1">  1        1 0.14761237E+00 0.30000000E+03</pdfrwt>
<pdfrwt beam="2">0</pdfrwt>
<totfact> 0.18476013E+01</totfact>
</mgrwt>
</event>
<event>
 6    1  0.1929825E-004  0.3000000E+03  0.7818608E-02  0.1093470E+00
          1   -1    0    0  502    0  0.00000000000E+00  0.00000000000E+00  0.42759774279E+02  0.42759774279E+02  0.00000000000E+00 0.  1.
         13   -1    0    0    0    0 -0.00000000000E+00 -0.00000000000E+00 -0.10000000000E+04  0.10000000000E+04  0.00000000000E+00 0.  1.
    9000005    2    1    2  501    0  0.11666853430E+02 -0.12320306610E+02 -0.97022486258E+03  0.10213937681E+04  0.31878055178E+03 0.  0.
         13    1    3    3    0    0 -0.57942675226E+02 -0.14956060900E+03 -0.40523657840E+03  0.43582383351E+03  0.00000000000E+00 0.  1.
          3    1    3    3  501    0  0.69609528656E+02  0.13724030239E+03 -0.56498828418E+03  0.58556993463E+03  0.00000000000E+00 0.  1.
         21    1    1    2  502  501 -0.11666853430E+02  0.12320306610E+02  0.12984636862E+02  0.21366006140E+02  0.00000000000E+00 0.  1.
<mgrwt>
<rscale>  1 0.30000000E+03</rscale>
<asrwt>0</asrwt>
<pdfrwt beam="1">  1        1 0.15549042E+00 0.30000000E+03</pdfrwt>
<pdfrwt beam="2">0</pdfrwt>
<totfact> 0.16854178E+01</totfact>
</mgrwt>
</event>
<event>
 6    1  0.1929825E-004  0.3000000E+03  0.7818608E-02  0.1093470E+00
          1   -1    0    0  502    0  0.00000000000E+00  0.00000000000E+00  0.31260833211E+02  0.31260833211E+02  0.00000000000E+00 0.  1.
         13   -1    0    0    0    0 -0.00000000000E+00 -0.00000000000E+00 -0.10000000000E+04  0.10000000000E+04  0.00000000000E+00 0.  1.
    9000005    2    1    2  501    0  0.55112963818E+01  0.10472208834E+02 -0.96290439706E+03  0.10180666647E+04  0.33035558766E+03 0.  0.
         13    1    3    3    0    0 -0.15022438143E+03 -0.38937838455E+02 -0.60577308444E+03  0.62533554982E+03  0.00000000000E+00 0.  1.
          3    1    3    3  501    0  0.15573567782E+03  0.49410047288E+02 -0.35713131262E+03  0.39273111485E+03  0.00000000000E+00 0.  1.
         21    1    1    2  502  501 -0.55112963818E+01 -0.10472208834E+02 -0.58347697334E+01  0.13194168542E+02  0.00000000000E+00 0. -1.
<mgrwt>
<rscale>  1 0.30000000E+03</rscale>
<asrwt>0</asrwt>
<pdfrwt beam="1">  1        1 0.11367600E+00 0.30000000E+03</pdfrwt>
<pdfrwt beam="2">0</pdfrwt>
<totfact> 0.28262774E+01</totfact>
</mgrwt>
</event>
<event>
 6    1  0.1929825E-004  0.3000000E+03  0.7818608E-02  0.1093470E+00
          1   -1    0    0  502    0  0.00000000000E+00  0.00000000000E+00  0.40180991617E+02  0.40180991617E+02  0.00000000000E+00 0.  1.
         13   -1    0    0    0    0 -0.00000000000E+00 -0.00000000000E+00 -0.10000000000E+04  0.10000000000E+04  0.00000000000E+00 0.  1.
    9000005    2    1    2  501    0  0.59298741809E+02 -0.63458226621E+01 -0.88722717221E+03  0.94623321397E+03  0.32346349079E+03 0.  0.
         13    1    3    3    0    0 -0.69405808281E+02 -0.78747141917E+01 -0.76677345506E+03  0.76994851045E+03  0.00000000000E+00 0.  1.
          1    1    3    3  501    0  0.12870455009E+03  0.15288915296E+01 -0.12045371715E+03  0.17628470353E+03  0.00000000000E+00 0.  1.
         21    1    1    2  502  501 -0.59298741809E+02  0.63458226621E+01 -0.72591836171E+02  0.93947777643E+02  0.00000000000E+00 0.  1.
<mgrwt>
<rscale>  1 0.30000000E+03</rscale>
<asrwt>0</asrwt>
<pdfrwt beam="1">  1        1 0.14611300E+00 0.30000000E+03</pdfrwt>
<pdfrwt beam="2">0</pdfrwt>
<totfact> 0.18806250E+01</totfact>
</mgrwt>
</event>
<event>
 6    1  0.1929825E-004  0.3000000E+03  0.7818608E-02  0.1093470E+00
          1   -1    0    0  502    0  0.00000000000E+00  0.00000000000E+00  0.25936592635E+02  0.25936592635E+02  0.00000000000E+00 0.  1.
         13   -1    0    0    0    0 -0.00000000000E+00 -0.00000000000E+00 -0.10000000000E+04  0.10000000000E+04  0.00000000000E+00 0.  1.
    9000005    2    1    2  501    0 -0.26493244058E+02 -0.54629045554E+01 -0.82725840515E+03  0.87666019134E+03  0.28886828640E+03 0.  0.
         13    1    3    3    0    0  0.84777738315E+02  0.48612340952E+01 -0.70857879304E+03  0.71364893503E+03  0.00000000000E+00 0.  1.
          3    1    3    3  501    0 -0.11127098237E+03 -0.10324138651E+02 -0.11867961211E+03  0.16301125632E+03  0.00000000000E+00 0.  1.
         21    1    1    2  502  501  0.26493244058E+02  0.54629045554E+01 -0.14680500221E+03  0.14927640129E+03  0.00000000000E+00 0. -1.
<mgrwt>
<rscale>  1 0.30000000E+03</rscale>
<asrwt>0</asrwt>
<pdfrwt beam="1">  1        1 0.94315081E-01 0.30000000E+03</pdfrwt>
<pdfrwt beam="2">0</pdfrwt>
<totfact> 0.37256786E+01</totfact>
</mgrwt>
</event>
<event>
 6    1  0.1929825E-004  0.3000000E+03  0.7818608E-02  0.1093470E+00
          1   -1    0    0  502    0  0.00000000000E+00  0.00000000000E+00  0.44761984739E+02  0.44761984739E+02  0.00000000000E+00 0.  1.
         13   -1    0    0    0    0 -0.00000000000E+00 -0.00000000000E+00 -0.10000000000E+04  0.10000000000E+04  0.00000000000E+00 0.  1.
    9000005    2    1    2  501    0 -0.11971856221E+02  0.21881106210E+01 -0.97208110905E+03  0.10239821152E+04  0.32163578240E+03 0.  0.
         13    1    3    3    0    0 -0.13261473932E+03  0.45317881121E+02 -0.78388622873E+03  0.79631526359E+03  0.00000000000E+00 0.  1.
          1    1    3    3  501    0  0.12064288310E+03 -0.43129770501E+02 -0.18819488032E+03  0.22766685162E+03  0.00000000000E+00 0.  1.
         21    1    1    2  502  501  0.11971856221E+02 -0.21881106210E+01  0.16843093788E+02  0.20779869533E+02  0.00000000000E+00 0.  1.
<mgrwt>
<rscale>  1 0.30000000E+03</rscale>
<asrwt>0</asrwt>
<pdfrwt beam="1">  1        1 0.16277120E+00 0.30000000E+03</pdfrwt>
<pdfrwt beam="2">0</pdfrwt>
<totfact> 0.15504963E+01</totfact>
</mgrwt>
</event>
<event>
 6    1  0.1929825E-004  0.3000000E+03  0.7818608E-02  0.1093470E+00
          1   -1    0    0  502    0  0.00000000000E+00  0.00000000000E+00  0.29300437004E+02  0.29300437004E+02  0.00000000000E+00 0.  1.
         13   -1    0    0    0    0 -0.00000000000E+00 -0.00000000000E+00 -0.10000000000E+04  0.10000000000E+04  0.00000000000E+00 0.  1.
    9000005    2    1    2  501    0  0.26241564039E+01  0.14346193660E+02 -0.93666163136E+03  0.99226963551E+03  0.32718697777E+03 0.  0.
         13    1    3    3    0    0  0.14833412751E+03 -0.18964375672E+02 -0.26599606142E+03  0.30515007065E+03  0.00000000000E+00 0.  1.
          1    1    3    3  501    0 -0.14570997110E+03  0.33310569332E+02 -0.67066556993E+03  0.68711956485E+03  0.00000000000E+00 0.  1.
         21    1    1    2  502  501 -0.26241564039E+01 -0.14346193660E+02 -0.34037931640E+02  0.37030801499E+02  0.00000000000E+00 0. -1.
<mgrwt>
<rscale>  1 0.30000000E+03</rscale>
<asrwt>0</asrwt>
<pdfrwt beam="1">  1        1 0.10654727E+00 0.30000000E+03</pdfrwt>
<pdfrwt beam="2">0</pdfrwt>
<totfact> 0.31166466E+01</totfact>
</mgrwt>
</event>
<event>
 6    1  0.1929825E-004  0.3000000E+03  0.7818608E-02  0.1093470E+00
          1   -1    0    0  502    0  0.00000000000E+00  0.00000000000E+00  0.41258270094E+02  0.41258270094E+02  0.00000000000E+00 0.  1.
         13   -1    0    0    0    0 -0.00000000000E+00 -0.00000000000E+00 -0.10000000000E+04  0.10000000000E+04  0.00000000000E+00 0.  1.
    9000005    2    1    2  501    0  0.14473669154E+02  0.16016101137E+01 -0.97313357913E+03  0.10207844434E+04  0.30789586695E+03 0.  0.
         13    1    3    3    0    0 -0.51730879511E+01  0.57784942551E+02 -0.95748663543E+03  0.95924267912E+03  0.00000000000E+00 0.  1.
          3    1    3    3  501    0  0.19646757105E+02 -0.56183332437E+02 -0.15646943706E+02  0.61541764322E+02  0.00000000000E+00 0.  1.
         21    1    1    2  502  501 -0.14473669154E+02 -0.16016101137E+01  0.14391849226E+02  0.20473826654E+02  0.00000000000E+00 0.  1.
<mgrwt>
<rscale>  1 0.30000000E+03</rscale>
<asrwt>0</asrwt>
<pdfrwt beam="1">  1        1 0.15003039E+00 0.30000000E+03</pdfrwt>
<pdfrwt beam="2">0</pdfrwt>
<totfact> 0.17958564E+01</totfact>
</mgrwt>
</event>
<event>
 6    1  0.1929825E-004  0.3000000E+03  0.7818608E-02  0.1093470E+00
          1   -1    0    0  502    0  0.00000000000E+00  0.00000000000E+00  0.30736589992E+02  0.30736589992E+02  0.00000000000E+00 0.  1.
         13   -1    0    0    0    0 -0.00000000000E+00 -0.00000000000E+00 -0.10000000000E+04  0.10000000000E+04  0.00000000000E+00 0.  1.
    9000005    2    1    2  501    0  0.51760400281E+01 -0.29462931836E+02 -0.92743545903E+03  0.97931253701E+03  0.31308410807E+03 0.  0.
         13    1    3    3    0    0  0.30473155703E+02  0.11087894359E+03 -0.71022612153E+03  0.71947473691E+03  0.00000000000E+00 0.  1.
          1    1    3    3  501    0 -0.25297115675E+02 -0.14034187543E+03 -0.21720933750E+03  0.25983780009E+03  0.00000000000E+00 0.  1.
         21    1    1    2  502  501 -0.51760400281E+01  0.29462931836E+02 -0.41827950973E+02  0.51424052984E+02  0.00000000000E+00 0.  1.
<mgrwt>
<rscale>  1 0.30000000E+03</rscale>
<asrwt>0</asrwt>
<pdfrwt beam="1">  1        1 0.11176965E+00 0.30000000E+03</pdfrwt>
<pdfrwt beam="2">0</pdfrwt>
<totfact> 0.29000309E+01</totfact>
</mgrwt>
</event>
<event>
 6    1  0.1929825E-004  0.3000000E+03  0.7818608E-02  0.1093470E+00
          1   -1    0    0  502    0  0.00000000000E+00  0.00000000000E+00  0.40452548391E+02  0.40452548391E+02  0.00000000000E+00 0.  1.
         13   -1    0    0    0    0 -0.00000000000E+00 -0.00000000000E+00 -0.10000000000E+04  0.10000000000E+04  0.00000000000E+00 0.  1.
    9000005    2    1    2  501    0 -0.72807581782E+01  0.11410776433E+02 -0.96241142029E+03  0.10266171743E+04  0.35710483824E+03 0.  0.
         13    1    3    3    0    0  0.92893056479E+02  0.14196899178E+03 -0.30593270622E+03  0.34982729354E+03  0.00000000000E+00 0.  1.
          3    1    3    3  501    0 -0.10017381466E+03 -0.13055821534E+03 -0.65647871407E+03  0.67678988081E+03  0.00000000000E+00 0.  1.
         21    1    1    2  502  501  0.72807581782E+01 -0.11410776433E+02  0.28639686791E+01  0.13835374048E+02  0.00000000000E+00 0.  1.
<mgrwt>
<rscale>  1 0.30000000E+03</rscale>
<asrwt>0</asrwt>
<pdfrwt beam="1">  1        1 0.14710049E+00 0.30000000E+03</pdfrwt>
<pdfrwt beam="2">0</pdfrwt>
<totfact> 0.18587932E+01</totfact>
</mgrwt>
</event>
<event>
 6    1  0.1929825E-004  0.3000000E+03  0.7818608E-02  0.1093470E+00
          1   -1    0    0  502    0  0.00000000000E+00  0.00000000000E+00  0.31692808371E+02  0.31692808371E+02  0.00000000000E+00 0.  1.
         13   -1    0    0    0    0 -0.00000000000E+00 -0.00000000000E+00 -0.10000000000E+04  0.10000000000E+04  0.00000000000E+00 0.  1.
    9000005    2    1    2  501    0 -0.26841036215E+02 -0.16717207801E+01 -0.93661314239E+03  0.99012661258E+03  0.31997389669E+03 0.  0.
         13    1    3    3    0    0  0.31530735330E+02  0.34426822519E+02 -0.91776754261E+03  0.91895410965E+03  0.00000000000E+00 0.  1.
          1    1    3    3  501    0 -0.58371771545E+02 -0.36098543299E+02 -0.18845599778E+02  0.71172502925E+02  0.00000000000E+00 0.  1.
         21    1    1    2  502  501  0.26841036215E+02  0.16717207801E+01 -0.31694049239E+02  0.41566195792E+02  0.00000000000E+00 0.  1.
<mgrwt>
<rscale>  1 0.30000000E+03</rscale>
<asrwt>0</asrwt>
<pdfrwt beam="1">  1        1 0.11524682E+00 0.30000000E+03</pdfrwt>
<pdfrwt beam="2">0</pdfrwt>
<totfact> 0.27674906E+01</totfact>
</mgrwt>
</event>
<event>
 6    1  0.1929825E-004  0.3000000E+03  0.7818608E-02  0.1093470E+00
          1   -1    0    0  502    0  0.00000000000E+00  0.00000000000E+00  0.69558060007E+01  0.69558060007E+01  0.00000000000E+00 0.  1.
         13   -1    0    0    0    0 -0.00000000000E+00 -0.00000000000E+00 -0.10000000000E+04  0.10000000000E+04  0.00000000000E+00 0.  1.
    9000005    2    1    2  501    0  0.12864656530E+02  0.38196590609E+01 -0.94965900600E+03  0.96154255110E+03  0.15010583172E+03 0.  0.
         13    1    3    3    0    0  0.41533654740E+02  0.14832113284E+02 -0.80078747440E+02  0.91420139204E+02  0.00000000000E+00 0.  1.
          1    1    3    3  501    0 -0.28668998210E+02 -0.11012454223E+02 -0.86958025856E+03  0.87012241189E+03  0.00000000000E+00 0.  1.
         21    1    1    2  502  501 -0.12864656530E+02 -0.38196590609E+01 -0.43385188002E+02  0.45413254904E+02  0.00000000000E+00 0.  1.
<mgrwt>
<rscale>  1 0.30000000E+03</rscale>
<asrwt>0</asrwt>
<pdfrwt beam="1">  1        1 0.25293893E-01 0.30000000E+03</pdfrwt>
<pdfrwt beam="2">0</pdfrwt>
<totfact> 0.21558057E+02</totfact>
</mgrwt>
</event>
<event>
 6    1  0.1929825E-004  0.3000000E+03  0.7818608E-02  0.1093470E+00
          1   -1    0    0  502    0  0.00000000000E+00  0.00000000000E+00  0.28331678494E+02  0.28331678494E+02  0.00000000000E+00 0.  1.
         13   -1    0    0    0    0 -0.00000000000E+00 -0.00000000000E+00 -0.10000000000E+04  0.10000000000E+04  0.00000000000E+00 0.  1.
    9000005    2    1    2  501    0  0.96932541571E+01  0.14699630856E+02 -0.95068807431E+03  0.10009417333E+04  0.31267635116E+03 0.  0.
         13    1    3    3    0    0  0.88313124247E+02 -0.54649733380E+02 -0.84750983839E+03  0.85384935875E+03  0.00000000000E+00 0.  1.
          3    1    3    3  501    0 -0.78619870090E+02  0.69349364236E+02 -0.10317823592E+03  0.14709237458E+03  0.00000000000E+00 0.  1.
         21    1    1    2  502  501 -0.96932541571E+01 -0.14699630856E+02 -0.20980247200E+02  0.27389945163E+02  0.00000000000E+00 0.  1.
<mgrwt>
<rscale>  1 0.30000000E+03</rscale>
<asrwt>0</asrwt>
<pdfrwt beam="1">  1        1 0.10302450E+00 0.30000000E+03</pdfrwt>
<pdfrwt beam="2">0</pdfrwt>
<totfact> 0.32761158E+01</totfact>
</mgrwt>
</event>
<event>
 6    1  0.1929825E-004  0.3000000E+03  0.7818608E-02  0.1093470E+00
          1   -1    0    0  502    0  0.00000000000E+00  0.00000000000E+00  0.30330830718E+02  0.30330830718E+02  0.00000000000E+00 0.  1.
         13   -1    0    0    0    0 -0.00000000000E+00 -0.00000000000E+00 -0.10000000000E+04  0.10000000000E+04  0.00000000000E+00 0.  1.
    9000005    2    1    2  501    0  0.14786984898E+02 -0.22299401183E+01 -0.92826324158E+03  0.98630721883E+03  0.33302500909E+03 0.  0.
         13    1    3    3    0    0  0.96487063276E+02  0.22796755814E+02 -0.88499202082E+03  0.89052811431E+03  0.00000000000E+00 0.  1.
          1    1    3    3  501    0 -0.81700078378E+02 -0.25026695932E+02 -0.43271220763E+02  0.95779104519E+02  0.00000000000E+00 0.  1.
         21    1    1    2  502  501 -0.14786984898E+02  0.22299401183E+01 -0.41405927699E+02  0.44023611891E+02  0.00000000000E+00 0.  1.
<mgrwt>
<rscale>  1 0.30000000E+03</rscale>
<asrwt>0</asrwt>
<pdfrwt beam="1">  1        1 0.11029416E+00 0.30000000E+03</pdfrwt>
<pdfrwt beam="2">0</pdfrwt>
<totfact> 0.29590042E+01</totfact>
</mgrwt>
</event>
<event>
 6    1  0.1929825E-004  0.3000000E+03  0.7818608E-02  0.1093470E+00
          1   -1    0    0  502    0  0.00000000000E+00  0.00000000000E+00  0.42913177479E+02  0.42913177479E+02  0.00000000000E+00 0.  1.
         13   -1    0    0    0    0 -0.00000000000E+00 -0.00000000000E+00 -0.10000000000E+04  0.10000000000E+04  0.00000000000E+00 0.  1.
    9000005    2    1    2  501    0 -0.25545546793E+02  0.38154358659E+01 -0.96264273996E+03  0.10164934740E+04  0.32543940364E+03 0.  0.
         13    1    3    3    0    0 -0.10413035861E+03 -0.21093077716E+02 -0.91526538835E+03  0.92141129829E+03  0.00000000000E+00 0.  1.
          3    1    3    3  501    0  0.78584811820E+02  0.24908513582E+02 -0.47377351611E+02  0.95082175739E+02  0.00000000000E+00 0.  1.
         21    1    1    2  502  501  0.25545546793E+02 -0.38154358659E+01  0.55559174357E+01  0.26419703450E+02  0.00000000000E+00 0.  1.
<mgrwt>
<rscale>  1 0.30000000E+03</rscale>
<asrwt>0</asrwt>
<pdfrwt beam="1">  1        1 0.15604825E+00 0.30000000E+03</pdfrwt>
<pdfrwt beam="2">0</pdfrwt>
<totfact> 0.16746034E+01</totfact>
</mgrwt>
</event>
<event>
 6    1  0.1929825E-004  0.3000000E+03  0.7818608E-02  0.1093470E+00
          1   -1    0    0  502    0  0.00000000000E+00  0.00000000000E+00  0.33505495215E+02  0.33505495215E+02  0.00000000000E+00 0.  1.
         13   -1    0    0    0    0 -0.00000000000E+00 -0.00000000000E+00 -0.10000000000E+04  0.10000000000E+04  0.00000000000E+00 0.  1.
    9000005    2    1    2  501    0  0.17765235316E+02 -0.23573914581E+02 -0.94965511356E+03  0.99952170303E+03  0.31036666555E+03 0.  0.
         13    1    3    3    0    0  0.32685395769E+02  0.14122431937E+03 -0.39757333744E+03  0.42317514356E+03  0.00000000000E+00 0.  1.
          1    1    3    3  501    0 -0.14920160453E+02 -0.16479823395E+03 -0.55208177611E+03  0.57634655947E+03  0.00000000000E+00 0.  1.
         21    1    1    2  502  501 -0.17765235316E+02  0.23573914581E+02 -0.16839391229E+02  0.33983792188E+02  0.00000000000E+00 0. -1.
<mgrwt>
<rscale>  1 0.30000000E+03</rscale>
<asrwt>0</asrwt>
<pdfrwt beam="1">  1        1 0.12183842E+00 0.30000000E+03</pdfrwt>
<pdfrwt beam="2">0</pdfrwt>
<totfact> 0.25383603E+01</totfact>
</mgrwt>
</event>
<event>
 6    1  0.1929825E-004  0.3000000E+03  0.7818608E-02  0.1093470E+00
          1   -1    0    0  502    0  0.00000000000E+00  0.00000000000E+00  0.44736463100E+02  0.44736463100E+02  0.00000000000E+00 0.  1.
         13   -1    0    0    0    0 -0.00000000000E+00 -0.00000000000E+00 -0.10000000000E+04  0.10000000000E+04  0.00000000000E+00 0.  1.
    9000005    2    1    2  501    0  0.19882518563E+02 -0.21509702082E+02 -0.96275454750E+03  0.10145024249E+04  0.31852922866E+03 0.  0.
         13    1    3    3    0    0 -0.61442176300E+01  0.53018708265E+02 -0.51188373137E+01  0.53618442087E+02  0.00000000000E+00 0.  1.
          1    1    3    3  501    0  0.26026736193E+02 -0.74528410347E+02 -0.95763571018E+03  0.96088398278E+03  0.00000000000E+00 0.  1.
         21    1    1    2  502  501 -0.19882518563E+02  0.21509702082E+02  0.74910105977E+01  0.30234038232E+02  0.00000000000E+00 0.  1.
<mgrwt>
<rscale>  1 0.30000000E+03</rscale>
<asrwt>0</asrwt>
<pdfrwt beam="1">  1        1 0.16267839E+00 0.30000000E+03</pdfrwt>
<pdfrwt beam="2">0</pdfrwt>
<totfact> 0.15521351E+01</totfact>
</mgrwt>
</event>
<event>
 6    1  0.1929825E-004  0.3000000E+03  0.7818608E-02  0.1093470E+00
          1   -1    0    0  502    0  0.00000000000E+00  0.00000000000E+00  0.35572067276E+02  0.35572067276E+02  0.00000000000E+00 0.  1.
         13   -1    0    0    0    0 -0.00000000000E+00 -0.00000000000E+00 -0.10000000000E+04  0.10000000000E+04  0.00000000000E+00 0.  1.
    9000005    2    1    2  501    0  0.87080823224E+01 -0.15524133454E+02 -0.96318746972E+03  0.10177291929E+04  0.32821605516E+03 0.  0.
         13    1    3    3    0    0  0.84698634602E+02  0.96141272654E+00 -0.92888826332E+03  0.93274229493E+03  0.00000000000E+00 0.  1.
          3    1    3    3  501    0 -0.75990552280E+02 -0.16485546180E+02 -0.34299206397E+02  0.84986897979E+02  0.00000000000E+00 0.  1.
         21    1    1    2  502  501 -0.87080823224E+01  0.15524133454E+02 -0.12404630075E+01  0.17842874367E+02  0.00000000000E+00 0.  1.
<mgrwt>
<rscale>  1 0.30000000E+03</rscale>
<asrwt>0</asrwt>
<pdfrwt beam="1">  1        1 0.12935324E+00 0.30000000E+03</pdfrwt>
<pdfrwt beam="2">0</pdfrwt>
<totfact> 0.23066282E+01</totfact>
</mgrwt>
</event>
<event>
 6    1  0.1929825E-004  0.3000000E+03  0.7818608E-02  0.1093470E+00
          1   -1    0    0  502    0  0.00000000000E+00  0.00000000000E+00  0.45463526468E+02  0.45463526468E+02  0.00000000000E+00 0.  1.
         13   -1    0    0    0    0 -0.00000000000E+00 -0.00000000000E+00 -0.10000000000E+04  0.10000000000E+04  0.00000000000E+00 0.  1.
    9000005    2    1    2  501    0 -0.14189402334E+02 -0.11266313429E+02 -0.96990966522E+03  0.10217021296E+04  0.32065903083E+03 0.  0.
         13    1    3    3    0    0 -0.80202178828E+02 -0.27033277972E+02 -0.94594817932E+03  0.94972687946E+03  0.00000000000E+00 0.  1.
          1    1    3    3  501    0  0.66012776495E+02  0.15766964543E+02 -0.23961485901E+02  0.71975250177E+02  0.00000000000E+00 0.  1.
         21    1    1    2  502  501  0.14189402334E+02  0.11266313429E+02  0.15373191688E+02  0.23761396835E+02  0.00000000000E+00 0.  1.
<mgrwt>
<rscale>  1 0.30000000E+03</rscale>
<asrwt>0</asrwt>
<pdfrwt beam="1">  1        1 0.16532226E+00 0.30000000E+03</pdfrwt>
<pdfrwt beam="2">0</pdfrwt>
<totfact> 0.15062182E+01</totfact>
</mgrwt>
</event>
<event>
 6    1  0.1929825E-004  0.3000000E+03  0.7818608E-02  0.1093470E+00
          1   -1    0    0  502    0  0.00000000000E+00  0.00000000000E+00  0.34034162567E+02  0.34034162567E+02  0.00000000000E+00 0.  1.
         13   -1    0    0    0    0 -0.00000000000E+00 -0.00000000000E+00 -0.10000000000E+04  0.10000000000E+04  0.00000000000E+00 0.  1.
    9000005    2    1    2  501    0 -0.28186390116E+02 -0.38742929448E+02 -0.84200421915E+03  0.90113581804E+03  0.31745735197E+03 0.  0.
         13    1    3    3    0    0  0.80745782917E+02 -0.10260766630E+03 -0.69582482970E+03  0.70796921421E+03  0.00000000000E+00 0.  1.
          1    1    3    3  501    0 -0.10893217303E+03  0.63864736856E+02 -0.14617938945E+03  0.19316660383E+03  0.00000000000E+00 0.  1.
         21    1    1    2  502  501  0.28186390116E+02  0.38742929448E+02 -0.12396161829E+03  0.13289834453E+03  0.00000000000E+00 0.  1.
<mgrwt>
<rscale>  1 0.30000000E+03</rscale>
<asrwt>0</asrwt>
<pdfrwt beam="1">  1        1 0.12376085E+00 0.30000000E+03</pdfrwt>
<pdfrwt beam="2">0</pdfrwt>
<totfact> 0.24763364E+01</totfact>
</mgrwt>
</event>
<event>
 6    1  0.1929825E-004  0.3000000E+03  0.7818608E-02  0.1093470E+00
          1   -1    0    0  502    0  0.00000000000E+00  0.00000000000E+00  0.33838203909E+02  0.33838203909E+02  0.00000000000E+00 0.  1.
         13   -1    0    0    0    0 -0.00000000000E+00 -0.00000000000E+00 -0.10000000000E+04  0.10000000000E+04  0.00000000000E+00 0.  1.
    9000005    2    1    2  501    0  0.16962209341E+02  0.11134565170E+01 -0.95521362286E+03  0.10136189352E+04  0.33867583928E+03 0.  0.
         13    1    3    3    0    0  0.32610595085E+02  0.16053988763E+03 -0.63198724050E+03  0.65287393774E+03  0.00000000000E+00 0.  1.
          3    1    3    3  501    0 -0.15648385745E+02 -0.15942643112E+03 -0.32322638237E+03  0.36074499743E+03  0.00000000000E+00 0.  1.
         21    1    1    2  502  501 -0.16962209341E+02 -0.11134565170E+01 -0.10948173229E+02  0.20219268735E+02  0.00000000000E+00 0.  1.
<mgrwt>
<rscale>  1 0.30000000E+03</rscale>
<asrwt>0</asrwt>
<pdfrwt beam="1">  1        1 0.12304827E+00 0.30000000E+03</pdfrwt>
<pdfrwt beam="2">0</pdfrwt>
<totfact> 0.24990934E+01</totfact>
</mgrwt>
</event>
<event>
 6    1  0.1929825E-004  0.3000000E+03  0.7818608E-02  0.1093470E+00
          3   -1    0    0  502    0  0.00000000000E+00  0.00000000000E+00  0.21335850815E+02  0.21335850815E+02  0.00000000000E+00 0.  1.
         13   -1    0    0    0    0 -0.00000000000E+00 -0.00000000000E+00 -0.10000000000E+04  0.10000000000E+04  0.00000000000E+00 0.  1.
    9000005    2    1    2  501    0 -0.11085600430E+02  0.75185268732E+01 -0.98070294279E+03  0.10077868485E+04  0.23168222056E+03 0.  0.
         13    1    3    3    0    0  0.77181515438E+02 -0.75848266955E+02 -0.38993933165E+03  0.40467595468E+03  0.00000000000E+00 0.  1.
          3    1    3    3  501    0 -0.88267115868E+02  0.83366793829E+02 -0.59076361114E+03  0.60311089387E+03  0.00000000000E+00 0.  1.
         21    1    1    2  502  501  0.11085600430E+02 -0.75185268732E+01  0.20387936021E+01  0.13549002273E+02  0.00000000000E+00 0.  1.
<mgrwt>
<rscale>  1 0.30000000E+03</rscale>
<asrwt>0</asrwt>
<pdfrwt beam="1">  1        3 0.77585076E-01 0.30000000E+03</pdfrwt>
<pdfrwt beam="2">0</pdfrwt>
<totfact> 0.71630957E+00</totfact>
</mgrwt>
</event>
<event>
 6    1  0.1929825E-004  0.3000000E+03  0.7818608E-02  0.1093470E+00
          1   -1    0    0  502    0  0.00000000000E+00  0.00000000000E+00  0.36748785266E+02  0.36748785266E+02  0.00000000000E+00 0.  1.
         13   -1    0    0    0    0 -0.00000000000E+00 -0.00000000000E+00 -0.10000000000E+04  0.10000000000E+04  0.00000000000E+00 0.  1.
    9000005    2    1    2  501    0 -0.10850400260E+02 -0.33380262595E+02 -0.93242105182E+03  0.99003184977E+03  0.33094119201E+03 0.  0.
         13    1    3    3    0    0  0.97787565585E+02  0.93589924772E+02 -0.22024267697E+03  0.25851173814E+03  0.00000000000E+00 0.  1.
          1    1    3    3  501    0 -0.10863796585E+03 -0.12697018737E+03 -0.71217837486E+03  0.73152011163E+03  0.00000000000E+00 0.  1.
         21    1    1    2  502  501  0.10850400260E+02  0.33380262595E+02 -0.30830162911E+02  0.46716935493E+02  0.00000000000E+00 0. -1.
<mgrwt>
<rscale>  1 0.30000000E+03</rscale>
<asrwt>0</asrwt>
<pdfrwt beam="1">  1        1 0.13363223E+00 0.30000000E+03</pdfrwt>
<pdfrwt beam="2">0</pdfrwt>
<totfact> 0.21868155E+01</totfact>
</mgrwt>
</event>
<event>
 6    1  0.1929825E-004  0.3000000E+03  0.7818608E-02  0.1093470E+00
          1   -1    0    0  502    0  0.00000000000E+00  0.00000000000E+00  0.29064936242E+02  0.29064936242E+02  0.00000000000E+00 0.  1.
         13   -1    0    0    0    0 -0.00000000000E+00 -0.00000000000E+00 -0.10000000000E+04  0.10000000000E+04  0.00000000000E+00 0.  1.
    9000005    2    1    2  501    0 -0.10466711337E+02  0.94087148095E+01 -0.94551763975E+03  0.10000111688E+04  0.32530086788E+03 0.  0.
         13    1    3    3    0    0 -0.97573167954E+02 -0.11387580573E+03 -0.66242565783E+03  0.67918773133E+03  0.00000000000E+00 0.  1.
          1    1    3    3  501    0  0.87106456617E+02  0.12328452054E+03 -0.28309198192E+03  0.32082343745E+03  0.00000000000E+00 0.  1.
         21    1    1    2  502  501  0.10466711337E+02 -0.94087148095E+01 -0.25417424004E+02  0.29053767460E+02  0.00000000000E+00 0.  1.
<mgrwt>
<rscale>  1 0.30000000E+03</rscale>
<asrwt>0</asrwt>
<pdfrwt beam="1">  1        1 0.10569090E+00 0.30000000E+03</pdfrwt>
<pdfrwt beam="2">0</pdfrwt>
<totfact> 0.31543625E+01</totfact>
</mgrwt>
</event>
<event>
 6    1  0.1929825E-004  0.3000000E+03  0.7818608E-02  0.1093470E+00
          1   -1    0    0  502    0  0.00000000000E+00  0.00000000000E+00  0.65680005665E+02  0.65680005665E+02  0.00000000000E+00 0.  1.
         13   -1    0    0    0    0 -0.00000000000E+00 -0.00000000000E+00 -0.10000000000E+04  0.10000000000E+04  0.00000000000E+00 0.  1.
    9000005    2    1    2  501    0  0.13590561225E+02 -0.38306678530E+02 -0.96098493645E+03  0.10170680307E+04  0.33058013546E+03 0.  0.
         13    1    3    3    0    0 -0.55193308222E+01  0.11450253418E+03 -0.13616535127E+03  0.17799521408E+03  0.00000000000E+00 0.  1.
          3    1    3    3  501    0  0.19109892048E+02 -0.15280921271E+03 -0.82481958518E+03  0.83907281660E+03  0.00000000000E+00 0.  1.
         21    1    1    2  502  501 -0.13590561225E+02  0.38306678530E+02  0.26664942116E+02  0.48611974990E+02  0.00000000000E+00 0.  1.
<mgrwt>
<rscale>  1 0.30000000E+03</rscale>
<asrwt>0</asrwt>
<pdfrwt beam="1">  1        1 0.23883689E+00 0.30000000E+03</pdfrwt>
<pdfrwt beam="2">0</pdfrwt>
<totfact> 0.67277980E+00</totfact>
</mgrwt>
</event>
<event>
 6    1  0.1929825E-004  0.3000000E+03  0.7818608E-02  0.1093470E+00
          1   -1    0    0  502    0  0.00000000000E+00  0.00000000000E+00  0.42731567572E+02  0.42731567572E+02  0.00000000000E+00 0.  1.
         13   -1    0    0    0    0 -0.00000000000E+00 -0.00000000000E+00 -0.10000000000E+04  0.10000000000E+04  0.00000000000E+00 0.  1.
    9000005    2    1    2  501    0 -0.12377517213E+02  0.38856653672E+02 -0.94143553491E+03  0.99898544648E+03  0.33167455949E+03 0.  0.
         13    1    3    3    0    0 -0.49298096944E+02 -0.93303046378E+02 -0.96553088081E+02  0.14303237271E+03  0.00000000000E+00 0.  1.
          1    1    3    3  501    0  0.36920579731E+02  0.13215970005E+03 -0.84488244683E+03  0.85595307377E+03  0.00000000000E+00 0.  1.
         21    1    1    2  502  501  0.12377517213E+02 -0.38856653672E+02 -0.15832897515E+02  0.43746121092E+02  0.00000000000E+00 0.  1.
<mgrwt>
<rscale>  1 0.30000000E+03</rscale>
<asrwt>0</asrwt>
<pdfrwt beam="1">  1        1 0.15538785E+00 0.30000000E+03</pdfrwt>
<pdfrwt beam="2">0</pdfrwt>
<totfact> 0.16874153E+01</totfact>
</mgrwt>
</event>
<event>
 6    1  0.1929825E-004  0.3000000E+03  0.7818608E-02  0.1093470E+00
          1   -1    0    0  502    0  0.00000000000E+00  0.00000000000E+00  0.27065182106E+02  0.27065182106E+02  0.00000000000E+00 0.  1.
         13   -1    0    0    0    0 -0.00000000000E+00 -0.00000000000E+00 -0.10000000000E+04  0.10000000000E+04  0.00000000000E+00 0.  1.
    9000005    2    1    2  501    0  0.61215046121E+01  0.13235836725E+02 -0.94950492253E+03  0.99946771503E+03  0.31171053122E+03 0.  0.
         13    1    3    3    0    0 -0.14473238637E+03  0.43588528676E+02 -0.57610595562E+03  0.59560515075E+03  0.00000000000E+00 0.  1.
          3    1    3    3  501    0  0.15085389099E+03 -0.30352691951E+02 -0.37339896692E+03  0.40386256428E+03  0.00000000000E+00 0.  1.
         21    1    1    2  502  501 -0.61215046121E+01 -0.13235836725E+02 -0.23429895360E+02  0.27597467078E+02  0.00000000000E+00 0. -1.
<mgrwt>
<rscale>  1 0.30000000E+03</rscale>
<asrwt>0</asrwt>
<pdfrwt beam="1">  1        1 0.98419052E-01 0.30000000E+03</pdfrwt>
<pdfrwt beam="2">0</pdfrwt>
<totfact> 0.35031798E+01</totfact>
</mgrwt>
</event>
<event>
 6    1  0.1929825E-004  0.3000000E+03  0.7818608E-02  0.1093470E+00
          1   -1    0    0  502    0  0.00000000000E+00  0.00000000000E+00  0.37321184167E+02  0.37321184167E+02  0.00000000000E+00 0.  1.
         13   -1    0    0    0    0 -0.00000000000E+00 -0.00000000000E+00 -0.10000000000E+04  0.10000000000E+04  0.00000000000E+00 0.  1.
    9000005    2    1    2  501    0 -0.42793503463E+02  0.68913557683E+01 -0.86111417076E+03  0.92689405049E+03  0.34020022197E+03 0.  0.
         13    1    3    3    0    0 -0.11980323021E+03  0.23298838335E+02 -0.83509760597E+03  0.84396899311E+03  0.00000000000E+00 0.  1.
          1    1    3    3  501    0  0.77009726752E+02 -0.16407482567E+02 -0.26016564796E+02  0.82925057385E+02  0.00000000000E+00 0.  1.
         21    1    1    2  502  501  0.42793503463E+02 -0.68913557683E+01 -0.10156464507E+03  0.11042713367E+03  0.00000000000E+00 0. -1.
<mgrwt>
<rscale>  1 0.30000000E+03</rscale>
<asrwt>0</asrwt>
<pdfrwt beam="1">  1        1 0.13571368E+00 0.30000000E+03</pdfrwt>
<pdfrwt beam="2">0</pdfrwt>
<totfact> 0.21314947E+01</totfact>
</mgrwt>
</event>
<event>
 6    1  0.1929825E-004  0.3000000E+03  0.7818608E-02  0.1093470E+00
          1   -1    0    0  502    0  0.00000000000E+00  0.00000000000E+00  0.11380250124E+03  0.11380250124E+03  0.00000000000E+00 0.  1.
         13   -1    0    0    0    0 -0.00000000000E+00 -0.00000000000E+00 -0.10000000000E+04  0.10000000000E+04  0.00000000000E+00 0.  1.
    9000005    2    1    2  501    0  0.15230317635E+02  0.38092605843E+02 -0.96856495289E+03  0.10217839885E+04  0.32286443268E+03 0.  0.
         13    1    3    3    0    0  0.41500743060E+02  0.31866237664E+02 -0.98745065134E+03  0.98883596092E+03  0.00000000000E+00 0.  1.
          3    1    3    3  501    0 -0.26270425425E+02  0.62263681798E+01  0.18885698444E+02  0.32948027535E+02  0.00000000000E+00 0.  1.
         21    1    1    2  502  501 -0.15230317635E+02 -0.38092605843E+02  0.82367454138E+02  0.92018512792E+02  0.00000000000E+00 0.  1.
<mgrwt>
<rscale>  1 0.30000000E+03</rscale>
<asrwt>0</asrwt>
<pdfrwt beam="1">  1        1 0.41382815E+00 0.30000000E+03</pdfrwt>
<pdfrwt beam="2">0</pdfrwt>
<totfact> 0.87425305E-01</totfact>
</mgrwt>
</event>
<event>
 6    1  0.1929825E-004  0.3000000E+03  0.7818608E-02  0.1093470E+00
          1   -1    0    0  502    0  0.00000000000E+00  0.00000000000E+00  0.35055498368E+02  0.35055498368E+02  0.00000000000E+00 0.  1.
         13   -1    0    0    0    0 -0.00000000000E+00 -0.00000000000E+00 -0.10000000000E+04  0.10000000000E+04  0.00000000000E+00 0.  1.
    9000005    2    1    2  501    0  0.10718288616E+02 -0.14688884660E+01 -0.96706293739E+03  0.10240315647E+04  0.33661978734E+03 0.  0.
         13    1    3    3    0    0 -0.53961336603E+02  0.14806230772E+03 -0.31898208565E+03  0.35578623326E+03  0.00000000000E+00 0.  1.
          3    1    3    3  501    0  0.64679625219E+02 -0.14953119619E+03 -0.64808085174E+03  0.66824533140E+03  0.00000000000E+00 0.  1.
         21    1    1    2  502  501 -0.10718288616E+02  0.14688884660E+01  0.21184357551E+01  0.11023933700E+02  0.00000000000E+00 0.  1.
<mgrwt>
<rscale>  1 0.30000000E+03</rscale>
<asrwt>0</asrwt>
<pdfrwt beam="1">  1        1 0.12747481E+00 0.30000000E+03</pdfrwt>
<pdfrwt beam="2">0</pdfrwt>
<totfact> 0.23619224E+01</totfact>
</mgrwt>
</event>
<event>
 6    1  0.1929825E-004  0.3000000E+03  0.7818608E-02  0.1093470E+00
          1   -1    0    0  502    0  0.00000000000E+00  0.00000000000E+00  0.33881124046E+02  0.33881124046E+02  0.00000000000E+00 0.  1.
         13   -1    0    0    0    0 -0.00000000000E+00 -0.00000000000E+00 -0.10000000000E+04  0.10000000000E+04  0.00000000000E+00 0.  1.
    9000005    2    1    2  501    0 -0.15829259666E+02  0.71941903829E+01 -0.96611483274E+03  0.10164937190E+04  0.31556186233E+03 0.  0.
         13    1    3    3    0    0  0.82527204254E+02  0.86775404661E+02 -0.79345484613E+03  0.80244084090E+03  0.00000000000E+00 0.  1.
          1    1    3    3  501    0 -0.98356463920E+02 -0.79581214278E+02 -0.17265998661E+03  0.21405287813E+03  0.00000000000E+00 0.  1.
         21    1    1    2  502  501  0.15829259666E+02 -0.71941903829E+01 -0.40432170410E-02  0.17387405016E+02  0.00000000000E+00 0.  1.
<mgrwt>
<rscale>  1 0.30000000E+03</rscale>
<asrwt>0</asrwt>
<pdfrwt beam="1">  1        1 0.12320435E+00 0.30000000E+03</pdfrwt>
<pdfrwt beam="2">0</pdfrwt>
<totfact> 0.24940859E+01</totfact>
</mgrwt>
</event>
<event>
 6    1  0.1929825E-004  0.3000000E+03  0.7818608E-02  0.1093470E+00
          1   -1    0    0  502    0  0.00000000000E+00  0.00000000000E+00  0.34861455699E+02  0.34861455699E+02  0.00000000000E+00 0.  1.
         13   -1    0    0    0    0 -0.00000000000E+00 -0.00000000000E+00 -0.10000000000E+04  0.10000000000E+04  0.00000000000E+00 0.  1.
    9000005    2    1    2  501    0 -0.11915927476E+02 -0.16220142630E+01 -0.95779503718E+03  0.10207707724E+04  0.35278466004E+03 0.  0.
         13    1    3    3    0    0  0.98548709488E+02  0.13834526290E+03 -0.55167639349E+03  0.57723314445E+03  0.00000000000E+00 0.  1.
          3    1    3    3  501    0 -0.11046463696E+03 -0.13996727716E+03 -0.40611864369E+03  0.44353762799E+03  0.00000000000E+00 0.  1.
         21    1    1    2  502  501  0.11915927476E+02  0.16220142630E+01 -0.73435071205E+01  0.14090683259E+02  0.00000000000E+00 0.  1.
<mgrwt>
<rscale>  1 0.30000000E+03</rscale>
<asrwt>0</asrwt>
<pdfrwt beam="1">  1        1 0.12676920E+00 0.30000000E+03</pdfrwt>
<pdfrwt beam="2">0</pdfrwt>
<totfact> 0.23831331E+01</totfact>
</mgrwt>
</event>
<event>
 6    1  0.1929825E-004  0.3000000E+03  0.7818608E-02  0.1093470E+00
          1   -1    0    0  502    0  0.00000000000E+00  0.00000000000E+00  0.32344962354E+02  0.32344962354E+02  0.00000000000E+00 0.  1.
         13   -1    0    0    0    0 -0.00000000000E+00 -0.00000000000E+00 -0.10000000000E+04  0.10000000000E+04  0.00000000000E+00 0.  1.
    9000005    2    1    2  501    0  0.11013754753E+02 -0.27681330717E+01 -0.96628160096E+03  0.10209059203E+04  0.32927162105E+03 0.  0.
         13    1    3    3    0    0 -0.12953830598E+02 -0.14675557597E+03 -0.25237671224E+03  0.29223108268E+03  0.00000000000E+00 0.  1.
          1    1    3    3  501    0  0.23967585351E+02  0.14398744290E+03 -0.71390488872E+03  0.72867483763E+03  0.00000000000E+00 0.  1.
         21    1    1    2  502  501 -0.11013754753E+02  0.27681330717E+01 -0.13734366897E+01  0.11439042041E+02  0.00000000000E+00 0. -1.
<mgrwt>
<rscale>  1 0.30000000E+03</rscale>
<asrwt>0</asrwt>
<pdfrwt beam="1">  1        1 0.11761829E+00 0.30000000E+03</pdfrwt>
<pdfrwt beam="2">0</pdfrwt>
<totfact> 0.26819280E+01</totfact>
</mgrwt>
</event>
<event>
 6    1  0.1929825E-004  0.3000000E+03  0.7818608E-02  0.1093470E+00
          1   -1    0    0  502    0  0.00000000000E+00  0.00000000000E+00  0.64963100006E+02  0.64963100006E+02  0.00000000000E+00 0.  1.
         13   -1    0    0    0    0 -0.00000000000E+00 -0.00000000000E+00 -0.10000000000E+04  0.10000000000E+04  0.00000000000E+00 0.  1.
    9000005    2    1    2  501    0  0.12478486606E+03 -0.61091969579E+02 -0.57909292413E+03  0.68286415275E+03  0.33414270122E+03 0.  0.
         13    1    3    3    0    0  0.13347603745E+03 -0.83853895020E+02 -0.61754350563E+03  0.63734394924E+03  0.00000000000E+00 0.  1.
          3    1    3    3  501    0 -0.86911713893E+01  0.22761925441E+02  0.38450581497E+02  0.45520203508E+02  0.00000000000E+00 0.  1.
         21    1    1    2  502  501 -0.12478486606E+03  0.61091969579E+02 -0.35594397586E+03  0.38209894726E+03  0.00000000000E+00 0.  1.
<mgrwt>
<rscale>  1 0.30000000E+03</rscale>
<asrwt>0</asrwt>
<pdfrwt beam="1">  1        1 0.23622995E+00 0.30000000E+03</pdfrwt>
<pdfrwt beam="2">0</pdfrwt>
<totfact> 0.69198085E+00</totfact>
</mgrwt>
</event>
<event>
 6    1  0.1929825E-004  0.3000000E+03  0.7818608E-02  0.1093470E+00
          1   -1    0    0  502    0  0.00000000000E+00  0.00000000000E+00  0.50979590092E+02  0.50979590092E+02  0.00000000000E+00 0.  1.
         13   -1    0    0    0    0 -0.00000000000E+00 -0.00000000000E+00 -0.10000000000E+04  0.10000000000E+04  0.00000000000E+00 0.  1.
    9000005    2    1    2  501    0 -0.66392155894E+02 -0.33807276817E+02 -0.88847238976E+03  0.95497483461E+03  0.34211532713E+03 0.  0.
         13    1    3    3    0    0  0.36565197911E+01 -0.11169426328E+03 -0.82491055589E+03  0.83244603657E+03  0.00000000000E+00 0.  1.
          1    1    3    3  501    0 -0.70048675685E+02  0.77886986461E+02 -0.63561833868E+02  0.12252879804E+03  0.00000000000E+00 0.  1.
         21    1    1    2  502  501  0.66392155894E+02  0.33807276817E+02 -0.60548020151E+02  0.96004755477E+02  0.00000000000E+00 0. -1.
<mgrwt>
<rscale>  1 0.30000000E+03</rscale>
<asrwt>0</asrwt>
<pdfrwt beam="1">  1        1 0.18538072E+00 0.30000000E+03</pdfrwt>
<pdfrwt beam="2">0</pdfrwt>
<totfact> 0.12033538E+01</totfact>
</mgrwt>
</event>
<event>
 6    1  0.1929825E-004  0.3000000E+03  0.7818608E-02  0.1093470E+00
          1   -1    0    0  502    0  0.00000000000E+00  0.00000000000E+00  0.26810382087E+02  0.26810382087E+02  0.00000000000E+00 0.  1.
         13   -1    0    0    0    0 -0.00000000000E+00 -0.00000000000E+00 -0.10000000000E+04  0.10000000000E+04  0.00000000000E+00 0.  1.
    9000005    2    1    2  501    0 -0.68154997240E+01  0.62951246289E+01 -0.91814554433E+03  0.97098986912E+03  0.31582274418E+03 0.  0.
         13    1    3    3    0    0 -0.34082885294E+02  0.12366897809E+03 -0.76717600706E+03  0.77782689914E+03  0.00000000000E+00 0.  1.
          1    1    3    3  501    0  0.27267385570E+02 -0.11737385346E+03 -0.15096953726E+03  0.19316296998E+03  0.00000000000E+00 0.  1.
         21    1    1    2  502  501  0.68154997240E+01 -0.62951246289E+01 -0.55044073586E+02  0.55820512963E+02  0.00000000000E+00 0. -1.
<mgrwt>
<rscale>  1 0.30000000E+03</rscale>
<asrwt>0</asrwt>
<pdfrwt beam="1">  1        1 0.97492504E-01 0.30000000E+03</pdfrwt>
<pdfrwt beam="2">0</pdfrwt>
<totfact> 0.35516552E+01</totfact>
</mgrwt>
</event>
<event>
 6    1  0.1929825E-004  0.3000000E+03  0.7818608E-02  0.1093470E+00
          1   -1    0    0  502    0  0.00000000000E+00  0.00000000000E+00  0.46062131596E+02  0.46062131596E+02  0.00000000000E+00 0.  1.
         13   -1    0    0    0    0 -0.00000000000E+00 -0.00000000000E+00 -0.10000000000E+04  0.10000000000E+04  0.00000000000E+00 0.  1.
    9000005    2    1    2  501    0  0.11009313432E+02 -0.33452296833E+02 -0.95795433503E+03  0.10106164951E+04  0.32004520140E+03 0.  0.
         13    1    3    3    0    0 -0.48694799134E+02 -0.16540017570E+03 -0.43343486995E+03  0.46646992193E+03  0.00000000000E+00 0.  1.
          3    1    3    3  501    0  0.59704112566E+02  0.13194787886E+03 -0.52451946508E+03  0.54414657312E+03  0.00000000000E+00 0.  1.
         21    1    1    2  502  501 -0.11009313432E+02  0.33452296833E+02  0.40164666210E+01  0.35445636540E+02  0.00000000000E+00 0.  1.
<mgrwt>
<rscale>  1 0.30000000E+03</rscale>
<asrwt>0</asrwt>
<pdfrwt beam="1">  1        1 0.16749901E+00 0.30000000E+03</pdfrwt>
<pdfrwt beam="2">0</pdfrwt>
<totfact> 0.14695770E+01</totfact>
</mgrwt>
</event>
<event>
 6    1  0.1929825E-004  0.3000000E+03  0.7818608E-02  0.1093470E+00
          1   -1    0    0  502    0  0.00000000000E+00  0.00000000000E+00  0.49365937074E+02  0.49365937074E+02  0.00000000000E+00 0.  1.
         13   -1    0    0    0    0 -0.00000000000E+00 -0.00000000000E+00 -0.10000000000E+04  0.10000000000E+04  0.00000000000E+00 0.  1.
    9000005    2    1    2  501    0  0.22508690522E+02  0.68064163239E+01 -0.94771408740E+03  0.10256700575E+04  0.39151514265E+03 0.  0.
         13    1    3    3    0    0  0.13543474959E+03  0.40229340336E+02 -0.87698953008E+03  0.88829702639E+03  0.00000000000E+00 0.  1.
          3    1    3    3  501    0 -0.11292605907E+03 -0.33422924013E+02 -0.70724557322E+02  0.13737303110E+03  0.00000000000E+00 0.  1.
         21    1    1    2  502  501 -0.22508690522E+02 -0.68064163239E+01 -0.29199755272E+01  0.23695879584E+02  0.00000000000E+00 0. -1.
<mgrwt>
<rscale>  1 0.30000000E+03</rscale>
<asrwt>0</asrwt>
<pdfrwt beam="1">  1        1 0.17951288E+00 0.30000000E+03</pdfrwt>
<pdfrwt beam="2">0</pdfrwt>
<totfact> 0.12843960E+01</totfact>
</mgrwt>
</event>
<event>
 6    1  0.1929825E-004  0.3000000E+03  0.7818608E-02  0.1093470E+00
          1   -1    0    0  502    0  0.00000000000E+00  0.00000000000E+00  0.54450444190E+02  0.54450444190E+02  0.00000000000E+00 0.  1.
         13   -1    0    0    0    0 -0.00000000000E+00 -0.00000000000E+00 -0.10000000000E+04  0.10000000000E+04  0.00000000000E+00 0.  1.
    9000005    2    1    2  501    0  0.44906970722E+01 -0.33539878484E+02 -0.96412906870E+03  0.10158461943E+04  0.31820361343E+03 0.  0.
         13    1    3    3    0    0 -0.49245321925E+02 -0.14703760237E+03 -0.27801926885E+03  0.31833924058E+03  0.00000000000E+00 0.  1.
          3    1    3    3  501    0  0.53736018997E+02  0.11349772389E+03 -0.68610979985E+03  0.69750695374E+03  0.00000000000E+00 0.  1.
         21    1    1    2  502  501 -0.44906970722E+01  0.33539878484E+02  0.18579512888E+02  0.38604249870E+02  0.00000000000E+00 0. -1.
<mgrwt>
<rscale>  1 0.30000000E+03</rscale>
<asrwt>0</asrwt>
<pdfrwt beam="1">  1        1 0.19800203E+00 0.30000000E+03</pdfrwt>
<pdfrwt beam="2">0</pdfrwt>
<totfact> 0.10470029E+01</totfact>
</mgrwt>
</event>
<event>
 6    1  0.1929825E-004  0.3000000E+03  0.7818608E-02  0.1093470E+00
          1   -1    0    0  502    0  0.00000000000E+00  0.00000000000E+00  0.31851477971E+02  0.31851477971E+02  0.00000000000E+00 0.  1.
         13   -1    0    0    0    0 -0.00000000000E+00 -0.00000000000E+00 -0.10000000000E+04  0.10000000000E+04  0.00000000000E+00 0.  1.
    9000005    2    1    2  501    0 -0.12219075730E+02  0.23495664589E+02 -0.94306644709E+03  0.99537597181E+03  0.31732892962E+03 0.  0.
         13    1    3    3    0    0  0.12374905067E+03  0.51117966280E+02 -0.20826862044E+03  0.24759380500E+03  0.00000000000E+00 0.  1.
          3    1    3    3  501    0 -0.13596812640E+03 -0.27622301691E+02 -0.73479782665E+03  0.74778216681E+03  0.00000000000E+00 0.  1.
         21    1    1    2  502  501  0.12219075730E+02 -0.23495664589E+02 -0.25082074943E+02  0.36475506160E+02  0.00000000000E+00 0.  1.
<mgrwt>
<rscale>  1 0.30000000E+03</rscale>
<asrwt>0</asrwt>
<pdfrwt beam="1">  1        1 0.11582380E+00 0.30000000E+03</pdfrwt>
<pdfrwt beam="2">0</pdfrwt>
<totfact> 0.27463283E+01</totfact>
</mgrwt>
</event>
<event>
 6    1  0.1929825E-004  0.3000000E+03  0.7818608E-02  0.1093470E+00
          1   -1    0    0  502    0  0.00000000000E+00  0.00000000000E+00  0.33551325646E+02  0.33551325646E+02  0.00000000000E+00 0.  1.
         13   -1    0    0    0    0 -0.00000000000E+00 -0.00000000000E+00 -0.10000000000E+04  0.10000000000E+04  0.00000000000E+00 0.  1.
    9000005    2    1    2  501    0 -0.12509797379E+02 -0.16306602926E+02 -0.96074618024E+03  0.10122225008E+04  0.31802321926E+03 0.  0.
         13    1    3    3    0    0 -0.25693119933E+02  0.51162604882E+02 -0.89500431055E+01  0.57946974224E+02  0.00000000000E+00 0.  1.
          1    1    3    3  501    0  0.13183322554E+02 -0.67469207807E+02 -0.95179613713E+03  0.95427552659E+03  0.00000000000E+00 0.  1.
         21    1    1    2  502  501  0.12509797379E+02  0.16306602926E+02 -0.57024941162E+01  0.21328824829E+02  0.00000000000E+00 0.  1.
<mgrwt>
<rscale>  1 0.30000000E+03</rscale>
<asrwt>0</asrwt>
<pdfrwt beam="1">  1        1 0.12200508E+00 0.30000000E+03</pdfrwt>
<pdfrwt beam="2">0</pdfrwt>
<totfact> 0.25329035E+01</totfact>
</mgrwt>
</event>
<event>
 6    1  0.1929825E-004  0.3000000E+03  0.7818608E-02  0.1093470E+00
          3   -1    0    0  502    0  0.00000000000E+00  0.00000000000E+00  0.27262714087E+02  0.27262714087E+02  0.00000000000E+00 0.  1.
         13   -1    0    0    0    0 -0.00000000000E+00 -0.00000000000E+00 -0.10000000000E+04  0.10000000000E+04  0.00000000000E+00 0.  1.
    9000005    2    1    2  501    0  0.95595586643E+01 -0.10348167072E+01 -0.96707867774E+03  0.10161058393E+04  0.31166881752E+03 0.  0.
         13    1    3    3    0    0 -0.42027546060E+02  0.13769029224E+02 -0.96108610694E+03  0.96210311596E+03  0.00000000000E+00 0.  1.
          1    1    3    3  501    0  0.51587104725E+02 -0.14803845931E+02 -0.59925707998E+01  0.54002723385E+02  0.00000000000E+00 0.  1.
         21    1    1    2  502  501 -0.95595586643E+01  0.10348167072E+01 -0.56586081751E+01  0.11156874740E+02  0.00000000000E+00 0.  1.
<mgrwt>
<rscale>  1 0.30000000E+03</rscale>
<asrwt>0</asrwt>
<pdfrwt beam="1">  1        3 0.99137351E-01 0.30000000E+03</pdfrwt>
<pdfrwt beam="2">0</pdfrwt>
<totfact> 0.40067516E+00</totfact>
</mgrwt>
</event>
<event>
 6    1  0.1929825E-004  0.3000000E+03  0.7818608E-02  0.1093470E+00
          1   -1    0    0  502    0  0.00000000000E+00  0.00000000000E+00  0.43781085991E+02  0.43781085991E+02  0.00000000000E+00 0.  1.
         13   -1    0    0    0    0 -0.00000000000E+00 -0.00000000000E+00 -0.10000000000E+04  0.10000000000E+04  0.00000000000E+00 0.  1.
    9000005    2    1    2  501    0  0.48284008549E+01 -0.29015383279E+02 -0.96068108427E+03  0.10140301720E+04  0.32323959854E+03 0.  0.
         13    1    3    3    0    0  0.70093734053E+02 -0.46861363073E+01 -0.93821896163E+03  0.94084531746E+03  0.00000000000E+00 0.  1.
          1    1    3    3  501    0 -0.65265333198E+02 -0.24329246971E+02 -0.22462122638E+02  0.73184854506E+02  0.00000000000E+00 0.  1.
         21    1    1    2  502  501 -0.48284008549E+01  0.29015383279E+02  0.44621702617E+01  0.29750914021E+02  0.00000000000E+00 0.  1.
<mgrwt>
<rscale>  1 0.30000000E+03</rscale>
<asrwt>0</asrwt>
<pdfrwt beam="1">  1        1 0.15920428E+00 0.30000000E+03</pdfrwt>
<pdfrwt beam="2">0</pdfrwt>
<totfact> 0.16149482E+01</totfact>
</mgrwt>
</event>
<event>
 6    1  0.1929825E-004  0.3000000E+03  0.7818608E-02  0.1093470E+00
          1   -1    0    0  502    0  0.00000000000E+00  0.00000000000E+00  0.52816506972E+02  0.52816506972E+02  0.00000000000E+00 0.  1.
         13   -1    0    0    0    0 -0.00000000000E+00 -0.00000000000E+00 -0.10000000000E+04  0.10000000000E+04  0.00000000000E+00 0.  1.
    9000005    2    1    2  501    0  0.49024222888E+02  0.17162346093E+02 -0.95626301750E+03  0.10000874038E+04  0.28816303738E+03 0.  0.
         13    1    3    3    0    0  0.56467499484E+02  0.14750436141E+03 -0.43710068984E+03  0.46476136693E+03  0.00000000000E+00 0.  1.
          1    1    3    3  501    0 -0.74432765963E+01 -0.13034201531E+03 -0.51916232767E+03  0.53532603691E+03  0.00000000000E+00 0.  1.
         21    1    1    2  502  501 -0.49024222888E+02 -0.17162346093E+02  0.90795244739E+01  0.52729103139E+02  0.00000000000E+00 0. -1.
<mgrwt>
<rscale>  1 0.30000000E+03</rscale>
<asrwt>0</asrwt>
<pdfrwt beam="1">  1        1 0.19206043E+00 0.30000000E+03</pdfrwt>
<pdfrwt beam="2">0</pdfrwt>
<totfact> 0.11176799E+01</totfact>
</mgrwt>
</event>
<event>
 6    1  0.1929825E-004  0.3000000E+03  0.7818608E-02  0.1093470E+00
          1   -1    0    0  502    0  0.00000000000E+00  0.00000000000E+00  0.26229916449E+02  0.26229916449E+02  0.00000000000E+00 0.  1.
         13   -1    0    0    0    0 -0.00000000000E+00 -0.00000000000E+00 -0.10000000000E+04  0.10000000000E+04  0.00000000000E+00 0.  1.
    9000005    2    1    2  501    0 -0.94762199708E+01 -0.19515772720E+01 -0.96278840352E+03  0.10115941830E+04  0.31027032347E+03 0.  0.
         13    1    3    3    0    0 -0.68140422677E+02 -0.14210166255E+02 -0.28225165605E+02  0.75111290769E+02  0.00000000000E+00 0.  1.
          1    1    3    3  501    0  0.58664202706E+02  0.12258588982E+02 -0.93456323792E+03  0.93648289218E+03  0.00000000000E+00 0.  1.
         21    1    1    2  502  501  0.94762199708E+01  0.19515772720E+01 -0.10981680026E+02  0.14635733497E+02  0.00000000000E+00 0. -1.
<mgrwt>
<rscale>  1 0.30000000E+03</rscale>
<asrwt>0</asrwt>
<pdfrwt beam="1">  1        1 0.95381715E-01 0.30000000E+03</pdfrwt>
<pdfrwt beam="2">0</pdfrwt>
<totfact> 0.36658718E+01</totfact>
</mgrwt>
</event>
<event>
 6    1  0.1929825E-004  0.3000000E+03  0.7818608E-02  0.1093470E+00
          1   -1    0    0  502    0  0.00000000000E+00  0.00000000000E+00  0.31105177539E+02  0.31105177539E+02  0.00000000000E+00 0.  1.
         13   -1    0    0    0    0 -0.00000000000E+00 -0.00000000000E+00 -0.10000000000E+04  0.10000000000E+04  0.00000000000E+00 0.  1.
    9000005    2    1    2  501    0  0.12251439095E+02  0.13564994910E+01 -0.96801665832E+03  0.10187476283E+04  0.31723578225E+03 0.  0.
         13    1    3    3    0    0 -0.67886801666E+02 -0.12935355626E+03 -0.64295397755E+03  0.65934116935E+03  0.00000000000E+00 0.  1.
          1    1    3    3  501    0  0.80138240761E+02  0.13071005575E+03 -0.32506268077E+03  0.35940645895E+03  0.00000000000E+00 0.  1.
         21    1    1    2  502  501 -0.12251439095E+02 -0.13564994910E+01 -0.87816413926E+00  0.12357549232E+02  0.00000000000E+00 0.  1.
<mgrwt>
<rscale>  1 0.30000000E+03</rscale>
<asrwt>0</asrwt>
<pdfrwt beam="1">  1        1 0.11310998E+00 0.30000000E+03</pdfrwt>
<pdfrwt beam="2">0</pdfrwt>
<totfact> 0.28478937E+01</totfact>
</mgrwt>
</event>
<event>
 6    1  0.1929825E-004  0.3000000E+03  0.7818608E-02  0.1093470E+00
          1   -1    0    0  502    0  0.00000000000E+00  0.00000000000E+00  0.38561634762E+02  0.38561634762E+02  0.00000000000E+00 0.  1.
         13   -1    0    0    0    0 -0.00000000000E+00 -0.00000000000E+00 -0.10000000000E+04  0.10000000000E+04  0.00000000000E+00 0.  1.
    9000005    2    1    2  501    0 -0.51274346050E+02 -0.50625093676E+01 -0.90127466960E+03  0.95935079058E+03  0.32465862340E+03 0.  0.
         13    1    3    3    0    0  0.31787757652E+02  0.14359971214E+03 -0.54456803311E+03  0.56407949932E+03  0.00000000000E+00 0.  1.
          3    1    3    3  501    0 -0.83062103702E+02 -0.14866222151E+03 -0.35670663649E+03  0.39527129126E+03  0.00000000000E+00 0.  1.
         21    1    1    2  502  501  0.51274346050E+02  0.50625093676E+01 -0.60163695637E+02  0.79210844186E+02  0.00000000000E+00 0.  1.
<mgrwt>
<rscale>  1 0.30000000E+03</rscale>
<asrwt>0</asrwt>
<pdfrwt beam="1">  1        1 0.14022442E+00 0.30000000E+03</pdfrwt>
<pdfrwt beam="2">0</pdfrwt>
<totfact> 0.20177504E+01</totfact>
</mgrwt>
</event>
<event>
 6    1  0.1929825E-004  0.3000000E+03  0.7818608E-02  0.1093470E+00
          1   -1    0    0  502    0  0.00000000000E+00  0.00000000000E+00  0.29769504558E+02  0.29769504558E+02  0.00000000000E+00 0.  1.
         13   -1    0    0    0    0 -0.00000000000E+00 -0.00000000000E+00 -0.10000000000E+04  0.10000000000E+04  0.00000000000E+00 0.  1.
    9000005    2    1    2  501    0  0.11815588023E+02 -0.77243408981E+01 -0.95621870276E+03  0.10098797108E+04  0.32450508341E+03 0.  0.
         13    1    3    3    0    0 -0.12747774604E+03  0.86112307580E+02 -0.38886702338E+03  0.41819070665E+03  0.00000000000E+00 0.  1.
          3    1    3    3  501    0  0.13929333406E+03 -0.93836648478E+02 -0.56735167937E+03  0.59168900412E+03  0.00000000000E+00 0.  1.
         21    1    1    2  502  501 -0.11815588023E+02  0.77243408981E+01 -0.14011792686E+02  0.19889793788E+02  0.00000000000E+00 0.  1.
<mgrwt>
<rscale>  1 0.30000000E+03</rscale>
<asrwt>0</asrwt>
<pdfrwt beam="1">  1        1 0.10825297E+00 0.30000000E+03</pdfrwt>
<pdfrwt beam="2">0</pdfrwt>
<totfact> 0.30434313E+01</totfact>
</mgrwt>
</event>
<event>
 6    1  0.1929825E-004  0.3000000E+03  0.7818608E-02  0.1093470E+00
          1   -1    0    0  502    0  0.00000000000E+00  0.00000000000E+00  0.33592952083E+02  0.33592952083E+02  0.00000000000E+00 0.  1.
         13   -1    0    0    0    0 -0.00000000000E+00 -0.00000000000E+00 -0.10000000000E+04  0.10000000000E+04  0.00000000000E+00 0.  1.
    9000005    2    1    2  501    0  0.10369248863E+02 -0.27577372155E+02 -0.92294649966E+03  0.98108721876E+03  0.33141191409E+03 0.  0.
         13    1    3    3    0    0 -0.16025940550E+03 -0.12478445476E+02 -0.47817787701E+03  0.50447286420E+03  0.00000000000E+00 0.  1.
          3    1    3    3  501    0  0.17062865437E+03 -0.15098926679E+02 -0.44476862265E+03  0.47661435456E+03  0.00000000000E+00 0.  1.
         21    1    1    2  502  501 -0.10369248863E+02  0.27577372155E+02 -0.43460548260E+02  0.52505733325E+02  0.00000000000E+00 0.  1.
<mgrwt>
<rscale>  1 0.30000000E+03</rscale>
<asrwt>0</asrwt>
<pdfrwt beam="1">  1        1 0.12215645E+00 0.30000000E+03</pdfrwt>
<pdfrwt beam="2">0</pdfrwt>
<totfact> 0.25279606E+01</totfact>
</mgrwt>
</event>
<event>
 6    1  0.1929825E-004  0.3000000E+03  0.7818608E-02  0.1093470E+00
          1   -1    0    0  502    0  0.00000000000E+00  0.00000000000E+00  0.30445108409E+02  0.30445108409E+02  0.00000000000E+00 0.  1.
         13   -1    0    0    0    0 -0.00000000000E+00 -0.00000000000E+00 -0.10000000000E+04  0.10000000000E+04  0.00000000000E+00 0.  1.
    9000005    2    1    2  501    0  0.59477805263E+01 -0.13426098596E+02 -0.95590062148E+03  0.10103932928E+04  0.32700607301E+03 0.  0.
         13    1    3    3    0    0  0.47154006186E+02 -0.66433527877E+02 -0.37745422069E+02  0.89786584815E+02  0.00000000000E+00 0.  1.
          3    1    3    3  501    0 -0.41206225659E+02  0.53007429282E+02 -0.91815519941E+03  0.92060670799E+03  0.00000000000E+00 0.  1.
         21    1    1    2  502  501 -0.59477805263E+01  0.13426098596E+02 -0.13654270109E+02  0.20051815601E+02  0.00000000000E+00 0. -1.
<mgrwt>
<rscale>  1 0.30000000E+03</rscale>
<asrwt>0</asrwt>
<pdfrwt beam="1">  1        1 0.11070972E+00 0.30000000E+03</pdfrwt>
<pdfrwt beam="2">0</pdfrwt>
<totfact> 0.29422246E+01</totfact>
</mgrwt>
</event>
<event>
 6    1  0.1929825E-004  0.3000000E+03  0.7818608E-02  0.1093470E+00
          1   -1    0    0  502    0  0.00000000000E+00  0.00000000000E+00  0.28319314673E+02  0.28319314673E+02  0.00000000000E+00 0.  1.
         13   -1    0    0    0    0 -0.00000000000E+00 -0.00000000000E+00 -0.10000000000E+04  0.10000000000E+04  0.00000000000E+00 0.  1.
    9000005    2    1    2  501    0  0.44766891307E+01 -0.13254990814E+02 -0.95638296529E+03  0.10075887632E+04  0.31681383154E+03 0.  0.
         13    1    3    3    0    0  0.13915634047E+03  0.63646654551E+02 -0.35590742749E+03  0.38740867397E+03  0.00000000000E+00 0.  1.
          1    1    3    3  501    0 -0.13467965134E+03 -0.76901645365E+02 -0.60047553780E+03  0.62018008920E+03  0.00000000000E+00 0.  1.
         21    1    1    2  502  501 -0.44766891307E+01  0.13254990814E+02 -0.15297720040E+02  0.20730551500E+02  0.00000000000E+00 0.  1.
<mgrwt>
<rscale>  1 0.30000000E+03</rscale>
<asrwt>0</asrwt>
<pdfrwt beam="1">  1        1 0.10297954E+00 0.30000000E+03</pdfrwt>
<pdfrwt beam="2">0</pdfrwt>
<totfact> 0.32782269E+01</totfact>
</mgrwt>
</event>
<event>
 6    1  0.1929825E-004  0.3000000E+03  0.7818608E-02  0.1093470E+00
          1   -1    0    0  502    0  0.00000000000E+00  0.00000000000E+00  0.45657083492E+02  0.45657083492E+02  0.00000000000E+00 0.  1.
         13   -1    0    0    0    0 -0.00000000000E+00 -0.00000000000E+00 -0.10000000000E+04  0.10000000000E+04  0.00000000000E+00 0.  1.
    9000005    2    1    2  501    0  0.22869805106E+02 -0.34630008127E+01 -0.96494857625E+03  0.10202110548E+04  0.33040856690E+03 0.  0.
         13    1    3    3    0    0 -0.54265691561E+02 -0.10415000604E+03 -0.12802500654E+03  0.17373080135E+03  0.00000000000E+00 0.  1.
          3    1    3    3  501    0  0.77135496668E+02  0.10068700523E+03 -0.83692356971E+03  0.84648025340E+03  0.00000000000E+00 0.  1.
         21    1    1    2  502  501 -0.22869805106E+02  0.34630008127E+01  0.10605659738E+02  0.25446028741E+02  0.00000000000E+00 0. -1.
<mgrwt>
<rscale>  1 0.30000000E+03</rscale>
<asrwt>0</asrwt>
<pdfrwt beam="1">  1        1 0.16602611E+00 0.30000000E+03</pdfrwt>
<pdfrwt beam="2">0</pdfrwt>
<totfact> 0.14942578E+01</totfact>
</mgrwt>
</event>
<event>
 6    1  0.1929825E-004  0.3000000E+03  0.7818608E-02  0.1093470E+00
          1   -1    0    0  502    0  0.00000000000E+00  0.00000000000E+00  0.37866858961E+02  0.37866858961E+02  0.00000000000E+00 0.  1.
         13   -1    0    0    0    0 -0.00000000000E+00 -0.00000000000E+00 -0.10000000000E+04  0.10000000000E+04  0.00000000000E+00 0.  1.
    9000005    2    1    2  501    0 -0.56628938063E+02 -0.10568092418E+02 -0.82910053493E+03  0.89289722252E+03  0.32640347999E+03 0.  0.
         13    1    3    3    0    0  0.55791032010E+02 -0.48905444353E+02 -0.22399987534E+02  0.77499297943E+02  0.00000000000E+00 0.  1.
          3    1    3    3  501    0 -0.11241997007E+03  0.38337351935E+02 -0.80670054740E+03  0.81539792457E+03  0.00000000000E+00 0.  1.
         21    1    1    2  502  501  0.56628938063E+02  0.10568092418E+02 -0.13303260611E+03  0.14496963644E+03  0.00000000000E+00 0.  1.
<mgrwt>
<rscale>  1 0.30000000E+03</rscale>
<asrwt>0</asrwt>
<pdfrwt beam="1">  1        1 0.13769796E+00 0.30000000E+03</pdfrwt>
<pdfrwt beam="2">0</pdfrwt>
<totfact> 0.20804703E+01</totfact>
</mgrwt>
</event>
<event>
 6    1  0.1929825E-004  0.3000000E+03  0.7818608E-02  0.1093470E+00
          1   -1    0    0  502    0  0.00000000000E+00  0.00000000000E+00  0.29738311532E+02  0.29738311532E+02  0.00000000000E+00 0.  1.
         13   -1    0    0    0    0 -0.00000000000E+00 -0.00000000000E+00 -0.10000000000E+04  0.10000000000E+04  0.00000000000E+00 0.  1.
    9000005    2    1    2  501    0 -0.20592751998E+02  0.14136361408E+02 -0.90284201642E+03  0.95784039552E+03  0.31892102238E+03 0.  0.
         13    1    3    3    0    0  0.12768546344E+03 -0.53437231323E+02 -0.57897025867E+03  0.59528621325E+03  0.00000000000E+00 0.  1.
          3    1    3    3  501    0 -0.14827821543E+03  0.67573592732E+02 -0.32387175775E+03  0.36255418226E+03  0.00000000000E+00 0.  1.
         21    1    1    2  502  501  0.20592751998E+02 -0.14136361408E+02 -0.67419672043E+02  0.71897916014E+02  0.00000000000E+00 0.  1.
<mgrwt>
<rscale>  1 0.30000000E+03</rscale>
<asrwt>0</asrwt>
<pdfrwt beam="1">  1        1 0.10813954E+00 0.30000000E+03</pdfrwt>
<pdfrwt beam="2">0</pdfrwt>
<totfact> 0.30482233E+01</totfact>
</mgrwt>
</event>
<event>
 6    1  0.1929825E-004  0.3000000E+03  0.7818608E-02  0.1093470E+00
          1   -1    0    0  502    0  0.00000000000E+00  0.00000000000E+00  0.10690188980E+02  0.10690188980E+02  0.00000000000E+00 0.  1.
         13   -1    0    0    0    0 -0.00000000000E+00 -0.00000000000E+00 -0.10000000000E+04  0.10000000000E+04  0.00000000000E+00 0.  1.
    9000005    2    1    2  501    0  0.15093999217E+02  0.25047014119E+01 -0.95557742680E+03  0.97364999342E+03  0.18609671879E+03 0.  0.
         13    1    3    3    0    0  0.77991626834E+01  0.62338012439E+02 -0.11607000011E+03  0.13198143679E+03  0.00000000000E+00 0.  1.
          1    1    3    3  501    0  0.72948365340E+01 -0.59833311027E+02 -0.83950742669E+03  0.84166855663E+03  0.00000000000E+00 0.  1.
         21    1    1    2  502  501 -0.15093999217E+02 -0.25047014119E+01 -0.33732384221E+02  0.37040195555E+02  0.00000000000E+00 0. -1.
<mgrwt>
<rscale>  1 0.30000000E+03</rscale>
<asrwt>0</asrwt>
<pdfrwt beam="1">  1        1 0.38873496E-01 0.30000000E+03</pdfrwt>
<pdfrwt beam="2">0</pdfrwt>
<totfact> 0.12269960E+02</totfact>
</mgrwt>
</event>
<event>
 6    1  0.1929825E-004  0.3000000E+03  0.7818608E-02  0.1093470E+00
          1   -1    0    0  502    0  0.00000000000E+00  0.00000000000E+00  0.28806919999E+02  0.28806919999E+02  0.00000000000E+00 0.  1.
         13   -1    0    0    0    0 -0.00000000000E+00 -0.00000000000E+00 -0.10000000000E+04  0.10000000000E+04  0.00000000000E+00 0.  1.
    9000005    2    1    2  501    0  0.13440716639E+02  0.62196311378E+01 -0.92508497120E+03  0.98037868059E+03  0.32425424706E+03 0.  0.
         13    1    3    3    0    0 -0.49064991152E+02  0.15083856267E+03 -0.57498803081E+03  0.59646532248E+03  0.00000000000E+00 0.  1.
          1    1    3    3  501    0  0.62505707791E+02 -0.14461893153E+03 -0.35009694039E+03  0.38391335811E+03  0.00000000000E+00 0.  1.
         21    1    1    2  502  501 -0.13440716639E+02 -0.62196311378E+01 -0.46108108801E+02  0.48428239412E+02  0.00000000000E+00 0. -1.
<mgrwt>
<rscale>  1 0.30000000E+03</rscale>
<asrwt>0</asrwt>
<pdfrwt beam="1">  1        1 0.10475266E+00 0.30000000E+03</pdfrwt>
<pdfrwt beam="2">0</pdfrwt>
<totfact> 0.31964451E+01</totfact>
</mgrwt>
</event>
<event>
 6    1  0.1929825E-004  0.3000000E+03  0.7818608E-02  0.1093470E+00
          1   -1    0    0  502    0  0.00000000000E+00  0.00000000000E+00  0.32795391796E+02  0.32795391796E+02  0.00000000000E+00 0.  1.
         13   -1    0    0    0    0 -0.00000000000E+00 -0.00000000000E+00 -0.10000000000E+04  0.10000000000E+04  0.00000000000E+00 0.  1.
    9000005    2    1    2  501    0 -0.21038644436E+02  0.31042367286E+02 -0.89362448934E+03  0.95021036278E+03  0.32082511194E+03 0.  0.
         13    1    3    3    0    0 -0.17040996444E+03  0.15264661241E+02 -0.42676803825E+03  0.45978638990E+03  0.00000000000E+00 0.  1.
          1    1    3    3  501    0  0.14937132000E+03  0.15777706045E+02 -0.46685645110E+03  0.49042397288E+03  0.00000000000E+00 0.  1.
         21    1    1    2  502  501  0.21038644436E+02 -0.31042367286E+02 -0.73580118860E+02  0.82585029018E+02  0.00000000000E+00 0. -1.
<mgrwt>
<rscale>  1 0.30000000E+03</rscale>
<asrwt>0</asrwt>
<pdfrwt beam="1">  1        1 0.11925622E+00 0.30000000E+03</pdfrwt>
<pdfrwt beam="2">0</pdfrwt>
<totfact> 0.26249398E+01</totfact>
</mgrwt>
</event>
<event>
 6    1  0.1929825E-004  0.3000000E+03  0.7818608E-02  0.1093470E+00
          3   -1    0    0  502    0  0.00000000000E+00  0.00000000000E+00  0.33796123925E+02  0.33796123925E+02  0.00000000000E+00 0.  1.
         13   -1    0    0    0    0 -0.00000000000E+00 -0.00000000000E+00 -0.10000000000E+04  0.10000000000E+04  0.00000000000E+00 0.  1.
    9000005    2    1    2  501    0 -0.11178981542E+02  0.20450051961E+02 -0.93850907555E+03  0.99759976734E+03  0.33743567782E+03 0.  0.
         13    1    3    3    0    0  0.10730845346E+03  0.10095153299E+03 -0.72940179776E+03  0.74413258145E+03  0.00000000000E+00 0.  1.
          3    1    3    3  501    0 -0.11848743500E+03 -0.80501481030E+02 -0.20910727779E+03  0.25346718589E+03  0.00000000000E+00 0.  1.
         21    1    1    2  502  501  0.11178981542E+02 -0.20450051961E+02 -0.27694800526E+02  0.36196356581E+02  0.00000000000E+00 0. -1.
<mgrwt>
<rscale>  1 0.30000000E+03</rscale>
<asrwt>0</asrwt>
<pdfrwt beam="1">  1        3 0.12289526E+00 0.30000000E+03</pdfrwt>
<pdfrwt beam="2">0</pdfrwt>
<totfact> 0.21407237E+00</totfact>
</mgrwt>
</event>
<event>
 6    1  0.1929825E-004  0.3000000E+03  0.7818608E-02  0.1093470E+00
          1   -1    0    0  502    0  0.00000000000E+00  0.00000000000E+00  0.29443586192E+02  0.29443586192E+02  0.00000000000E+00 0.  1.
         13   -1    0    0    0    0 -0.00000000000E+00 -0.00000000000E+00 -0.10000000000E+04  0.10000000000E+04  0.00000000000E+00 0.  1.
    9000005    2    1    2  501    0 -0.10253499227E+02  0.10982388518E+02 -0.95774559919E+03  0.10096986102E+04  0.31935701598E+03 0.  0.
         13    1    3    3    0    0 -0.60222998146E+02 -0.90789784730E+01 -0.11570841435E+02  0.61992916751E+02  0.00000000000E+00 0.  1.
          3    1    3    3  501    0  0.49969498919E+02  0.20061366991E+02 -0.94617475776E+03  0.94770569349E+03  0.00000000000E+00 0.  1.
         21    1    1    2  502  501  0.10253499227E+02 -0.10982388518E+02 -0.12810814618E+02  0.19744975946E+02  0.00000000000E+00 0.  1.
<mgrwt>
<rscale>  1 0.30000000E+03</rscale>
<asrwt>0</asrwt>
<pdfrwt beam="1">  1        1 0.10706781E+00 0.30000000E+03</pdfrwt>
<pdfrwt beam="2">0</pdfrwt>
<totfact> 0.30940374E+01</totfact>
</mgrwt>
</event>
<event>
 6    1  0.1929825E-004  0.3000000E+03  0.7818608E-02  0.1093470E+00
          1   -1    0    0  502    0  0.00000000000E+00  0.00000000000E+00  0.30046366916E+02  0.30046366916E+02  0.00000000000E+00 0.  1.
         13   -1    0    0    0    0 -0.00000000000E+00 -0.00000000000E+00 -0.10000000000E+04  0.10000000000E+04  0.00000000000E+00 0.  1.
    9000005    2    1    2  501    0  0.66841847921E+01 -0.10774505729E+02 -0.95844473421E+03  0.10129226099E+04  0.32746776463E+03 0.  0.
         13    1    3    3    0    0 -0.15090679341E+03 -0.17969994329E+02 -0.30578340661E+03  0.34146635669E+03  0.00000000000E+00 0.  1.
          1    1    3    3  501    0  0.15759097820E+03  0.71954886002E+01 -0.65266132760E+03  0.67145625324E+03  0.00000000000E+00 0.  1.
         21    1    1    2  502  501 -0.66841847921E+01  0.10774505729E+02 -0.11508898872E+02  0.17123756985E+02  0.00000000000E+00 0.  1.
<mgrwt>
<rscale>  1 0.30000000E+03</rscale>
<asrwt>0</asrwt>
<pdfrwt beam="1">  1        1 0.10925975E+00 0.30000000E+03</pdfrwt>
<pdfrwt beam="2">0</pdfrwt>
<totfact> 0.30013667E+01</totfact>
</mgrwt>
</event>
<event>
 6    1  0.1929825E-004  0.3000000E+03  0.7818608E-02  0.1093470E+00
          3   -1    0    0  502    0  0.00000000000E+00  0.00000000000E+00  0.32309325512E+02  0.32309325512E+02  0.00000000000E+00 0.  1.
         13   -1    0    0    0    0 -0.00000000000E+00 -0.00000000000E+00 -0.10000000000E+04  0.10000000000E+04  0.00000000000E+00 0.  1.
    9000005    2    1    2  501    0  0.19457468389E+02  0.85940392598E+01 -0.94800783777E+03  0.10033289072E+04  0.32786824316E+03 0.  0.
         13    1    3    3    0    0  0.67163561489E+02  0.15700470601E+03 -0.54917011984E+03  0.57510802657E+03  0.00000000000E+00 0.  1.
          3    1    3    3  501    0 -0.47706093100E+02 -0.14841066675E+03 -0.39883771793E+03  0.42822088058E+03  0.00000000000E+00 0.  1.
         21    1    1    2  502  501 -0.19457468389E+02 -0.85940392598E+01 -0.19682836719E+02  0.28980418359E+02  0.00000000000E+00 0. -1.
<mgrwt>
<rscale>  1 0.30000000E+03</rscale>
<asrwt>0</asrwt>
<pdfrwt beam="1">  1        3 0.11748870E+00 0.30000000E+03</pdfrwt>
<pdfrwt beam="2">0</pdfrwt>
<totfact> 0.24730674E+00</totfact>
</mgrwt>
</event>
<event>
 6    1  0.1929825E-004  0.3000000E+03  0.7818608E-02  0.1093470E+00
          1   -1    0    0  502    0  0.00000000000E+00  0.00000000000E+00  0.28626519765E+02  0.28626519765E+02  0.00000000000E+00 0.  1.
         13   -1    0    0    0    0 -0.00000000000E+00 -0.00000000000E+00 -0.10000000000E+04  0.10000000000E+04  0.00000000000E+00 0.  1.
    9000005    2    1    2  501    0 -0.17098861893E+01  0.88314679228E+01 -0.95619333301E+03  0.10109812539E+04  0.32817142956E+03 0.  0.
         13    1    3    3    0    0  0.12078311235E+03 -0.95864685818E+02 -0.60895005441E+03  0.62817096955E+03  0.00000000000E+00 0.  1.
          3    1    3    3  501    0 -0.12249299854E+03  0.10469615374E+03 -0.34724327860E+03  0.38281028438E+03  0.00000000000E+00 0.  1.
         21    1    1    2  502  501  0.17098861893E+01 -0.88314679228E+01 -0.15180147227E+02  0.17645265832E+02  0.00000000000E+00 0. -1.
<mgrwt>
<rscale>  1 0.30000000E+03</rscale>
<asrwt>0</asrwt>
<pdfrwt beam="1">  1        1 0.10409666E+00 0.30000000E+03</pdfrwt>
<pdfrwt beam="2">0</pdfrwt>
<totfact> 0.32263530E+01</totfact>
</mgrwt>
</event>
<event>
 6    1  0.1929825E-004  0.3000000E+03  0.7818608E-02  0.1093470E+00
          1   -1    0    0  502    0  0.00000000000E+00  0.00000000000E+00  0.68885640639E+02  0.68885640639E+02  0.00000000000E+00 0.  1.
         13   -1    0    0    0    0 -0.00000000000E+00 -0.00000000000E+00 -0.10000000000E+04  0.10000000000E+04  0.00000000000E+00 0.  1.
    9000005    2    1    2  501    0  0.11430169097E+03 -0.93888107217E+02 -0.80196878787E+03  0.87252263019E+03  0.31026110011E+03 0.  0.
         13    1    3    3    0    0  0.84669081836E+02 -0.27215806076E+02 -0.79418340812E+03  0.79914757039E+03  0.00000000000E+00 0.  1.
          3    1    3    3  501    0  0.29632609138E+02 -0.66672301141E+02 -0.77853797515E+01  0.73375059807E+02  0.00000000000E+00 0.  1.
         21    1    1    2  502  501 -0.11430169097E+03  0.93888107217E+02 -0.12914557149E+03  0.19636301045E+03  0.00000000000E+00 0.  1.
<mgrwt>
<rscale>  1 0.30000000E+03</rscale>
<asrwt>0</asrwt>
<pdfrwt beam="1">  1        1 0.25049377E+00 0.30000000E+03</pdfrwt>
<pdfrwt beam="2">0</pdfrwt>
<totfact> 0.59345761E+00</totfact>
</mgrwt>
</event>
<event>
 6    1  0.1929825E-004  0.3000000E+03  0.7818608E-02  0.1093470E+00
          1   -1    0    0  502    0  0.00000000000E+00  0.00000000000E+00  0.56113451477E+02  0.56113451477E+02  0.00000000000E+00 0.  1.
         13   -1    0    0    0    0 -0.00000000000E+00 -0.00000000000E+00 -0.10000000000E+04  0.10000000000E+04  0.00000000000E+00 0.  1.
    9000005    2    1    2  501    0  0.10562508207E+03  0.23792686141E+02 -0.84508721085E+03  0.90953903693E+03  0.31838045776E+03 0.  0.
         13    1    3    3    0    0  0.21677175544E+03  0.17819995933E+02 -0.64349578290E+03  0.67926016284E+03  0.00000000000E+00 0.  1.
          3    1    3    3  501    0 -0.11114667337E+03  0.59726902078E+01 -0.20159142795E+03  0.23027887409E+03  0.00000000000E+00 0.  1.
         21    1    1    2  502  501 -0.10562508207E+03 -0.23792686141E+02 -0.98799337677E+02  0.14657441455E+03  0.00000000000E+00 0.  1.
<mgrwt>
<rscale>  1 0.30000000E+03</rscale>
<asrwt>0</asrwt>
<pdfrwt beam="1">  1        1 0.20404934E+00 0.30000000E+03</pdfrwt>
<pdfrwt beam="2">0</pdfrwt>
<totfact> 0.97998846E+00</totfact>
</mgrwt>
</event>
<event>
 6    1  0.1929825E-004  0.3000000E+03  0.7818608E-02  0.1093470E+00
          1   -1    0    0  502    0  0.00000000000E+00  0.00000000000E+00  0.33530302106E+02  0.33530302106E+02  0.00000000000E+00 0.  1.
         13   -1    0    0    0    0 -0.00000000000E+00 -0.00000000000E+00 -0.10000000000E+04  0.10000000000E+04  0.00000000000E+00 0.  1.
    9000005    2    1    2  501    0 -0.20310566423E+02 -0.91036704191E+01 -0.91576929943E+03  0.97815949456E+03  0.34302651662E+03 0.  0.
         13    1    3    3    0    0  0.90426914776E+02 -0.66383918753E+02 -0.92196881886E+02  0.14520370730E+03  0.00000000000E+00 0.  1.
          3    1    3    3  501    0 -0.11073748120E+03  0.57280248334E+02 -0.82357241754E+03  0.83295578726E+03  0.00000000000E+00 0.  1.
         21    1    1    2  502  501  0.20310566423E+02  0.91036704191E+01 -0.50700398467E+02  0.55370807546E+02  0.00000000000E+00 0. -1.
<mgrwt>
<rscale>  1 0.30000000E+03</rscale>
<asrwt>0</asrwt>
<pdfrwt beam="1">  1        1 0.12192863E+00 0.30000000E+03</pdfrwt>
<pdfrwt beam="2">0</pdfrwt>
<totfact> 0.25354048E+01</totfact>
</mgrwt>
</event>
<event>
 6    1  0.1929825E-004  0.3000000E+03  0.7818608E-02  0.1093470E+00
          1   -1    0    0  502    0  0.00000000000E+00  0.00000000000E+00  0.63805216069E+02  0.63805216069E+02  0.00000000000E+00 0.  1.
         13   -1    0    0    0    0 -0.00000000000E+00 -0.00000000000E+00 -0.10000000000E+04  0.10000000000E+04  0.00000000000E+00 0.  1.
    9000005    2    1    2  501    0 -0.85620768461E+02  0.23508866986E+01 -0.91752261485E+03  0.97614055638E+03  0.32197235035E+03 0.  0.
         13    1    3    3    0    0 -0.14622247658E+03  0.12978066590E+02 -0.90038307626E+03  0.91227141076E+03  0.00000000000E+00 0.  1.
          1    1    3    3  501    0  0.60601708120E+02 -0.10627179891E+02 -0.17139538589E+02  0.63869145622E+02  0.00000000000E+00 0.  1.
         21    1    1    2  502  501  0.85620768461E+02 -0.23508866986E+01 -0.18672169080E+02  0.87664659688E+02  0.00000000000E+00 0.  1.
<mgrwt>
<rscale>  1 0.30000000E+03</rscale>
<asrwt>0</asrwt>
<pdfrwt beam="1">  1        1 0.23201946E+00 0.30000000E+03</pdfrwt>
<pdfrwt beam="2">0</pdfrwt>
<totfact> 0.72410870E+00</totfact>
</mgrwt>
</event>
<event>
 6    1  0.1929825E-004  0.3000000E+03  0.7818608E-02  0.1093470E+00
          1   -1    0    0  502    0  0.00000000000E+00  0.00000000000E+00  0.30567545385E+02  0.30567545385E+02  0.00000000000E+00 0.  1.
         13   -1    0    0    0    0 -0.00000000000E+00 -0.00000000000E+00 -0.10000000000E+04  0.10000000000E+04  0.00000000000E+00 0.  1.
    9000005    2    1    2  501    0  0.13942052797E+02  0.59636040376E+01 -0.95398995515E+03  0.10089246205E+04  0.32802760531E+03 0.  0.
         13    1    3    3    0    0  0.14927194057E+03 -0.12693221157E+02 -0.74025265160E+03  0.75525970256E+03  0.00000000000E+00 0.  1.
          1    1    3    3  501    0 -0.13532988777E+03  0.18656825195E+02 -0.21373730355E+03  0.25366491791E+03  0.00000000000E+00 0.  1.
         21    1    1    2  502  501 -0.13942052797E+02 -0.59636040376E+01 -0.15442499469E+02  0.21642924921E+02  0.00000000000E+00 0. -1.
<mgrwt>
<rscale>  1 0.30000000E+03</rscale>
<asrwt>0</asrwt>
<pdfrwt beam="1">  1        1 0.11115494E+00 0.30000000E+03</pdfrwt>
<pdfrwt beam="2">0</pdfrwt>
<totfact> 0.29243962E+01</totfact>
</mgrwt>
</event>
<event>
 6    1  0.1929825E-004  0.3000000E+03  0.7818608E-02  0.1093470E+00
          1   -1    0    0  502    0  0.00000000000E+00  0.00000000000E+00  0.41671242774E+02  0.41671242774E+02  0.00000000000E+00 0.  1.
         13   -1    0    0    0    0 -0.00000000000E+00 -0.00000000000E+00 -0.10000000000E+04  0.10000000000E+04  0.00000000000E+00 0.  1.
    9000005    2    1    2  501    0 -0.18622910796E+02 -0.56530436679E+01 -0.96764712900E+03  0.10200934356E+04  0.32229005791E+03 0.  0.
         13    1    3    3    0    0 -0.10165532582E+03 -0.12813629803E+03 -0.37253058369E+03  0.40685593510E+03  0.00000000000E+00 0.  1.
          1    1    3    3  501    0  0.83032415024E+02  0.12248325436E+03 -0.59511654531E+03  0.61323750052E+03  0.00000000000E+00 0.  1.
         21    1    1    2  502  501  0.18622910796E+02  0.56530436679E+01  0.93183717706E+01  0.21577807157E+02  0.00000000000E+00 0. -1.
<mgrwt>
<rscale>  1 0.30000000E+03</rscale>
<asrwt>0</asrwt>
<pdfrwt beam="1">  1        1 0.15153211E+00 0.30000000E+03</pdfrwt>
<pdfrwt beam="2">0</pdfrwt>
<totfact> 0.17646229E+01</totfact>
</mgrwt>
</event>
<event>
 6    1  0.1929825E-004  0.3000000E+03  0.7818608E-02  0.1093470E+00
          1   -1    0    0  502    0  0.00000000000E+00  0.00000000000E+00  0.36962451867E+02  0.36962451867E+02  0.00000000000E+00 0.  1.
         13   -1    0    0    0    0 -0.00000000000E+00 -0.00000000000E+00 -0.10000000000E+04  0.10000000000E+04  0.00000000000E+00 0.  1.
    9000005    2    1    2  501    0 -0.46079313000E+00 -0.12669279236E+02 -0.97045387806E+03  0.10222748749E+04  0.32109884384E+03 0.  0.
         13    1    3    3    0    0  0.13560489584E+02  0.59486515188E+02 -0.94117857287E+03  0.94315409048E+03  0.00000000000E+00 0.  1.
          3    1    3    3  501    0 -0.14021282714E+02 -0.72155794424E+02 -0.29275305188E+02  0.79120784448E+02  0.00000000000E+00 0.  1.
         21    1    1    2  502  501  0.46079313000E+00  0.12669279236E+02  0.74163299256E+01  0.14687576935E+02  0.00000000000E+00 0.  1.
<mgrwt>
<rscale>  1 0.30000000E+03</rscale>
<asrwt>0</asrwt>
<pdfrwt beam="1">  1        1 0.13440920E+00 0.30000000E+03</pdfrwt>
<pdfrwt beam="2">0</pdfrwt>
<totfact> 0.21659444E+01</totfact>
</mgrwt>
</event>
<event>
 6    1  0.1929825E-004  0.3000000E+03  0.7818608E-02  0.1093470E+00
          1   -1    0    0  502    0  0.00000000000E+00  0.00000000000E+00  0.28935216387E+02  0.28935216387E+02  0.00000000000E+00 0.  1.
         13   -1    0    0    0    0 -0.00000000000E+00 -0.00000000000E+00 -0.10000000000E+04  0.10000000000E+04  0.00000000000E+00 0.  1.
    9000005    2    1    2  501    0  0.78650417320E+01  0.53544285143E+01 -0.96101506685E+03  0.10150959392E+04  0.32677098750E+03 0.  0.
         13    1    3    3    0    0  0.16427194167E+03  0.30297585761E+02 -0.54146007750E+03  0.56664118280E+03  0.00000000000E+00 0.  1.
          3    1    3    3  501    0 -0.15640689994E+03 -0.24943157247E+02 -0.41955498935E+03  0.44845475639E+03  0.00000000000E+00 0.  1.
         21    1    1    2  502  501 -0.78650417320E+01 -0.53544285143E+01 -0.10049716768E+02  0.13839277195E+02  0.00000000000E+00 0. -1.
<mgrwt>
<rscale>  1 0.30000000E+03</rscale>
<asrwt>0</asrwt>
<pdfrwt beam="1">  1        1 0.10521919E+00 0.30000000E+03</pdfrwt>
<pdfrwt beam="2">0</pdfrwt>
<totfact> 0.31754191E+01</totfact>
</mgrwt>
</event>
<event>
 6    1  0.1929825E-004  0.3000000E+03  0.7818608E-02  0.1093470E+00
          3   -1    0    0  502    0  0.00000000000E+00  0.00000000000E+00  0.21051402858E+02  0.21051402858E+02  0.00000000000E+00 0.  1.
         13   -1    0    0    0    0 -0.00000000000E+00 -0.00000000000E+00 -0.10000000000E+04  0.10000000000E+04  0.00000000000E+00 0.  1.
    9000005    2    1    2  501    0 -0.76285689797E+01 -0.72040456332E+01 -0.95447337778E+03  0.99442191355E+03  0.27882865691E+03 0.  0.
         13    1    3    3    0    0  0.27464925621E+02  0.13127012802E+03 -0.52270045151E+03  0.53963129140E+03  0.00000000000E+00 0.  1.
          1    1    3    3  501    0 -0.35093494601E+02 -0.13847417365E+03 -0.43177292627E+03  0.45479062214E+03  0.00000000000E+00 0.  1.
         21    1    1    2  502  501  0.76285689797E+01  0.72040456332E+01 -0.24475219362E+02  0.26629489311E+02  0.00000000000E+00 0. -1.
<mgrwt>
<rscale>  1 0.30000000E+03</rscale>
<asrwt>0</asrwt>
<pdfrwt beam="1">  1        3 0.76550717E-01 0.30000000E+03</pdfrwt>
<pdfrwt beam="2">0</pdfrwt>
<totfact> 0.73751103E+00</totfact>
</mgrwt>
</event>
<event>
 6    1  0.1929825E-004  0.3000000E+03  0.7818608E-02  0.1093470E+00
          3   -1    0    0  502    0  0.00000000000E+00  0.00000000000E+00  0.35452668290E+02  0.35452668290E+02  0.00000000000E+00 0.  1.
         13   -1    0    0    0    0 -0.00000000000E+00 -0.00000000000E+00 -0.10000000000E+04  0.10000000000E+04  0.00000000000E+00 0.  1.
    9000005    2    1    2  501    0 -0.62339614876E+01  0.24112874771E+02 -0.95675714029E+03  0.10093570731E+04  0.32061999708E+03 0.  0.
         13    1    3    3    0    0 -0.79343447559E+02 -0.56231749813E+02 -0.85499812251E+03  0.86051100042E+03  0.00000000000E+00 0.  1.
          3    1    3    3  501    0  0.73109486072E+02  0.80344624584E+02 -0.10175901778E+03  0.14884607268E+03  0.00000000000E+00 0.  1.
         21    1    1    2  502  501  0.62339614876E+01 -0.24112874771E+02 -0.77901914182E+01  0.26095595182E+02  0.00000000000E+00 0.  1.
<mgrwt>
<rscale>  1 0.30000000E+03</rscale>
<asrwt>0</asrwt>
<pdfrwt beam="1">  1        3 0.12891907E+00 0.30000000E+03</pdfrwt>
<pdfrwt beam="2">0</pdfrwt>
<totfact> 0.18216769E+00</totfact>
</mgrwt>
</event>
<event>
 6    1  0.1929825E-004  0.3000000E+03  0.7818608E-02  0.1093470E+00
          1   -1    0    0  502    0  0.00000000000E+00  0.00000000000E+00  0.82488267234E+02  0.82488267234E+02  0.00000000000E+00 0.  1.
         13   -1    0    0    0    0 -0.00000000000E+00 -0.00000000000E+00 -0.10000000000E+04  0.10000000000E+04  0.00000000000E+00 0.  1.
    9000005    2    1    2  501    0  0.52618278969E+02  0.28157818251E+02 -0.95625640514E+03  0.10113356450E+04  0.32374670426E+03 0.  0.
         13    1    3    3    0    0  0.13601492509E+03  0.10861138592E+03 -0.78827514875E+03  0.80726340381E+03  0.00000000000E+00 0.  1.
          3    1    3    3  501    0 -0.83396646124E+02 -0.80453567670E+02 -0.16798125639E+03  0.20407224121E+03  0.00000000000E+00 0.  1.
         21    1    1    2  502  501 -0.52618278969E+02 -0.28157818251E+02  0.38744672371E+02  0.71152622211E+02  0.00000000000E+00 0.  1.
<mgrwt>
<rscale>  1 0.30000000E+03</rscale>
<asrwt>0</asrwt>
<pdfrwt beam="1">  1        1 0.29995797E+00 0.30000000E+03</pdfrwt>
<pdfrwt beam="2">0</pdfrwt>
<totfact> 0.34759912E+00</totfact>
</mgrwt>
</event>
<event>
 6    1  0.1929825E-004  0.3000000E+03  0.7818608E-02  0.1093470E+00
          1   -1    0    0  502    0  0.00000000000E+00  0.00000000000E+00  0.31640119438E+02  0.31640119438E+02  0.00000000000E+00 0.  1.
         13   -1    0    0    0    0 -0.00000000000E+00 -0.00000000000E+00 -0.10000000000E+04  0.10000000000E+04  0.00000000000E+00 0.  1.
    9000005    2    1    2  501    0 -0.18372994435E+02 -0.20095681877E+01 -0.96040074930E+03  0.10115166739E+04  0.31694601604E+03 0.  0.
         13    1    3    3    0    0  0.83872635683E+01 -0.14603835303E+03 -0.67552792340E+03  0.69118414481E+03  0.00000000000E+00 0.  1.
          1    1    3    3  501    0 -0.26760258003E+02  0.14402878485E+03 -0.28487282590E+03  0.32033252911E+03  0.00000000000E+00 0.  1.
         21    1    1    2  502  501  0.18372994435E+02  0.20095681877E+01 -0.79591312619E+01  0.20123445511E+02  0.00000000000E+00 0.  1.
<mgrwt>
<rscale>  1 0.30000000E+03</rscale>
<asrwt>0</asrwt>
<pdfrwt beam="1">  1        1 0.11505522E+00 0.30000000E+03</pdfrwt>
<pdfrwt beam="2">0</pdfrwt>
<totfact> 0.27745683E+01</totfact>
</mgrwt>
</event>
<event>
 6    1  0.1929825E-004  0.3000000E+03  0.7818608E-02  0.1093470E+00
          3   -1    0    0  502    0  0.00000000000E+00  0.00000000000E+00  0.33644998149E+02  0.33644998149E+02  0.00000000000E+00 0.  1.
         13   -1    0    0    0    0 -0.00000000000E+00 -0.00000000000E+00 -0.10000000000E+04  0.10000000000E+04  0.00000000000E+00 0.  1.
    9000005    2    1    2  501    0  0.21344547423E+02 -0.29833973605E+01 -0.95785324116E+03  0.10104766944E+04  0.32111653326E+03 0.  0.
         13    1    3    3    0    0  0.25276148157E+01 -0.16031775064E+03 -0.55104304444E+03  0.57389598956E+03  0.00000000000E+00 0.  1.
          1    1    3    3  501    0  0.18816932607E+02  0.15733435327E+03 -0.40681019672E+03  0.43658070483E+03  0.00000000000E+00 0.  1.
         21    1    1    2  502  501 -0.21344547423E+02  0.29833973605E+01 -0.85017606962E+01  0.23168303767E+02  0.00000000000E+00 0.  1.
<mgrwt>
<rscale>  1 0.30000000E+03</rscale>
<asrwt>0</asrwt>
<pdfrwt beam="1">  1        3 0.12234571E+00 0.30000000E+03</pdfrwt>
<pdfrwt beam="2">0</pdfrwt>
<totfact> 0.21724351E+00</totfact>
</mgrwt>
</event>
<event>
 6    1  0.1929825E-004  0.3000000E+03  0.7818608E-02  0.1093470E+00
          1   -1    0    0  502    0  0.00000000000E+00  0.00000000000E+00  0.64659533110E+02  0.64659533110E+02  0.00000000000E+00 0.  1.
         13   -1    0    0    0    0 -0.00000000000E+00 -0.00000000000E+00 -0.10000000000E+04  0.10000000000E+04  0.00000000000E+00 0.  1.
    9000005    2    1    2  501    0 -0.33713920954E+02 -0.56447506988E+00 -0.96080332190E+03  0.10224066742E+04  0.34790147607E+03 0.  0.
         13    1    3    3    0    0 -0.65418685898E+02  0.14827369366E+03 -0.26886367354E+03  0.31393051404E+03  0.00000000000E+00 0.  1.
          1    1    3    3  501    0  0.31704764944E+02 -0.14883816873E+03 -0.69193964835E+03  0.70847616019E+03  0.00000000000E+00 0.  1.
         21    1    1    2  502  501  0.33713920954E+02  0.56447506988E+00  0.25462855005E+02  0.42252858877E+02  0.00000000000E+00 0.  1.
<mgrwt>
<rscale>  1 0.30000000E+03</rscale>
<asrwt>0</asrwt>
<pdfrwt beam="1">  1        1 0.23512607E+00 0.30000000E+03</pdfrwt>
<pdfrwt beam="2">0</pdfrwt>
<totfact> 0.70026974E+00</totfact>
</mgrwt>
</event>
<event>
 6    1  0.1929825E-004  0.3000000E+03  0.7818608E-02  0.1093470E+00
          1   -1    0    0  502    0  0.00000000000E+00  0.00000000000E+00  0.45876505782E+02  0.45876505782E+02  0.00000000000E+00 0.  1.
         13   -1    0    0    0    0 -0.00000000000E+00 -0.00000000000E+00 -0.10000000000E+04  0.10000000000E+04  0.00000000000E+00 0.  1.
    9000005    2    1    2  501    0 -0.22885119999E+02  0.33668182602E+02 -0.94428124409E+03  0.10039939900E+04  0.33864374920E+03 0.  0.
         13    1    3    3    0    0  0.69568349677E+02 -0.40520366022E+00 -0.17164082397E+02  0.71655601256E+02  0.00000000000E+00 0.  1.
          3    1    3    3  501    0 -0.92453469676E+02  0.34073386262E+02 -0.92711716169E+03  0.93233838879E+03  0.00000000000E+00 0.  1.
         21    1    1    2  502  501  0.22885119999E+02 -0.33668182602E+02 -0.98422501319E+01  0.41882515740E+02  0.00000000000E+00 0.  1.
<mgrwt>
<rscale>  1 0.30000000E+03</rscale>
<asrwt>0</asrwt>
<pdfrwt beam="1">  1        1 0.16682401E+00 0.30000000E+03</pdfrwt>
<pdfrwt beam="2">0</pdfrwt>
<totfact> 0.14808297E+01</totfact>
</mgrwt>
</event>
<event>
 6    1  0.1929825E-004  0.3000000E+03  0.7818608E-02  0.1093470E+00
          1   -1    0    0  502    0  0.00000000000E+00  0.00000000000E+00  0.26682358199E+02  0.26682358199E+02  0.00000000000E+00 0.  1.
         13   -1    0    0    0    0 -0.00000000000E+00 -0.00000000000E+00 -0.10000000000E+04  0.10000000000E+04  0.00000000000E+00 0.  1.
    9000005    2    1    2  501    0  0.81010589595E+01 -0.61358423157E+01 -0.94415017805E+03  0.99579519810E+03  0.31636251695E+03 0.  0.
         13    1    3    3    0    0 -0.11340837606E+02 -0.81138812708E+02 -0.45311073676E+02  0.93622726531E+02  0.00000000000E+00 0.  1.
          1    1    3    3  501    0  0.19441896565E+02  0.75002970393E+02 -0.89883910437E+03  0.90217247157E+03  0.00000000000E+00 0.  1.
         21    1    1    2  502  501 -0.81010589595E+01  0.61358423157E+01 -0.29167463756E+02  0.30887160101E+02  0.00000000000E+00 0. -1.
<mgrwt>
<rscale>  1 0.30000000E+03</rscale>
<asrwt>0</asrwt>
<pdfrwt beam="1">  1        1 0.97026962E-01 0.30000000E+03</pdfrwt>
<pdfrwt beam="2">0</pdfrwt>
<totfact> 0.35763874E+01</totfact>
</mgrwt>
</event>
<event>
 6    1  0.1929825E-004  0.3000000E+03  0.7818608E-02  0.1093470E+00
          1   -1    0    0  502    0  0.00000000000E+00  0.00000000000E+00  0.59976313961E+02  0.59976313961E+02  0.00000000000E+00 0.  1.
         13   -1    0    0    0    0 -0.00000000000E+00 -0.00000000000E+00 -0.10000000000E+04  0.10000000000E+04  0.00000000000E+00 0.  1.
    9000005    2    1    2  501    0 -0.25979783656E+02 -0.19537112394E+02 -0.96415815748E+03  0.10194902592E+04  0.32970105856E+03 0.  0.
         13    1    3    3    0    0 -0.95358664101E+02 -0.10406227051E+03 -0.18499834625E+03  0.23269426095E+03  0.00000000000E+00 0.  1.
          3    1    3    3  501    0  0.69378880445E+02  0.84525158112E+02 -0.77915981123E+03  0.78679599824E+03  0.00000000000E+00 0.  1.
         21    1    1    2  502  501  0.25979783656E+02  0.19537112394E+02  0.24134471443E+02  0.40486054776E+02  0.00000000000E+00 0.  1.
<mgrwt>
<rscale>  1 0.30000000E+03</rscale>
<asrwt>0</asrwt>
<pdfrwt beam="1">  1        1 0.21809615E+00 0.30000000E+03</pdfrwt>
<pdfrwt beam="2">0</pdfrwt>
<totfact> 0.84145089E+00</totfact>
</mgrwt>
</event>
<event>
 6    1  0.1929825E-004  0.3000000E+03  0.7818608E-02  0.1093470E+00
          1   -1    0    0  502    0  0.00000000000E+00  0.00000000000E+00  0.32933223331E+02  0.32933223331E+02  0.00000000000E+00 0.  1.
         13   -1    0    0    0    0 -0.00000000000E+00 -0.00000000000E+00 -0.10000000000E+04  0.10000000000E+04  0.00000000000E+00 0.  1.
    9000005    2    1    2  501    0 -0.32139680387E+02  0.11754914838E+02 -0.89647146869E+03  0.95448046948E+03  0.32588454299E+03 0.  0.
         13    1    3    3    0    0  0.75465401216E+02  0.13823338266E+03 -0.51213323164E+03  0.53580214801E+03  0.00000000000E+00 0.  1.
          1    1    3    3  501    0 -0.10760508160E+03 -0.12647846782E+03 -0.38433823705E+03  0.41867832147E+03  0.00000000000E+00 0.  1.
         21    1    1    2  502  501  0.32139680387E+02 -0.11754914838E+02 -0.70595307978E+02  0.78452753851E+02  0.00000000000E+00 0.  1.
<mgrwt>
<rscale>  1 0.30000000E+03</rscale>
<asrwt>0</asrwt>
<pdfrwt beam="1">  1        1 0.11975743E+00 0.30000000E+03</pdfrwt>
<pdfrwt beam="2">0</pdfrwt>
<totfact> 0.26078293E+01</totfact>
</mgrwt>
</event>
<event>
 6    1  0.1929825E-004  0.3000000E+03  0.7818608E-02  0.1093470E+00
          1   -1    0    0  502    0  0.00000000000E+00  0.00000000000E+00  0.41685859181E+02  0.41685859181E+02  0.00000000000E+00 0.  1.
         13   -1    0    0    0    0 -0.00000000000E+00 -0.00000000000E+00 -0.10000000000E+04  0.10000000000E+04  0.00000000000E+00 0.  1.
    9000005    2    1    2  501    0  0.21609607382E+02  0.10160524715E+02 -0.92981706839E+03  0.10045066374E+04  0.37934626999E+03 0.  0.
         13    1    3    3    0    0  0.29403278540E+02  0.18618829626E+03 -0.33789060273E+03  0.38691173911E+03  0.00000000000E+00 0.  1.
          1    1    3    3  501    0 -0.77936711581E+01 -0.17602777154E+03 -0.59192646566E+03  0.61759489831E+03  0.00000000000E+00 0.  1.
         21    1    1    2  502  501 -0.21609607382E+02 -0.10160524715E+02 -0.28497072430E+02  0.37179221761E+02  0.00000000000E+00 0. -1.
<mgrwt>
<rscale>  1 0.30000000E+03</rscale>
<asrwt>0</asrwt>
<pdfrwt beam="1">  1        1 0.15158526E+00 0.30000000E+03</pdfrwt>
<pdfrwt beam="2">0</pdfrwt>
<totfact> 0.17635297E+01</totfact>
</mgrwt>
</event>
<event>
 6    1  0.1929825E-004  0.3000000E+03  0.7818608E-02  0.1093470E+00
          1   -1    0    0  502    0  0.00000000000E+00  0.00000000000E+00  0.36587684453E+02  0.36587684453E+02  0.00000000000E+00 0.  1.
         13   -1    0    0    0    0 -0.00000000000E+00 -0.00000000000E+00 -0.10000000000E+04  0.10000000000E+04  0.00000000000E+00 0.  1.
    9000005    2    1    2  501    0 -0.16781470353E+02  0.28962370778E+02 -0.93864720566E+03  0.99494939275E+03  0.32824576276E+03 0.  0.
         13    1    3    3    0    0 -0.16577201201E+03 -0.18177450106E+02 -0.58518366627E+03  0.60848229467E+03  0.00000000000E+00 0.  1.
          1    1    3    3  501    0  0.14899054166E+03  0.47139820884E+02 -0.35346353940E+03  0.38646709808E+03  0.00000000000E+00 0.  1.
         21    1    1    2  502  501  0.16781470353E+02 -0.28962370778E+02 -0.24765109885E+02  0.41638291702E+02  0.00000000000E+00 0.  1.
<mgrwt>
<rscale>  1 0.30000000E+03</rscale>
<asrwt>0</asrwt>
<pdfrwt beam="1">  1        1 0.13304641E+00 0.30000000E+03</pdfrwt>
<pdfrwt beam="2">0</pdfrwt>
<totfact> 0.22027282E+01</totfact>
</mgrwt>
</event>
<event>
 6    1  0.1929825E-004  0.3000000E+03  0.7818608E-02  0.1093470E+00
          1   -1    0    0  502    0  0.00000000000E+00  0.00000000000E+00  0.28144635465E+02  0.28144635465E+02  0.00000000000E+00 0.  1.
         13   -1    0    0    0    0 -0.00000000000E+00 -0.00000000000E+00 -0.10000000000E+04  0.10000000000E+04  0.00000000000E+00 0.  1.
    9000005    2    1    2  501    0 -0.36784246519E+01 -0.13813132946E+02 -0.94035234794E+03  0.99355022111E+03  0.32042966490E+03 0.  0.
         13    1    3    3    0    0  0.13235997470E+02 -0.95536721005E+02 -0.89179680841E+03  0.89699721526E+03  0.00000000000E+00 0.  1.
          3    1    3    3  501    0 -0.16914422122E+02  0.81723588059E+02 -0.48555539532E+02  0.96553005858E+02  0.00000000000E+00 0.  1.
         21    1    1    2  502  501  0.36784246519E+01  0.13813132946E+02 -0.31503016594E+02  0.34594414350E+02  0.00000000000E+00 0.  1.
<mgrwt>
<rscale>  1 0.30000000E+03</rscale>
<asrwt>0</asrwt>
<pdfrwt beam="1">  1        1 0.10234434E+00 0.30000000E+03</pdfrwt>
<pdfrwt beam="2">0</pdfrwt>
<totfact> 0.33082664E+01</totfact>
</mgrwt>
</event>
<event>
 6    1  0.1929825E-004  0.3000000E+03  0.7818608E-02  0.1093470E+00
          1   -1    0    0  502    0  0.00000000000E+00  0.00000000000E+00  0.27903930187E+02  0.27903930187E+02  0.00000000000E+00 0.  1.
         13   -1    0    0    0    0 -0.00000000000E+00 -0.00000000000E+00 -0.10000000000E+04  0.10000000000E+04  0.00000000000E+00 0.  1.
    9000005    2    1    2  501    0  0.65195375783E+01 -0.63894438789E+01 -0.94290840352E+03  0.99732208546E+03  0.32479494355E+03 0.  0.
         13    1    3    3    0    0  0.49578493250E+02 -0.15514994028E+03 -0.58702312667E+03  0.60920085539E+03  0.00000000000E+00 0.  1.
          1    1    3    3  501    0 -0.43058955672E+02  0.14876049640E+03 -0.35588527685E+03  0.38812123007E+03  0.00000000000E+00 0.  1.
         21    1    1    2  502  501 -0.65195375783E+01  0.63894438789E+01 -0.29187666294E+02  0.30581844728E+02  0.00000000000E+00 0. -1.
<mgrwt>
<rscale>  1 0.30000000E+03</rscale>
<asrwt>0</asrwt>
<pdfrwt beam="1">  1        1 0.10146905E+00 0.30000000E+03</pdfrwt>
<pdfrwt beam="2">0</pdfrwt>
<totfact> 0.33503239E+01</totfact>
</mgrwt>
</event>
<event>
 6    1  0.1929825E-004  0.3000000E+03  0.7818608E-02  0.1093470E+00
          1   -1    0    0  502    0  0.00000000000E+00  0.00000000000E+00  0.32892650880E+02  0.32892650880E+02  0.00000000000E+00 0.  1.
         13   -1    0    0    0    0 -0.00000000000E+00 -0.00000000000E+00 -0.10000000000E+04  0.10000000000E+04  0.00000000000E+00 0.  1.
    9000005    2    1    2  501    0  0.20012953683E+02 -0.33845115746E+01 -0.95499271900E+03  0.10092550221E+04  0.32584142302E+03 0.  0.
         13    1    3    3    0    0  0.56223593950E+02 -0.13226470639E+03 -0.75523416917E+03  0.76878715868E+03  0.00000000000E+00 0.  1.
          1    1    3    3  501    0 -0.36210640267E+02  0.12888019481E+03 -0.19975854983E+03  0.24046786337E+03  0.00000000000E+00 0.  1.
         21    1    1    2  502  501 -0.20012953683E+02  0.33845115746E+01 -0.12114630119E+02  0.23637628828E+02  0.00000000000E+00 0. -1.
<mgrwt>
<rscale>  1 0.30000000E+03</rscale>
<asrwt>0</asrwt>
<pdfrwt beam="1">  1        1 0.11960989E+00 0.30000000E+03</pdfrwt>
<pdfrwt beam="2">0</pdfrwt>
<totfact> 0.26128504E+01</totfact>
</mgrwt>
</event>
<event>
 6    1  0.1929825E-004  0.3000000E+03  0.7818608E-02  0.1093470E+00
          1   -1    0    0  502    0  0.00000000000E+00  0.00000000000E+00  0.10221340335E+03  0.10221340335E+03  0.00000000000E+00 0.  1.
         13   -1    0    0    0    0 -0.00000000000E+00 -0.00000000000E+00 -0.10000000000E+04  0.10000000000E+04  0.00000000000E+00 0.  1.
    9000005    2    1    2  501    0  0.40786405208E+02 -0.56111306275E+01 -0.96903671634E+03  0.10199237005E+04  0.31546343941E+03 0.  0.
         13    1    3    3    0    0  0.26755691187E+02  0.36466570449E+02  0.44312748508E+01  0.45445725520E+02  0.00000000000E+00 0.  1.
          3    1    3    3  501    0  0.14030714021E+02 -0.42077701077E+02 -0.97346799120E+03  0.97447797499E+03  0.00000000000E+00 0.  1.
         21    1    1    2  502  501 -0.40786405208E+02  0.56111306275E+01  0.71250119699E+02  0.82289702842E+02  0.00000000000E+00 0. -1.
<mgrwt>
<rscale>  1 0.30000000E+03</rscale>
<asrwt>0</asrwt>
<pdfrwt beam="1">  1        1 0.37168589E+00 0.30000000E+03</pdfrwt>
<pdfrwt beam="2">0</pdfrwt>
<totfact> 0.15117220E+00</totfact>
</mgrwt>
</event>
<event>
 6    1  0.1929825E-004  0.3000000E+03  0.7818608E-02  0.1093470E+00
          1   -1    0    0  502    0  0.00000000000E+00  0.00000000000E+00  0.28374805423E+02  0.28374805423E+02  0.00000000000E+00 0.  1.
         13   -1    0    0    0    0 -0.00000000000E+00 -0.00000000000E+00 -0.10000000000E+04  0.10000000000E+04  0.00000000000E+00 0.  1.
    9000005    2    1    2  501    0  0.98611508756E+01  0.54345918974E+00 -0.96246608814E+03  0.10149053260E+04  0.32186070330E+03 0.  0.
         13    1    3    3    0    0 -0.82008613975E+02  0.30312178957E+02 -0.88970457861E+03  0.89399020026E+03  0.00000000000E+00 0.  1.
          1    1    3    3  501    0  0.91869764851E+02 -0.29768719767E+02 -0.72761509533E+02  0.12091512577E+03  0.00000000000E+00 0.  1.
         21    1    1    2  502  501 -0.98611508756E+01 -0.54345918974E+00 -0.91591064352E+01  0.13469479395E+02  0.00000000000E+00 0.  1.
<mgrwt>
<rscale>  1 0.30000000E+03</rscale>
<asrwt>0</asrwt>
<pdfrwt beam="1">  1        1 0.10318133E+00 0.30000000E+03</pdfrwt>
<pdfrwt beam="2">0</pdfrwt>
<totfact> 0.32687675E+01</totfact>
</mgrwt>
</event>
<event>
 6    1  0.1929825E-004  0.3000000E+03  0.7818608E-02  0.1093470E+00
          1   -1    0    0  502    0  0.00000000000E+00  0.00000000000E+00  0.39403754659E+02  0.39403754659E+02  0.00000000000E+00 0.  1.
         13   -1    0    0    0    0 -0.00000000000E+00 -0.00000000000E+00 -0.10000000000E+04  0.10000000000E+04  0.00000000000E+00 0.  1.
    9000005    2    1    2  501    0 -0.12609650606E+02  0.14251129333E+02 -0.96006695862E+03  0.10203675229E+04  0.34504958883E+03 0.  0.
         13    1    3    3    0    0  0.10624448329E+03 -0.58746179153E+02 -0.12695572512E+03  0.17566092319E+03  0.00000000000E+00 0.  1.
          3    1    3    3  501    0 -0.11885413390E+03  0.72997308486E+02 -0.83311123350E+03  0.84470659970E+03  0.00000000000E+00 0.  1.
         21    1    1    2  502  501  0.12609650606E+02 -0.14251129333E+02 -0.52928672219E+00  0.19036231773E+02  0.00000000000E+00 0.  1.
<mgrwt>
<rscale>  1 0.30000000E+03</rscale>
<asrwt>0</asrwt>
<pdfrwt beam="1">  1        1 0.14328668E+00 0.30000000E+03</pdfrwt>
<pdfrwt beam="2">0</pdfrwt>
<totfact> 0.19449188E+01</totfact>
</mgrwt>
</event>
<event>
 6    1  0.1929825E-004  0.3000000E+03  0.7818608E-02  0.1093470E+00
          1   -1    0    0  502    0  0.00000000000E+00  0.00000000000E+00  0.46802736733E+02  0.46802736733E+02  0.00000000000E+00 0.  1.
         13   -1    0    0    0    0 -0.00000000000E+00 -0.00000000000E+00 -0.10000000000E+04  0.10000000000E+04  0.00000000000E+00 0.  1.
    9000005    2    1    2  501    0  0.17927085970E+01  0.14081083899E+02 -0.96865878996E+03  0.10258134648E+04  0.33733058340E+03 0.  0.
         13    1    3    3    0    0  0.42599215993E+02  0.16568198558E+03 -0.62504055633E+03  0.64802847978E+03  0.00000000000E+00 0.  1.
          1    1    3    3  501    0 -0.40806507396E+02 -0.15160090168E+03 -0.34361823363E+03  0.37778498503E+03  0.00000000000E+00 0.  1.
         21    1    1    2  502  501 -0.17927085970E+01 -0.14081083899E+02  0.15461526695E+02  0.20989271917E+02  0.00000000000E+00 0.  1.
<mgrwt>
<rscale>  1 0.30000000E+03</rscale>
<asrwt>0</asrwt>
<pdfrwt beam="1">  1        1 0.17019213E+00 0.30000000E+03</pdfrwt>
<pdfrwt beam="2">0</pdfrwt>
<totfact> 0.14256339E+01</totfact>
</mgrwt>
</event>
<event>
 6    1  0.1929825E-004  0.3000000E+03  0.7818608E-02  0.1093470E+00
          3   -1    0    0  502    0  0.00000000000E+00  0.00000000000E+00  0.29734528207E+02  0.29734528207E+02  0.00000000000E+00 0.  1.
         13   -1    0    0    0    0 -0.00000000000E+00 -0.00000000000E+00 -0.10000000000E+04  0.10000000000E+04  0.00000000000E+00 0.  1.
    9000005    2    1    2  501    0  0.87528010694E+01  0.84100049003E+01 -0.93299641550E+03  0.99053858115E+03  0.33247109603E+03 0.  0.
         13    1    3    3    0    0  0.97174071784E+02 -0.11571449496E+03 -0.26197976798E+03  0.30243353551E+03  0.00000000000E+00 0.  1.
          1    1    3    3  501    0 -0.88421270715E+02  0.12412449986E+03 -0.67101664752E+03  0.68810504564E+03  0.00000000000E+00 0.  1.
         21    1    1    2  502  501 -0.87528010694E+01 -0.84100049003E+01 -0.37269056293E+02  0.39195947061E+02  0.00000000000E+00 0.  1.
<mgrwt>
<rscale>  1 0.30000000E+03</rscale>
<asrwt>0</asrwt>
<pdfrwt beam="1">  1        3 0.10812579E+00 0.30000000E+03</pdfrwt>
<pdfrwt beam="2">0</pdfrwt>
<totfact> 0.31654977E+00</totfact>
</mgrwt>
</event>
<event>
 6    1  0.1929825E-004  0.3000000E+03  0.7818608E-02  0.1093470E+00
          1   -1    0    0  502    0  0.00000000000E+00  0.00000000000E+00  0.31286408430E+02  0.31286408430E+02  0.00000000000E+00 0.  1.
         13   -1    0    0    0    0 -0.00000000000E+00 -0.00000000000E+00 -0.10000000000E+04  0.10000000000E+04  0.00000000000E+00 0.  1.
    9000005    2    1    2  501    0  0.69168173707E+01 -0.20221060234E+02 -0.91394772416E+03  0.97249836651E+03  0.33165629306E+03 0.  0.
         13    1    3    3    0    0  0.78051788162E+02  0.69375278838E+02 -0.82140838860E+02  0.13286131249E+03  0.00000000000E+00 0.  1.
          1    1    3    3  501    0 -0.71134970791E+02 -0.89596339071E+02 -0.83180688530E+03  0.83963705402E+03  0.00000000000E+00 0.  1.
         21    1    1    2  502  501 -0.69168173707E+01  0.20221060234E+02 -0.54765867405E+02  0.58788041915E+02  0.00000000000E+00 0.  1.
<mgrwt>
<rscale>  1 0.30000000E+03</rscale>
<asrwt>0</asrwt>
<pdfrwt beam="1">  1        1 0.11376900E+00 0.30000000E+03</pdfrwt>
<pdfrwt beam="2">0</pdfrwt>
<totfact> 0.28227480E+01</totfact>
</mgrwt>
</event>
<event>
 6    1  0.1929825E-004  0.3000000E+03  0.7818608E-02  0.1093470E+00
          1   -1    0    0  502    0  0.00000000000E+00  0.00000000000E+00  0.32790988931E+02  0.32790988931E+02  0.00000000000E+00 0.  1.
         13   -1    0    0    0    0 -0.00000000000E+00 -0.00000000000E+00 -0.10000000000E+04  0.10000000000E+04  0.00000000000E+00 0.  1.
    9000005    2    1    2  501    0 -0.90186399238E+01  0.62087277103E+01 -0.96472497656E+03  0.10215635853E+04  0.33582435015E+03 0.  0.
         13    1    3    3    0    0 -0.15665033456E+03 -0.54935815534E+02 -0.36609413975E+03  0.40197287260E+03  0.00000000000E+00 0.  1.
          3    1    3    3  501    0  0.14763169464E+03  0.61144543244E+02 -0.59863083681E+03  0.61959071266E+03  0.00000000000E+00 0.  1.
         21    1    1    2  502  501  0.90186399238E+01 -0.62087277103E+01 -0.24840345098E+01  0.11227403676E+02  0.00000000000E+00 0. -1.
<mgrwt>
<rscale>  1 0.30000000E+03</rscale>
<asrwt>0</asrwt>
<pdfrwt beam="1">  1        1 0.11924021E+00 0.30000000E+03</pdfrwt>
<pdfrwt beam="2">0</pdfrwt>
<totfact> 0.26254888E+01</totfact>
</mgrwt>
</event>
<event>
 6    1  0.1929825E-004  0.3000000E+03  0.7818608E-02  0.1093470E+00
          1   -1    0    0  502    0  0.00000000000E+00  0.00000000000E+00  0.37242439631E+02  0.37242439631E+02  0.00000000000E+00 0.  1.
         13   -1    0    0    0    0 -0.00000000000E+00 -0.00000000000E+00 -0.10000000000E+04  0.10000000000E+04  0.00000000000E+00 0.  1.
    9000005    2    1    2  501    0 -0.24790707404E+02  0.27920220428E+02 -0.93163750544E+03  0.98863610567E+03  0.32872296849E+03 0.  0.
         13    1    3    3    0    0  0.76735234241E+02 -0.14708276886E+02 -0.84479243938E+03  0.84839784017E+03  0.00000000000E+00 0.  1.
          3    1    3    3  501    0 -0.10152594165E+03  0.42628497314E+02 -0.86845066059E+02  0.14023826549E+03  0.00000000000E+00 0.  1.
         21    1    1    2  502  501  0.24790707404E+02 -0.27920220428E+02 -0.31120054932E+02  0.48606333963E+02  0.00000000000E+00 0. -1.
<mgrwt>
<rscale>  1 0.30000000E+03</rscale>
<asrwt>0</asrwt>
<pdfrwt beam="1">  1        1 0.13542734E+00 0.30000000E+03</pdfrwt>
<pdfrwt beam="2">0</pdfrwt>
<totfact> 0.21389938E+01</totfact>
</mgrwt>
</event>
<event>
 6    1  0.1929825E-004  0.3000000E+03  0.7818608E-02  0.1093470E+00
          1   -1    0    0  502    0  0.00000000000E+00  0.00000000000E+00  0.41203781271E+02  0.41203781271E+02  0.00000000000E+00 0.  1.
         13   -1    0    0    0    0 -0.00000000000E+00 -0.00000000000E+00 -0.10000000000E+04  0.10000000000E+04  0.00000000000E+00 0.  1.
    9000005    2    1    2  501    0  0.21860298872E+02 -0.78103627200E+00 -0.96437816134E+03  0.10186285566E+04  0.32726199845E+03 0.  0.
         13    1    3    3    0    0  0.91861218792E+02 -0.29018347999E+02 -0.93121201144E+03  0.93618179767E+03  0.00000000000E+00 0.  1.
          1    1    3    3  501    0 -0.70000919920E+02  0.28237311727E+02 -0.33166149892E+02  0.82446758953E+02  0.00000000000E+00 0.  1.
         21    1    1    2  502  501 -0.21860298872E+02  0.78103627200E+00  0.55819426072E+01  0.22575224644E+02  0.00000000000E+00 0.  1.
<mgrwt>
<rscale>  1 0.30000000E+03</rscale>
<asrwt>0</asrwt>
<pdfrwt beam="1">  1        1 0.14983225E+00 0.30000000E+03</pdfrwt>
<pdfrwt beam="2">0</pdfrwt>
<totfact> 0.18000282E+01</totfact>
</mgrwt>
</event>
<event>
 6    1  0.1929825E-004  0.3000000E+03  0.7818608E-02  0.1093470E+00
          1   -1    0    0  502    0  0.00000000000E+00  0.00000000000E+00  0.11343587090E+03  0.11343587090E+03  0.00000000000E+00 0.  1.
         13   -1    0    0    0    0 -0.00000000000E+00 -0.00000000000E+00 -0.10000000000E+04  0.10000000000E+04  0.00000000000E+00 0.  1.
    9000005    2    1    2  501    0  0.40967962618E+02 -0.12864845045E+03 -0.91373858704E+03  0.97571423524E+03  0.31443801556E+03 0.  0.
         13    1    3    3    0    0  0.14055188868E+03 -0.38859549013E+02 -0.18921401772E+03  0.23888667284E+03  0.00000000000E+00 0.  1.
          1    1    3    3  501    0 -0.99583926058E+02 -0.89788901438E+02 -0.72452456933E+03  0.73682756240E+03  0.00000000000E+00 0.  1.
         21    1    1    2  502  501 -0.40967962618E+02  0.12864845045E+03  0.27174457942E+02  0.13772163566E+03  0.00000000000E+00 0.  1.
<mgrwt>
<rscale>  1 0.30000000E+03</rscale>
<asrwt>0</asrwt>
<pdfrwt beam="1">  1        1 0.41249495E+00 0.30000000E+03</pdfrwt>
<pdfrwt beam="2">0</pdfrwt>
<totfact> 0.89044770E-01</totfact>
</mgrwt>
</event>
<event>
 6    1  0.1929825E-004  0.3000000E+03  0.7818608E-02  0.1093470E+00
          1   -1    0    0  502    0  0.00000000000E+00  0.00000000000E+00  0.30505985407E+02  0.30505985407E+02  0.00000000000E+00 0.  1.
         13   -1    0    0    0    0 -0.00000000000E+00 -0.00000000000E+00 -0.10000000000E+04  0.10000000000E+04  0.00000000000E+00 0.  1.
    9000005    2    1    2  501    0  0.11337332692E+02 -0.22057535442E+01 -0.96059446145E+03  0.10159250901E+04  0.33049760801E+03 0.  0.
         13    1    3    3    0    0  0.21279891063E+02  0.48964543825E+02 -0.96229033528E+03  0.96377022661E+03  0.00000000000E+00 0.  1.
          3    1    3    3  501    0 -0.99425583713E+01 -0.51170297369E+02  0.16958738329E+01  0.52154863511E+02  0.00000000000E+00 0.  1.
         21    1    1    2  502  501 -0.11337332692E+02  0.22057535442E+01 -0.88995531431E+01  0.14580895288E+02  0.00000000000E+00 0.  1.
<mgrwt>
<rscale>  1 0.30000000E+03</rscale>
<asrwt>0</asrwt>
<pdfrwt beam="1">  1        1 0.11093109E+00 0.30000000E+03</pdfrwt>
<pdfrwt beam="2">0</pdfrwt>
<totfact> 0.29333410E+01</totfact>
</mgrwt>
</event>
<event>
 6    1  0.1929825E-004  0.3000000E+03  0.7818608E-02  0.1093470E+00
          1   -1    0    0  502    0  0.00000000000E+00  0.00000000000E+00  0.63320251114E+02  0.63320251114E+02  0.00000000000E+00 0.  1.
         13   -1    0    0    0    0 -0.00000000000E+00 -0.00000000000E+00 -0.10000000000E+04  0.10000000000E+04  0.00000000000E+00 0.  1.
    9000005    2    1    2  501    0  0.49610249919E+02 -0.12753956417E+03 -0.78189915275E+03  0.85671785455E+03  0.32229129667E+03 0.  0.
         13    1    3    3    0    0  0.51830499819E+01 -0.45027298070E+02 -0.75886313242E+03  0.76021547953E+03  0.00000000000E+00 0.  1.
          3    1    3    3  501    0  0.44427199937E+02 -0.82512266100E+02 -0.23036020329E+02  0.96502375016E+02  0.00000000000E+00 0.  1.
         21    1    1    2  502  501 -0.49610249919E+02  0.12753956417E+03 -0.15478059614E+03  0.20660239657E+03  0.00000000000E+00 0.  1.
<mgrwt>
<rscale>  1 0.30000000E+03</rscale>
<asrwt>0</asrwt>
<pdfrwt beam="1">  1        1 0.23025594E+00 0.30000000E+03</pdfrwt>
<pdfrwt beam="2">0</pdfrwt>
<totfact> 0.73800297E+00</totfact>
</mgrwt>
</event>
<event>
 6    1  0.1929825E-004  0.3000000E+03  0.7818608E-02  0.1093470E+00
          1   -1    0    0  502    0  0.00000000000E+00  0.00000000000E+00  0.70652597580E+02  0.70652597580E+02  0.00000000000E+00 0.  1.
         13   -1    0    0    0    0 -0.00000000000E+00 -0.00000000000E+00 -0.10000000000E+04  0.10000000000E+04  0.00000000000E+00 0.  1.
    9000005    2    1    2  501    0 -0.37847663575E+02  0.17160841399E+02 -0.96322098594E+03  0.10170395416E+04  0.32380213281E+03 0.  0.
         13    1    3    3    0    0 -0.17959823162E+03  0.17384770036E+02 -0.61933300147E+03  0.64508225966E+03  0.00000000000E+00 0.  1.
          3    1    3    3  501    0  0.14175056804E+03 -0.22392863723E+00 -0.34388798448E+03  0.37195728189E+03  0.00000000000E+00 0.  1.
         21    1    1    2  502  501  0.37847663575E+02 -0.17160841399E+02  0.33873583522E+02  0.53613056024E+02  0.00000000000E+00 0.  1.
<mgrwt>
<rscale>  1 0.30000000E+03</rscale>
<asrwt>0</asrwt>
<pdfrwt beam="1">  1        1 0.25691908E+00 0.30000000E+03</pdfrwt>
<pdfrwt beam="2">0</pdfrwt>
<totfact> 0.55392413E+00</totfact>
</mgrwt>
</event>
<event>
 6    1  0.1929825E-004  0.3000000E+03  0.7818608E-02  0.1093470E+00
          1   -1    0    0  502    0  0.00000000000E+00  0.00000000000E+00  0.25335563964E+02  0.25335563964E+02  0.00000000000E+00 0.  1.
         13   -1    0    0    0    0 -0.00000000000E+00 -0.00000000000E+00 -0.10000000000E+04  0.10000000000E+04  0.00000000000E+00 0.  1.
    9000005    2    1    2  501    0  0.10317982618E+02 -0.30833496242E+01 -0.98433052300E+03  0.10108648678E+04  0.22983740911E+03 0.  0.
         13    1    3    3    0    0 -0.10046103573E+03  0.37977490313E+01 -0.67028750843E+03  0.67778476418E+03  0.00000000000E+00 0.  1.
          3    1    3    3  501    0  0.11077901835E+03 -0.68810986555E+01 -0.31404301457E+03  0.33308010362E+03  0.00000000000E+00 0.  1.
         21    1    1    2  502  501 -0.10317982618E+02  0.30833496242E+01  0.96660869672E+01  0.14470696164E+02  0.00000000000E+00 0.  1.
<mgrwt>
<rscale>  1 0.30000000E+03</rscale>
<asrwt>0</asrwt>
<pdfrwt beam="1">  1        1 0.92129518E-01 0.30000000E+03</pdfrwt>
<pdfrwt beam="2">0</pdfrwt>
<totfact> 0.38528726E+01</totfact>
</mgrwt>
</event>
<event>
 6    1  0.1929825E-004  0.3000000E+03  0.7818608E-02  0.1093470E+00
          1   -1    0    0  502    0  0.00000000000E+00  0.00000000000E+00  0.36492263280E+02  0.36492263280E+02  0.00000000000E+00 0.  1.
         13   -1    0    0    0    0 -0.00000000000E+00 -0.00000000000E+00 -0.10000000000E+04  0.10000000000E+04  0.00000000000E+00 0.  1.
    9000005    2    1    2  501    0  0.23088041260E+02 -0.46807124176E+00 -0.95890854287E+03  0.10129459403E+04  0.32560805845E+03 0.  0.
         13    1    3    3    0    0  0.13993309094E+03 -0.84630035733E+02 -0.33699102531E+03  0.37457504458E+03  0.00000000000E+00 0.  1.
          3    1    3    3  501    0 -0.11684504968E+03  0.84161964491E+02 -0.62191751756E+03  0.63837089576E+03  0.00000000000E+00 0.  1.
         21    1    1    2  502  501 -0.23088041260E+02  0.46807124176E+00 -0.45991938515E+01  0.23546322940E+02  0.00000000000E+00 0. -1.
<mgrwt>
<rscale>  1 0.30000000E+03</rscale>
<asrwt>0</asrwt>
<pdfrwt beam="1">  1        1 0.13269942E+00 0.30000000E+03</pdfrwt>
<pdfrwt beam="2">0</pdfrwt>
<totfact> 0.22122255E+01</totfact>
</mgrwt>
</event>
<event>
 6    1  0.1929825E-004  0.3000000E+03  0.7818608E-02  0.1093470E+00
          1   -1    0    0  502    0  0.00000000000E+00  0.00000000000E+00  0.47428607846E+02  0.47428607846E+02  0.00000000000E+00 0.  1.
         13   -1    0    0    0    0 -0.00000000000E+00 -0.00000000000E+00 -0.10000000000E+04  0.10000000000E+04  0.00000000000E+00 0.  1.
    9000005    2    1    2  501    0  0.12658010795E+02  0.88021771666E+01 -0.97059756635E+03  0.10237084368E+04  0.32508710238E+03 0.  0.
         13    1    3    3    0    0  0.33030429115E+02 -0.18869568712E+02 -0.98551429713E+03  0.98624819377E+03  0.00000000000E+00 0.  1.
          1    1    3    3  501    0 -0.20372418320E+02  0.27671745879E+02  0.14916730777E+02  0.37460242995E+02  0.00000000000E+00 0.  1.
         21    1    1    2  502  501 -0.12658010795E+02 -0.88021771666E+01  0.18026174195E+02  0.23720171084E+02  0.00000000000E+00 0.  1.
<mgrwt>
<rscale>  1 0.30000000E+03</rscale>
<asrwt>0</asrwt>
<pdfrwt beam="1">  1        1 0.17246803E+00 0.30000000E+03</pdfrwt>
<pdfrwt beam="2">0</pdfrwt>
<totfact> 0.13896480E+01</totfact>
</mgrwt>
</event>
<event>
 6    1  0.1929825E-004  0.3000000E+03  0.7818608E-02  0.1093470E+00
          1   -1    0    0  502    0  0.00000000000E+00  0.00000000000E+00  0.68075295925E+02  0.68075295925E+02  0.00000000000E+00 0.  1.
         13   -1    0    0    0    0 -0.00000000000E+00 -0.00000000000E+00 -0.10000000000E+04  0.10000000000E+04  0.00000000000E+00 0.  1.
    9000005    2    1    2  501    0 -0.25175578570E+02 -0.61947120556E+01 -0.96067067814E+03  0.10293646354E+04  0.36882409974E+03 0.  0.
         13    1    3    3    0    0 -0.12715502804E+03  0.71346413464E+02 -0.15205835771E+03  0.21066669414E+03  0.00000000000E+00 0.  1.
          1    1    3    3  501    0  0.10197944947E+03 -0.77541125520E+02 -0.80861232043E+03  0.81869794126E+03  0.00000000000E+00 0.  1.
         21    1    1    2  502  501  0.25175578570E+02  0.61947120556E+01  0.28745974065E+02  0.38710660531E+02  0.00000000000E+00 0.  1.
<mgrwt>
<rscale>  1 0.30000000E+03</rscale>
<asrwt>0</asrwt>
<pdfrwt beam="1">  1        1 0.24754705E+00 0.30000000E+03</pdfrwt>
<pdfrwt beam="2">0</pdfrwt>
<totfact> 0.61251438E+00</totfact>
</mgrwt>
</event>
<event>
 6    1  0.1929825E-004  0.3000000E+03  0.7818608E-02  0.1093470E+00
          1   -1    0    0  502    0  0.00000000000E+00  0.00000000000E+00  0.80806913450E+02  0.80806913450E+02  0.00000000000E+00 0.  1.
         13   -1    0    0    0    0 -0.00000000000E+00 -0.00000000000E+00 -0.10000000000E+04  0.10000000000E+04  0.00000000000E+00 0.  1.
    9000005    2    1    2  501    0  0.95567213705E+01  0.36889022885E+02 -0.96725965997E+03  0.10194674774E+04  0.31979768097E+03 0.  0.
         13    1    3    3    0    0  0.58645053503E+02 -0.10310731167E+03 -0.16272780213E+03  0.20137203779E+03  0.00000000000E+00 0.  1.
          3    1    3    3  501    0 -0.49088332132E+02  0.13999633455E+03 -0.80453185784E+03  0.81809543962E+03  0.00000000000E+00 0.  1.
         21    1    1    2  502  501 -0.95567213705E+01 -0.36889022885E+02  0.48066573424E+02  0.61339436038E+02  0.00000000000E+00 0.  1.
<mgrwt>
<rscale>  1 0.30000000E+03</rscale>
<asrwt>0</asrwt>
<pdfrwt beam="1">  1        1 0.29384394E+00 0.30000000E+03</pdfrwt>
<pdfrwt beam="2">0</pdfrwt>
<totfact> 0.37156741E+00</totfact>
</mgrwt>
</event>
<event>
 6    1  0.1929825E-004  0.3000000E+03  0.7818608E-02  0.1093470E+00
          1   -1    0    0  502    0  0.00000000000E+00  0.00000000000E+00  0.31967734926E+02  0.31967734926E+02  0.00000000000E+00 0.  1.
         13   -1    0    0    0    0 -0.00000000000E+00 -0.00000000000E+00 -0.10000000000E+04  0.10000000000E+04  0.00000000000E+00 0.  1.
    9000005    2    1    2  501    0 -0.14439923800E+02 -0.18436983386E+02 -0.94056785582E+03  0.99587441793E+03  0.32641925670E+03 0.  0.
         13    1    3    3    0    0  0.14275471228E+03 -0.72899377553E+02 -0.49183962887E+03  0.51730015238E+03  0.00000000000E+00 0.  1.
          3    1    3    3  501    0 -0.15719463608E+03  0.54462394167E+02 -0.44872822695E+03  0.47857426556E+03  0.00000000000E+00 0.  1.
         21    1    1    2  502  501  0.14439923800E+02  0.18436983386E+02 -0.27464409257E+02  0.36093316993E+02  0.00000000000E+00 0.  1.
<mgrwt>
<rscale>  1 0.30000000E+03</rscale>
<asrwt>0</asrwt>
<pdfrwt beam="1">  1        1 0.11624655E+00 0.30000000E+03</pdfrwt>
<pdfrwt beam="2">0</pdfrwt>
<totfact> 0.27309656E+01</totfact>
</mgrwt>
</event>
<event>
 6    1  0.1929825E-004  0.3000000E+03  0.7818608E-02  0.1093470E+00
          1   -1    0    0  502    0  0.00000000000E+00  0.00000000000E+00  0.44542098066E+02  0.44542098066E+02  0.00000000000E+00 0.  1.
         13   -1    0    0    0    0 -0.00000000000E+00 -0.00000000000E+00 -0.10000000000E+04  0.10000000000E+04  0.00000000000E+00 0.  1.
    9000005    2    1    2  501    0 -0.54200487182E+01  0.13837480268E+02 -0.97183463265E+03  0.10224276210E+04  0.31729297834E+03 0.  0.
         13    1    3    3    0    0  0.42057945492E+02  0.16258130837E+02  0.41539380864E+01  0.45281925742E+02  0.00000000000E+00 0.  1.
          1    1    3    3  501    0 -0.47477994210E+02 -0.24206505695E+01 -0.97598857074E+03  0.97714569523E+03  0.00000000000E+00 0.  1.
         21    1    1    2  502  501  0.54200487182E+01 -0.13837480268E+02  0.16376730719E+02  0.22114477098E+02  0.00000000000E+00 0.  1.
<mgrwt>
<rscale>  1 0.30000000E+03</rscale>
<asrwt>0</asrwt>
<pdfrwt beam="1">  1        1 0.16197161E+00 0.30000000E+03</pdfrwt>
<pdfrwt beam="2">0</pdfrwt>
<totfact> 0.15646814E+01</totfact>
</mgrwt>
</event>
<event>
 6    1  0.1929825E-004  0.3000000E+03  0.7818608E-02  0.1093470E+00
          1   -1    0    0  502    0  0.00000000000E+00  0.00000000000E+00  0.40635642847E+02  0.40635642847E+02  0.00000000000E+00 0.  1.
         13   -1    0    0    0    0 -0.00000000000E+00 -0.00000000000E+00 -0.10000000000E+04  0.10000000000E+04  0.00000000000E+00 0.  1.
    9000005    2    1    2  501    0  0.83813120890E+01  0.12766098720E+02 -0.96550216884E+03  0.10241768336E+04  0.34133638659E+03 0.  0.
         13    1    3    3    0    0  0.84612798942E+02 -0.14371742495E+03 -0.50831983418E+03  0.53497951157E+03  0.00000000000E+00 0.  1.
          3    1    3    3  501    0 -0.76231486853E+02  0.15648352367E+03 -0.45718233467E+03  0.48919732205E+03  0.00000000000E+00 0.  1.
         21    1    1    2  502  501 -0.83813120890E+01 -0.12766098720E+02  0.61378116917E+01  0.16458809228E+02  0.00000000000E+00 0. -1.
<mgrwt>
<rscale>  1 0.30000000E+03</rscale>
<asrwt>0</asrwt>
<pdfrwt beam="1">  1        1 0.14776629E+00 0.30000000E+03</pdfrwt>
<pdfrwt beam="2">0</pdfrwt>
<totfact> 0.18442525E+01</totfact>
</mgrwt>
</event>
<event>
 6    1  0.1929825E-004  0.3000000E+03  0.7818608E-02  0.1093470E+00
          1   -1    0    0  502    0  0.00000000000E+00  0.00000000000E+00  0.26634059323E+02  0.26634059323E+02  0.00000000000E+00 0.  1.
         13   -1    0    0    0    0 -0.00000000000E+00 -0.00000000000E+00 -0.10000000000E+04  0.10000000000E+04  0.00000000000E+00 0.  1.
    9000005    2    1    2  501    0  0.58270326975E+01  0.52360244397E+01 -0.95344237651E+03  0.10052256808E+04  0.31837860127E+03 0.  0.
         13    1    3    3    0    0  0.99833565002E+02 -0.10778359942E+03 -0.67012119815E+03  0.68603678124E+03  0.00000000000E+00 0.  1.
          1    1    3    3  501    0 -0.94006532304E+02  0.11301962386E+03 -0.28332117836E+03  0.31918889956E+03  0.00000000000E+00 0.  1.
         21    1    1    2  502  501 -0.58270326975E+01 -0.52360244397E+01 -0.19923564162E+02  0.21408378521E+02  0.00000000000E+00 0.  1.
<mgrwt>
<rscale>  1 0.30000000E+03</rscale>
<asrwt>0</asrwt>
<pdfrwt beam="1">  1        1 0.96851329E-01 0.30000000E+03</pdfrwt>
<pdfrwt beam="2">0</pdfrwt>
<totfact> 0.35857844E+01</totfact>
</mgrwt>
</event>
<event>
 6    1  0.1929825E-004  0.3000000E+03  0.7818608E-02  0.1093470E+00
          1   -1    0    0  502    0  0.00000000000E+00  0.00000000000E+00  0.78021364310E+02  0.78021364310E+02  0.00000000000E+00 0.  1.
         13   -1    0    0    0    0 -0.00000000000E+00 -0.00000000000E+00 -0.10000000000E+04  0.10000000000E+04  0.00000000000E+00 0.  1.
    9000005    2    1    2  501    0 -0.75719224658E+01 -0.13824666751E+02 -0.96642723145E+03  0.10308606488E+04  0.35839032937E+03 0.  0.
         13    1    3    3    0    0  0.13991168064E+03 -0.66335316582E+02 -0.22529562783E+03  0.27337478400E+03  0.00000000000E+00 0.  1.
          3    1    3    3  501    0 -0.14748360311E+03  0.52510649831E+02 -0.74113160361E+03  0.75748586482E+03  0.00000000000E+00 0.  1.
         21    1    1    2  502  501  0.75719224658E+01  0.13824666751E+02  0.44448595757E+02  0.47160715488E+02  0.00000000000E+00 0.  1.
<mgrwt>
<rscale>  1 0.30000000E+03</rscale>
<asrwt>0</asrwt>
<pdfrwt beam="1">  1        1 0.28371465E+00 0.30000000E+03</pdfrwt>
<pdfrwt beam="2">0</pdfrwt>
<totfact> 0.41483233E+00</totfact>
</mgrwt>
</event>
<event>
 6    1  0.1929825E-004  0.3000000E+03  0.7818608E-02  0.1093470E+00
          1   -1    0    0  502    0  0.00000000000E+00  0.00000000000E+00  0.25661271622E+02  0.25661271622E+02  0.00000000000E+00 0.  1.
         13   -1    0    0    0    0 -0.00000000000E+00 -0.00000000000E+00 -0.10000000000E+04  0.10000000000E+04  0.00000000000E+00 0.  1.
    9000005    2    1    2  501    0 -0.10364614087E+02 -0.49654119229E+01 -0.96661540849E+03  0.10118146038E+04  0.29881660582E+03 0.  0.
         13    1    3    3    0    0 -0.48363122871E+01  0.14570424841E+03 -0.54035217094E+03  0.55967274952E+03  0.00000000000E+00 0.  1.
          1    1    3    3  501    0 -0.55283017999E+01 -0.15066966034E+03 -0.42626323755E+03  0.45214185424E+03  0.00000000000E+00 0.  1.
         21    1    1    2  502  501  0.10364614087E+02  0.49654119229E+01 -0.77233198886E+01  0.13846667860E+02  0.00000000000E+00 0. -1.
<mgrwt>
<rscale>  1 0.30000000E+03</rscale>
<asrwt>0</asrwt>
<pdfrwt beam="1">  1        1 0.93313912E-01 0.30000000E+03</pdfrwt>
<pdfrwt beam="2">0</pdfrwt>
<totfact> 0.37831508E+01</totfact>
</mgrwt>
</event>
<event>
 6    1  0.1929825E-004  0.3000000E+03  0.7818608E-02  0.1093470E+00
          1   -1    0    0  502    0  0.00000000000E+00  0.00000000000E+00  0.75645086756E+02  0.75645086756E+02  0.00000000000E+00 0.  1.
         13   -1    0    0    0    0 -0.00000000000E+00 -0.00000000000E+00 -0.10000000000E+04  0.10000000000E+04  0.00000000000E+00 0.  1.
    9000005    2    1    2  501    0 -0.29076976615E+02 -0.10007733666E+02 -0.96953062143E+03  0.10209964828E+04  0.31858839708E+03 0.  0.
         13    1    3    3    0    0 -0.52861962791E+02  0.29424054181E+01 -0.98722683780E+03  0.98864547444E+03  0.00000000000E+00 0.  1.
          1    1    3    3  501    0  0.23784986176E+02 -0.12950139084E+02  0.17696216371E+02  0.32351008385E+02  0.00000000000E+00 0.  1.
         21    1    1    2  502  501  0.29076976615E+02  0.10007733666E+02  0.45175708182E+02  0.54648603934E+02  0.00000000000E+00 0.  1.
<mgrwt>
<rscale>  1 0.30000000E+03</rscale>
<asrwt>0</asrwt>
<pdfrwt beam="1">  1        1 0.27507362E+00 0.30000000E+03</pdfrwt>
<pdfrwt beam="2">0</pdfrwt>
<totfact> 0.45527203E+00</totfact>
</mgrwt>
</event>
<event>
 6    1  0.1929825E-004  0.3000000E+03  0.7818608E-02  0.1093470E+00
          1   -1    0    0  502    0  0.00000000000E+00  0.00000000000E+00  0.30496747974E+02  0.30496747974E+02  0.00000000000E+00 0.  1.
         13   -1    0    0    0    0 -0.00000000000E+00 -0.00000000000E+00 -0.10000000000E+04  0.10000000000E+04  0.00000000000E+00 0.  1.
    9000005    2    1    2  501    0 -0.74453789739E+01  0.18966371441E+02 -0.94129817529E+03  0.99570187382E+03  0.32398273073E+03 0.  0.
         13    1    3    3    0    0  0.35286297990E+02 -0.11793731921E+03 -0.73013624124E+03  0.74044126361E+03  0.00000000000E+00 0.  1.
          3    1    3    3  501    0 -0.42731676964E+02  0.13690369066E+03 -0.21116193405E+03  0.25526061021E+03  0.00000000000E+00 0.  1.
         21    1    1    2  502  501  0.74453789739E+01 -0.18966371441E+02 -0.28205076734E+02  0.34794874153E+02  0.00000000000E+00 0. -1.
<mgrwt>
<rscale>  1 0.30000000E+03</rscale>
<asrwt>0</asrwt>
<pdfrwt beam="1">  1        1 0.11089750E+00 0.30000000E+03</pdfrwt>
<pdfrwt beam="2">0</pdfrwt>
<totfact> 0.29346865E+01</totfact>
</mgrwt>
</event>
<event>
 6    1  0.1929825E-004  0.3000000E+03  0.7818608E-02  0.1093470E+00
          1   -1    0    0  502    0  0.00000000000E+00  0.00000000000E+00  0.33982900160E+02  0.33982900160E+02  0.00000000000E+00 0.  1.
         13   -1    0    0    0    0 -0.00000000000E+00 -0.00000000000E+00 -0.10000000000E+04  0.10000000000E+04  0.00000000000E+00 0.  1.
    9000005    2    1    2  501    0  0.15977125268E+02 -0.94462975189E+01 -0.93839296442E+03  0.10007023664E+04  0.34710138203E+03 0.  0.
         13    1    3    3    0    0  0.15589325012E+02  0.95827910117E+02 -0.56058361315E+02  0.11210956821E+03  0.00000000000E+00 0.  1.
          1    1    3    3  501    0  0.38780025580E+00 -0.10527420764E+03 -0.88233460310E+03  0.88859279820E+03  0.00000000000E+00 0.  1.
         21    1    1    2  502  501 -0.15977125268E+02  0.94462975189E+01 -0.27624135423E+02  0.33280533747E+02  0.00000000000E+00 0.  1.
<mgrwt>
<rscale>  1 0.30000000E+03</rscale>
<asrwt>0</asrwt>
<pdfrwt beam="1">  1        1 0.12357444E+00 0.30000000E+03</pdfrwt>
<pdfrwt beam="2">0</pdfrwt>
<totfact> 0.24822635E+01</totfact>
</mgrwt>
</event>
<event>
 6    1  0.1929825E-004  0.3000000E+03  0.7818608E-02  0.1093470E+00
          1   -1    0    0  502    0  0.00000000000E+00  0.00000000000E+00  0.39066259180E+02  0.39066259180E+02  0.00000000000E+00 0.  1.
         13   -1    0    0    0    0 -0.00000000000E+00 -0.00000000000E+00 -0.10000000000E+04  0.10000000000E+04  0.00000000000E+00 0.  1.
    9000005    2    1    2  501    0 -0.95400086216E+01  0.79838315210E+02 -0.78169389149E+03  0.84261755868E+03  0.30412800243E+03 0.  0.
         13    1    3    3    0    0  0.78175375476E+02  0.13502185418E+03 -0.21004217858E+03  0.26164863313E+03  0.00000000000E+00 0.  1.
          3    1    3    3  501    0 -0.87715384097E+02 -0.55183538971E+02 -0.57165171291E+03  0.58096892555E+03  0.00000000000E+00 0.  1.
         21    1    1    2  502  501  0.95400086216E+01 -0.79838315210E+02 -0.17923984933E+03  0.19644870050E+03  0.00000000000E+00 0.  1.
<mgrwt>
<rscale>  1 0.30000000E+03</rscale>
<asrwt>0</asrwt>
<pdfrwt beam="1">  1        1 0.14205942E+00 0.30000000E+03</pdfrwt>
<pdfrwt beam="2">0</pdfrwt>
<totfact> 0.19737004E+01</totfact>
</mgrwt>
</event>
<event>
 6    1  0.1929825E-004  0.3000000E+03  0.7818608E-02  0.1093470E+00
          1   -1    0    0  502    0  0.00000000000E+00  0.00000000000E+00  0.36077092331E+02  0.36077092331E+02  0.00000000000E+00 0.  1.
         13   -1    0    0    0    0 -0.00000000000E+00 -0.00000000000E+00 -0.10000000000E+04  0.10000000000E+04  0.00000000000E+00 0.  1.
    9000005    2    1    2  501    0  0.15672338595E+02  0.27033924255E+02 -0.95011477945E+03  0.10019139592E+04  0.31644435898E+03 0.  0.
         13    1    3    3    0    0  0.15378813073E+03  0.67568171574E+02 -0.60738262249E+03  0.63018243157E+03  0.00000000000E+00 0.  1.
          1    1    3    3  501    0 -0.13811579214E+03 -0.40534247319E+02 -0.34273215696E+03  0.37173152767E+03  0.00000000000E+00 0.  1.
         21    1    1    2  502  501 -0.15672338595E+02 -0.27033924255E+02 -0.13808128218E+02  0.34163133090E+02  0.00000000000E+00 0.  1.
<mgrwt>
<rscale>  1 0.30000000E+03</rscale>
<asrwt>0</asrwt>
<pdfrwt beam="1">  1        1 0.13118970E+00 0.30000000E+03</pdfrwt>
<pdfrwt beam="2">0</pdfrwt>
<totfact> 0.22541802E+01</totfact>
</mgrwt>
</event>
<event>
 6    1  0.1929825E-004  0.3000000E+03  0.7818608E-02  0.1093470E+00
          1   -1    0    0  502    0  0.00000000000E+00  0.00000000000E+00  0.31758511484E+02  0.31758511484E+02  0.00000000000E+00 0.  1.
         13   -1    0    0    0    0 -0.00000000000E+00 -0.00000000000E+00 -0.10000000000E+04  0.10000000000E+04  0.00000000000E+00 0.  1.
    9000005    2    1    2  501    0  0.25535889787E+02 -0.51630795559E+01 -0.91375630547E+03  0.97136501656E+03  0.32851281642E+03 0.  0.
         13    1    3    3    0    0  0.17223654358E+03 -0.32745516244E+02 -0.57606536900E+03  0.60215363915E+03  0.00000000000E+00 0.  1.
          1    1    3    3  501    0 -0.14670065379E+03  0.27582436688E+02 -0.33769093647E+03  0.36921137741E+03  0.00000000000E+00 0.  1.
         21    1    1    2  502  501 -0.25535889787E+02  0.51630795559E+01 -0.54485183047E+02  0.60393494926E+02  0.00000000000E+00 0. -1.
<mgrwt>
<rscale>  1 0.30000000E+03</rscale>
<asrwt>0</asrwt>
<pdfrwt beam="1">  1        1 0.11548574E+00 0.30000000E+03</pdfrwt>
<pdfrwt beam="2">0</pdfrwt>
<totfact> 0.27587000E+01</totfact>
</mgrwt>
</event>
<event>
 6    1  0.1929825E-004  0.3000000E+03  0.7818608E-02  0.1093470E+00
          1   -1    0    0  502    0  0.00000000000E+00  0.00000000000E+00  0.60821148532E+02  0.60821148532E+02  0.00000000000E+00 0.  1.
         13   -1    0    0    0    0 -0.00000000000E+00 -0.00000000000E+00 -0.10000000000E+04  0.10000000000E+04  0.00000000000E+00 0.  1.
    9000005    2    1    2  501    0  0.69451045870E+02  0.32219363335E+02 -0.92333251949E+03  0.98263776549E+03  0.32737211470E+03 0.  0.
         13    1    3    3    0    0 -0.58737817893E+02  0.13253167137E+03 -0.63686690905E+03  0.65315712889E+03  0.00000000000E+00 0.  1.
          1    1    3    3  501    0  0.12818886376E+03 -0.10031230804E+03 -0.28646561043E+03  0.32948063661E+03  0.00000000000E+00 0.  1.
         21    1    1    2  502  501 -0.69451045870E+02 -0.32219363335E+02 -0.15846331980E+02  0.78183383039E+02  0.00000000000E+00 0.  1.
<mgrwt>
<rscale>  1 0.30000000E+03</rscale>
<asrwt>0</asrwt>
<pdfrwt beam="1">  1        1 0.22116828E+00 0.30000000E+03</pdfrwt>
<pdfrwt beam="2">0</pdfrwt>
<totfact> 0.81399869E+00</totfact>
</mgrwt>
</event>
<event>
 6    1  0.1929825E-004  0.3000000E+03  0.7818608E-02  0.1093470E+00
          1   -1    0    0  502    0  0.00000000000E+00  0.00000000000E+00  0.64597553092E+02  0.64597553092E+02  0.00000000000E+00 0.  1.
         13   -1    0    0    0    0 -0.00000000000E+00 -0.00000000000E+00 -0.10000000000E+04  0.10000000000E+04  0.00000000000E+00 0.  1.
    9000005    2    1    2  501    0 -0.23437957126E+01 -0.73205882507E+02 -0.93371257425E+03  0.99133466834E+03  0.32490099835E+03 0.  0.
         13    1    3    3    0    0 -0.12665514209E+03 -0.95714192121E+02 -0.25070554710E+03  0.29674231740E+03  0.00000000000E+00 0.  1.
          3    1    3    3  501    0  0.12431134638E+03  0.22508309614E+02 -0.68300702715E+03  0.69459235094E+03  0.00000000000E+00 0.  1.
         21    1    1    2  502  501  0.23437957126E+01  0.73205882507E+02 -0.16898726536E+01  0.73262884748E+02  0.00000000000E+00 0.  1.
<mgrwt>
<rscale>  1 0.30000000E+03</rscale>
<asrwt>0</asrwt>
<pdfrwt beam="1">  1        1 0.23490069E+00 0.30000000E+03</pdfrwt>
<pdfrwt beam="2">0</pdfrwt>
<totfact> 0.70197358E+00</totfact>
</mgrwt>
</event>
<event>
 6    1  0.1929825E-004  0.3000000E+03  0.7818608E-02  0.1093470E+00
          1   -1    0    0  502    0  0.00000000000E+00  0.00000000000E+00  0.61825504016E+02  0.61825504016E+02  0.00000000000E+00 0.  1.
         13   -1    0    0    0    0 -0.00000000000E+00 -0.00000000000E+00 -0.10000000000E+04  0.10000000000E+04  0.00000000000E+00 0.  1.
    9000005    2    1    2  501    0  0.81636453204E+01 -0.10432035337E+02 -0.97225483797E+03  0.10252612841E+04  0.32512421984E+03 0.  0.
         13    1    3    3    0    0  0.13893390927E+03 -0.83815047939E+02 -0.64809942707E+03  0.66810213349E+03  0.00000000000E+00 0.  1.
          3    1    3    3  501    0 -0.13077026395E+03  0.73383012602E+02 -0.32415541090E+03  0.35715915064E+03  0.00000000000E+00 0.  1.
         21    1    1    2  502  501 -0.81636453204E+01  0.10432035337E+02  0.34080341981E+02  0.36564219885E+02  0.00000000000E+00 0. -1.
<mgrwt>
<rscale>  1 0.30000000E+03</rscale>
<asrwt>0</asrwt>
<pdfrwt beam="1">  1        1 0.22482049E+00 0.30000000E+03</pdfrwt>
<pdfrwt beam="2">0</pdfrwt>
<totfact> 0.78255117E+00</totfact>
</mgrwt>
</event>
<event>
 6    1  0.1929825E-004  0.3000000E+03  0.7818608E-02  0.1093470E+00
          1   -1    0    0  502    0  0.00000000000E+00  0.00000000000E+00  0.34959742654E+02  0.34959742654E+02  0.00000000000E+00 0.  1.
         13   -1    0    0    0    0 -0.00000000000E+00 -0.00000000000E+00 -0.10000000000E+04  0.10000000000E+04  0.00000000000E+00 0.  1.
    9000005    2    1    2  501    0  0.64735560230E+01 -0.15786142826E+02 -0.97209892600E+03  0.10164953435E+04  0.29664010551E+03 0.  0.
         13    1    3    3    0    0  0.97780257257E+02 -0.94413256842E+02 -0.25138732023E+03  0.28578038167E+03  0.00000000000E+00 0.  1.
          1    1    3    3  501    0 -0.91306701234E+02  0.78627114016E+02 -0.72071160577E+03  0.73071496183E+03  0.00000000000E+00 0.  1.
         21    1    1    2  502  501 -0.64735560230E+01  0.15786142826E+02  0.70586686531E+01  0.18464399152E+02  0.00000000000E+00 0.  1.
<mgrwt>
<rscale>  1 0.30000000E+03</rscale>
<asrwt>0</asrwt>
<pdfrwt beam="1">  1        1 0.12712660E+00 0.30000000E+03</pdfrwt>
<pdfrwt beam="2">0</pdfrwt>
<totfact> 0.23723590E+01</totfact>
</mgrwt>
</event>
<event>
 6    1  0.1929825E-004  0.3000000E+03  0.7818608E-02  0.1093470E+00
          1   -1    0    0  502    0  0.00000000000E+00  0.00000000000E+00  0.36818852371E+02  0.36818852371E+02  0.00000000000E+00 0.  1.
         13   -1    0    0    0    0 -0.00000000000E+00 -0.00000000000E+00 -0.10000000000E+04  0.10000000000E+04  0.00000000000E+00 0.  1.
    9000005    2    1    2  501    0 -0.32772788555E+02 -0.24728687907E+02 -0.91128422543E+03  0.97064594093E+03  0.33170625476E+03 0.  0.
         13    1    3    3    0    0 -0.58401809824E+02 -0.16391027133E+03 -0.33809414154E+03  0.38024333917E+03  0.00000000000E+00 0.  1.
          1    1    3    3  501    0  0.25629021270E+02  0.13918158342E+03 -0.57319008389E+03  0.59040260176E+03  0.00000000000E+00 0.  1.
         21    1    1    2  502  501  0.32772788555E+02  0.24728687907E+02 -0.51896922196E+02  0.66172911441E+02  0.00000000000E+00 0.  1.
<mgrwt>
<rscale>  1 0.30000000E+03</rscale>
<asrwt>0</asrwt>
<pdfrwt beam="1">  1        1 0.13388702E+00 0.30000000E+03</pdfrwt>
<pdfrwt beam="2">0</pdfrwt>
<totfact> 0.21799420E+01</totfact>
</mgrwt>
</event>
<event>
 6    1  0.1929825E-004  0.3000000E+03  0.7818608E-02  0.1093470E+00
          1   -1    0    0  502    0  0.00000000000E+00  0.00000000000E+00  0.41629564645E+02  0.41629564645E+02  0.00000000000E+00 0.  1.
         13   -1    0    0    0    0 -0.00000000000E+00 -0.00000000000E+00 -0.10000000000E+04  0.10000000000E+04  0.00000000000E+00 0.  1.
    9000005    2    1    2  501    0  0.11807299778E+02 -0.48330038545E+02 -0.66381661314E+03  0.74290367167E+03  0.32981534916E+03 0.  0.
         13    1    3    3    0    0 -0.82799946517E+02  0.13114755443E+02 -0.61380834322E+03  0.61950666676E+03  0.00000000000E+00 0.  1.
          1    1    3    3  501    0  0.94607246295E+02 -0.61444793988E+02 -0.50008269919E+02  0.12339700491E+03  0.00000000000E+00 0.  1.
         21    1    1    2  502  501 -0.11807299778E+02  0.48330038545E+02 -0.29455382221E+03  0.29872589297E+03  0.00000000000E+00 0.  1.
<mgrwt>
<rscale>  1 0.30000000E+03</rscale>
<asrwt>0</asrwt>
<pdfrwt beam="1">  1        1 0.15138055E+00 0.30000000E+03</pdfrwt>
<pdfrwt beam="2">0</pdfrwt>
<totfact> 0.17677445E+01</totfact>
</mgrwt>
</event>
<event>
 6    1  0.1929825E-004  0.3000000E+03  0.7818608E-02  0.1093470E+00
          1   -1    0    0  502    0  0.00000000000E+00  0.00000000000E+00  0.36083296827E+02  0.36083296827E+02  0.00000000000E+00 0.  1.
         13   -1    0    0    0    0 -0.00000000000E+00 -0.00000000000E+00 -0.10000000000E+04  0.10000000000E+04  0.00000000000E+00 0.  1.
    9000005    2    1    2  501    0 -0.16920013632E+02  0.22245911673E+02 -0.94395489059E+03  0.10017373886E+04  0.33413439345E+03 0.  0.
         13    1    3    3    0    0 -0.25248941458E+02 -0.35028670118E+02  0.11377174097E+02  0.44653744137E+02  0.00000000000E+00 0.  1.
          1    1    3    3  501    0  0.83289278266E+01  0.57274581791E+02 -0.95533206469E+03  0.95708364451E+03  0.00000000000E+00 0.  1.
         21    1    1    2  502  501  0.16920013632E+02 -0.22245911673E+02 -0.19961812579E+02  0.34345908183E+02  0.00000000000E+00 0.  1.
<mgrwt>
<rscale>  1 0.30000000E+03</rscale>
<asrwt>0</asrwt>
<pdfrwt beam="1">  1        1 0.13121227E+00 0.30000000E+03</pdfrwt>
<pdfrwt beam="2">0</pdfrwt>
<totfact> 0.22535456E+01</totfact>
</mgrwt>
</event>
<event>
 6    1  0.1929825E-004  0.3000000E+03  0.7818608E-02  0.1093470E+00
          1   -1    0    0  502    0  0.00000000000E+00  0.00000000000E+00  0.38845462815E+02  0.38845462815E+02  0.00000000000E+00 0.  1.
         13   -1    0    0    0    0 -0.00000000000E+00 -0.00000000000E+00 -0.10000000000E+04  0.10000000000E+04  0.00000000000E+00 0.  1.
    9000005    2    1    2  501    0  0.23383881124E+02  0.55582524293E+01 -0.96207655704E+03  0.10147923926E+04  0.32192328030E+03 0.  0.
         13    1    3    3    0    0 -0.60733478399E+02  0.58574715643E+02 -0.51604069604E+02  0.98906686886E+02  0.00000000000E+00 0.  1.
          3    1    3    3  501    0  0.84117359523E+02 -0.53016463214E+02 -0.91047248743E+03  0.91588570571E+03  0.00000000000E+00 0.  1.
         21    1    1    2  502  501 -0.23383881124E+02 -0.55582524293E+01  0.92201985319E+00  0.24053070222E+02  0.00000000000E+00 0.  1.
<mgrwt>
<rscale>  1 0.30000000E+03</rscale>
<asrwt>0</asrwt>
<pdfrwt beam="1">  1        1 0.14125653E+00 0.30000000E+03</pdfrwt>
<pdfrwt beam="2">0</pdfrwt>
<totfact> 0.19928224E+01</totfact>
</mgrwt>
</event>
<event>
 6    1  0.1929825E-004  0.3000000E+03  0.7818608E-02  0.1093470E+00
          1   -1    0    0  502    0  0.00000000000E+00  0.00000000000E+00  0.33415129294E+02  0.33415129294E+02  0.00000000000E+00 0.  1.
         13   -1    0    0    0    0 -0.00000000000E+00 -0.00000000000E+00 -0.10000000000E+04  0.10000000000E+04  0.00000000000E+00 0.  1.
    9000005    2    1    2  501    0  0.36366551803E+01  0.15241984576E+02 -0.95770756808E+03  0.10154054137E+04  0.33704424756E+03 0.  0.
         13    1    3    3    0    0 -0.69822258868E+02  0.67467959203E+02 -0.90661525794E+03  0.91179948415E+03  0.00000000000E+00 0.  1.
          3    1    3    3  501    0  0.73458914049E+02 -0.52225974627E+02 -0.51092310132E+02  0.10360592953E+03  0.00000000000E+00 0.  1.
         21    1    1    2  502  501 -0.36366551803E+01 -0.15241984576E+02 -0.88773026296E+01  0.18009715620E+02  0.00000000000E+00 0. -1.
<mgrwt>
<rscale>  1 0.30000000E+03</rscale>
<asrwt>0</asrwt>
<pdfrwt beam="1">  1        1 0.12150982E+00 0.30000000E+03</pdfrwt>
<pdfrwt beam="2">0</pdfrwt>
<totfact> 0.25491653E+01</totfact>
</mgrwt>
</event>
<event>
 6    1  0.1929825E-004  0.3000000E+03  0.7818608E-02  0.1093470E+00
          1   -1    0    0  502    0  0.00000000000E+00  0.00000000000E+00  0.33224641518E+02  0.33224641518E+02  0.00000000000E+00 0.  1.
         13   -1    0    0    0    0 -0.00000000000E+00 -0.00000000000E+00 -0.10000000000E+04  0.10000000000E+04  0.00000000000E+00 0.  1.
    9000005    2    1    2  501    0 -0.41698665144E+02 -0.18139158411E+01 -0.88305768646E+03  0.93967937133E+03  0.31853473017E+03 0.  0.
         13    1    3    3    0    0  0.60337151783E+02  0.39455554344E+01 -0.81421436911E+03  0.81645647659E+03  0.00000000000E+00 0.  1.
          1    1    3    3  501    0 -0.10203581693E+03 -0.57594712755E+01 -0.68843317347E+02  0.12322289474E+03  0.00000000000E+00 0.  1.
         21    1    1    2  502  501  0.41698665144E+02  0.18139158411E+01 -0.83717672024E+02  0.93545270188E+02  0.00000000000E+00 0.  1.
<mgrwt>
<rscale>  1 0.30000000E+03</rscale>
<asrwt>0</asrwt>
<pdfrwt beam="1">  1        1 0.12081713E+00 0.30000000E+03</pdfrwt>
<pdfrwt beam="2">0</pdfrwt>
<totfact> 0.25721419E+01</totfact>
</mgrwt>
</event>
<event>
 6    1  0.1929825E-004  0.3000000E+03  0.7818608E-02  0.1093470E+00
          1   -1    0    0  502    0  0.00000000000E+00  0.00000000000E+00  0.45239228046E+02  0.45239228046E+02  0.00000000000E+00 0.  1.
         13   -1    0    0    0    0 -0.00000000000E+00 -0.00000000000E+00 -0.10000000000E+04  0.10000000000E+04  0.00000000000E+00 0.  1.
    9000005    2    1    2  501    0 -0.23604274189E+00  0.11512006365E+02 -0.97005970555E+03  0.10260913985E+04  0.33423815427E+03 0.  0.
         13    1    3    3    0    0 -0.11462194256E+03  0.11362076587E+03 -0.32255010916E+03  0.36067497983E+03  0.00000000000E+00 0.  1.
          1    1    3    3  501    0  0.11438589982E+03 -0.10210875950E+03 -0.64750959639E+03  0.66541641869E+03  0.00000000000E+00 0.  1.
         21    1    1    2  502  501  0.23604274189E+00 -0.11512006365E+02  0.15298933593E+02  0.19147829532E+02  0.00000000000E+00 0.  1.
<mgrwt>
<rscale>  1 0.30000000E+03</rscale>
<asrwt>0</asrwt>
<pdfrwt beam="1">  1        1 0.16450663E+00 0.30000000E+03</pdfrwt>
<pdfrwt beam="2">0</pdfrwt>
<totfact> 0.15202153E+01</totfact>
</mgrwt>
</event>
<event>
 6    1  0.1929825E-004  0.3000000E+03  0.7818608E-02  0.1093470E+00
          3   -1    0    0  502    0  0.00000000000E+00  0.00000000000E+00  0.41060585657E+02  0.41060585657E+02  0.00000000000E+00 0.  1.
         13   -1    0    0    0    0 -0.00000000000E+00 -0.00000000000E+00 -0.10000000000E+04  0.10000000000E+04  0.00000000000E+00 0.  1.
    9000005    2    1    2  501    0 -0.23251445620E+01  0.11415929349E+02 -0.97094992331E+03  0.10243279210E+04  0.32614139032E+03 0.  0.
         13    1    3    3    0    0 -0.98429987818E+02  0.64891448536E+02 -0.86021862842E+03  0.86826001364E+03  0.00000000000E+00 0.  1.
          3    1    3    3  501    0  0.96104843256E+02 -0.53475519186E+02 -0.11073129488E+03  0.15606790739E+03  0.00000000000E+00 0.  1.
         21    1    1    2  502  501  0.23251445620E+01 -0.11415929349E+02  0.12010508964E+02  0.16732664633E+02  0.00000000000E+00 0.  1.
<mgrwt>
<rscale>  1 0.30000000E+03</rscale>
<asrwt>0</asrwt>
<pdfrwt beam="1">  1        3 0.14931154E+00 0.30000000E+03</pdfrwt>
<pdfrwt beam="2">0</pdfrwt>
<totfact> 0.10117222E+00</totfact>
</mgrwt>
</event>
<event>
 6    1  0.1929825E-004  0.3000000E+03  0.7818608E-02  0.1093470E+00
          1   -1    0    0  502    0  0.00000000000E+00  0.00000000000E+00  0.36908285870E+02  0.36908285870E+02  0.00000000000E+00 0.  1.
         13   -1    0    0    0    0 -0.00000000000E+00 -0.00000000000E+00 -0.10000000000E+04  0.10000000000E+04  0.00000000000E+00 0.  1.
    9000005    2    1    2  501    0 -0.39792548456E+02  0.11785806707E+02 -0.91991254580E+03  0.97701844758E+03  0.32650207173E+03 0.  0.
         13    1    3    3    0    0 -0.85669188834E+02 -0.26599622790E+02 -0.91232206227E+03  0.91672149268E+03  0.00000000000E+00 0.  1.
          3    1    3    3  501    0  0.45876640378E+02  0.38385429496E+02 -0.75904835320E+01  0.60296954900E+02  0.00000000000E+00 0.  1.
         21    1    1    2  502  501  0.39792548456E+02 -0.11785806707E+02 -0.43179168332E+02  0.59889838288E+02  0.00000000000E+00 0.  1.
<mgrwt>
<rscale>  1 0.30000000E+03</rscale>
<asrwt>0</asrwt>
<pdfrwt beam="1">  1        1 0.13421223E+00 0.30000000E+03</pdfrwt>
<pdfrwt beam="2">0</pdfrwt>
<totfact> 0.21712103E+01</totfact>
</mgrwt>
</event>
<event>
 6    1  0.1929825E-004  0.3000000E+03  0.7818608E-02  0.1093470E+00
          1   -1    0    0  502    0  0.00000000000E+00  0.00000000000E+00  0.40667984039E+02  0.40667984039E+02  0.00000000000E+00 0.  1.
         13   -1    0    0    0    0 -0.00000000000E+00 -0.00000000000E+00 -0.10000000000E+04  0.10000000000E+04  0.00000000000E+00 0.  1.
    9000005    2    1    2  501    0 -0.10897578426E+02  0.23660159050E+02 -0.93153525909E+03  0.10025731020E+04  0.36975170813E+03 0.  0.
         13    1    3    3    0    0  0.10956584072E+02  0.12232972395E+03 -0.88111338782E+03  0.88963217696E+03  0.00000000000E+00 0.  1.
          1    1    3    3  501    0 -0.21854162498E+02 -0.98669564897E+02 -0.50421871276E+02  0.11294092508E+03  0.00000000000E+00 0.  1.
         21    1    1    2  502  501  0.10897578426E+02 -0.23660159050E+02 -0.27796756870E+02  0.38094881997E+02  0.00000000000E+00 0. -1.
<mgrwt>
<rscale>  1 0.30000000E+03</rscale>
<asrwt>0</asrwt>
<pdfrwt beam="1">  1        1 0.14788389E+00 0.30000000E+03</pdfrwt>
<pdfrwt beam="2">0</pdfrwt>
<totfact> 0.18416989E+01</totfact>
</mgrwt>
</event>
<event>
 6    1  0.1929825E-004  0.3000000E+03  0.7818608E-02  0.1093470E+00
          1   -1    0    0  502    0  0.00000000000E+00  0.00000000000E+00  0.60056642327E+02  0.60056642327E+02  0.00000000000E+00 0.  1.
         13   -1    0    0    0    0 -0.00000000000E+00 -0.00000000000E+00 -0.10000000000E+04  0.10000000000E+04  0.00000000000E+00 0.  1.
    9000005    2    1    2  501    0  0.12288385248E+03  0.71597648169E+02 -0.70804362539E+03  0.78801960394E+03  0.31531326693E+03 0.  0.
         13    1    3    3    0    0  0.15109388897E+03  0.12677203088E+03 -0.69789076306E+03  0.72522550167E+03  0.00000000000E+00 0.  1.
          1    1    3    3  501    0 -0.28210036490E+02 -0.55174382710E+02 -0.10152862327E+02  0.62794102268E+02  0.00000000000E+00 0.  1.
         21    1    1    2  502  501 -0.12288385248E+03 -0.71597648169E+02 -0.23189973228E+03  0.27203703839E+03  0.00000000000E+00 0.  1.
<mgrwt>
<rscale>  1 0.30000000E+03</rscale>
<asrwt>0</asrwt>
<pdfrwt beam="1">  1        1 0.21838825E+00 0.30000000E+03</pdfrwt>
<pdfrwt beam="2">0</pdfrwt>
<totfact> 0.83879982E+00</totfact>
</mgrwt>
</event>
<event>
 6    1  0.1929825E-004  0.3000000E+03  0.7818608E-02  0.1093470E+00
          1   -1    0    0  502    0  0.00000000000E+00  0.00000000000E+00  0.31261739553E+02  0.31261739553E+02  0.00000000000E+00 0.  1.
         13   -1    0    0    0    0 -0.00000000000E+00 -0.00000000000E+00 -0.10000000000E+04  0.10000000000E+04  0.00000000000E+00 0.  1.
    9000005    2    1    2  501    0 -0.37522050482E+02  0.13866631055E+01 -0.87851017713E+03  0.93353285884E+03  0.31351816551E+03 0.  0.
         13    1    3    3    0    0  0.47426632575E+02 -0.14050798193E+03 -0.36220175528E+03  0.39138458067E+03  0.00000000000E+00 0.  1.
          3    1    3    3  501    0 -0.84948683057E+02  0.14189464503E+03 -0.51630842185E+03  0.54214827817E+03  0.00000000000E+00 0.  1.
         21    1    1    2  502  501  0.37522050482E+02 -0.13866631055E+01 -0.90228083316E+02  0.97728880715E+02  0.00000000000E+00 0. -1.
<mgrwt>
<rscale>  1 0.30000000E+03</rscale>
<asrwt>0</asrwt>
<pdfrwt beam="1">  1        1 0.11367929E+00 0.30000000E+03</pdfrwt>
<pdfrwt beam="2">0</pdfrwt>
<totfact> 0.28261522E+01</totfact>
</mgrwt>
</event>
<event>
 6    1  0.1929825E-004  0.3000000E+03  0.7818608E-02  0.1093470E+00
          1   -1    0    0  502    0  0.00000000000E+00  0.00000000000E+00  0.29870294372E+02  0.29870294372E+02  0.00000000000E+00 0.  1.
         13   -1    0    0    0    0 -0.00000000000E+00 -0.00000000000E+00 -0.10000000000E+04  0.10000000000E+04  0.00000000000E+00 0.  1.
    9000005    2    1    2  501    0 -0.48898608982E+01 -0.79128815061E+01 -0.95838722377E+03  0.10148899635E+04  0.33377993178E+03 0.  0.
         13    1    3    3    0    0 -0.10985677690E+03 -0.10461513735E+03 -0.72984882572E+03  0.74544761506E+03  0.00000000000E+00 0.  1.
          1    1    3    3  501    0  0.10496691600E+03  0.96702255847E+02 -0.22853839805E+03  0.26944234842E+03  0.00000000000E+00 0.  1.
         21    1    1    2  502  501  0.48898608982E+01  0.79128815061E+01 -0.11742481863E+02  0.14980330892E+02  0.00000000000E+00 0. -1.
<mgrwt>
<rscale>  1 0.30000000E+03</rscale>
<asrwt>0</asrwt>
<pdfrwt beam="1">  1        1 0.10861948E+00 0.30000000E+03</pdfrwt>
<pdfrwt beam="2">0</pdfrwt>
<totfact> 0.30280212E+01</totfact>
</mgrwt>
</event>
<event>
 6    1  0.1929825E-004  0.3000000E+03  0.7818608E-02  0.1093470E+00
          1   -1    0    0  502    0  0.00000000000E+00  0.00000000000E+00  0.31505687373E+02  0.31505687373E+02  0.00000000000E+00 0.  1.
         13   -1    0    0    0    0 -0.00000000000E+00 -0.00000000000E+00 -0.10000000000E+04  0.10000000000E+04  0.00000000000E+00 0.  1.
    9000005    2    1    2  501    0  0.33530116734E+02  0.69378624924E+01 -0.94311069879E+03  0.98888256553E+03  0.29539555781E+03 0.  0.
         13    1    3    3    0    0  0.99865077441E+02  0.93742976248E+02 -0.78400497159E+03  0.79587974893E+03  0.00000000000E+00 0.  1.
          1    1    3    3  501    0 -0.66334960707E+02 -0.86805113755E+02 -0.15910572720E+03  0.19300281659E+03  0.00000000000E+00 0.  1.
         21    1    1    2  502  501 -0.33530116734E+02 -0.69378624924E+01 -0.25383613841E+02  0.42623121845E+02  0.00000000000E+00 0.  1.
<mgrwt>
<rscale>  1 0.30000000E+03</rscale>
<asrwt>0</asrwt>
<pdfrwt beam="1">  1        1 0.11456638E+00 0.30000000E+03</pdfrwt>
<pdfrwt beam="2">0</pdfrwt>
<totfact> 0.27927420E+01</totfact>
</mgrwt>
</event>
<event>
 6    1  0.1929825E-004  0.3000000E+03  0.7818608E-02  0.1093470E+00
          1   -1    0    0  502    0  0.00000000000E+00  0.00000000000E+00  0.32359346281E+02  0.32359346281E+02  0.00000000000E+00 0.  1.
         13   -1    0    0    0    0 -0.00000000000E+00 -0.00000000000E+00 -0.10000000000E+04  0.10000000000E+04  0.00000000000E+00 0.  1.
    9000005    2    1    2  501    0 -0.27383684300E+02  0.24268068012E+01 -0.94533685485E+03  0.99695856944E+03  0.31545025675E+03 0.  0.
         13    1    3    3    0    0 -0.13944664338E+03 -0.90389446023E+02 -0.59071123073E+03  0.61364108110E+03  0.00000000000E+00 0.  1.
          1    1    3    3  501    0  0.11206295908E+03  0.92816252824E+02 -0.35462562411E+03  0.38331748833E+03  0.00000000000E+00 0.  1.
         21    1    1    2  502  501  0.27383684300E+02 -0.24268068012E+01 -0.22303798871E+02  0.35400776844E+02  0.00000000000E+00 0.  1.
<mgrwt>
<rscale>  1 0.30000000E+03</rscale>
<asrwt>0</asrwt>
<pdfrwt beam="1">  1        1 0.11767060E+00 0.30000000E+03</pdfrwt>
<pdfrwt beam="2">0</pdfrwt>
<totfact> 0.26800822E+01</totfact>
</mgrwt>
</event>
<event>
 6    1  0.1929825E-004  0.3000000E+03  0.7818608E-02  0.1093470E+00
          1   -1    0    0  502    0  0.00000000000E+00  0.00000000000E+00  0.32555445528E+02  0.32555445528E+02  0.00000000000E+00 0.  1.
         13   -1    0    0    0    0 -0.00000000000E+00 -0.00000000000E+00 -0.10000000000E+04  0.10000000000E+04  0.00000000000E+00 0.  1.
    9000005    2    1    2  501    0  0.13471516008E+02  0.41894061052E+01 -0.96188733487E+03  0.10173924789E+04  0.33115129214E+03 0.  0.
         13    1    3    3    0    0  0.33751008268E+02  0.15510422824E+03 -0.66561074067E+03  0.68427634058E+03  0.00000000000E+00 0.  1.
          3    1    3    3  501    0 -0.20279492260E+02 -0.15091482213E+03 -0.29627659420E+03  0.33311613833E+03  0.00000000000E+00 0.  1.
         21    1    1    2  502  501 -0.13471516008E+02 -0.41894061052E+01 -0.55572196027E+01  0.15162966622E+02  0.00000000000E+00 0. -1.
<mgrwt>
<rscale>  1 0.30000000E+03</rscale>
<asrwt>0</asrwt>
<pdfrwt beam="1">  1        1 0.11838369E+00 0.30000000E+03</pdfrwt>
<pdfrwt beam="2">0</pdfrwt>
<totfact> 0.26550905E+01</totfact>
</mgrwt>
</event>
<event>
 6    1  0.1929825E-004  0.3000000E+03  0.7818608E-02  0.1093470E+00
          1   -1    0    0  502    0  0.00000000000E+00  0.00000000000E+00  0.42646061110E+02  0.42646061110E+02  0.00000000000E+00 0.  1.
         13   -1    0    0    0    0 -0.00000000000E+00 -0.00000000000E+00 -0.10000000000E+04  0.10000000000E+04  0.00000000000E+00 0.  1.
    9000005    2    1    2  501    0  0.18082993584E+02  0.22563903995E+01 -0.96777708435E+03  0.10216525403E+04  0.32687817632E+03 0.  0.
         13    1    3    3    0    0 -0.28455526280E+02 -0.15267476051E+03 -0.60180631122E+03  0.62152243379E+03  0.00000000000E+00 0.  1.
          1    1    3    3  501    0  0.46538519864E+02  0.15493115091E+03 -0.36597077313E+03  0.40013010651E+03  0.00000000000E+00 0.  1.
         21    1    1    2  502  501 -0.18082993584E+02 -0.22563903995E+01  0.10423145463E+02  0.20993520809E+02  0.00000000000E+00 0.  1.
<mgrwt>
<rscale>  1 0.30000000E+03</rscale>
<asrwt>0</asrwt>
<pdfrwt beam="1">  1        1 0.15507691E+00 0.30000000E+03</pdfrwt>
<pdfrwt beam="2">0</pdfrwt>
<totfact> 0.16934881E+01</totfact>
</mgrwt>
</event>
<event>
 6    1  0.1929825E-004  0.3000000E+03  0.7818608E-02  0.1093470E+00
          1   -1    0    0  502    0  0.00000000000E+00  0.00000000000E+00  0.39897780560E+02  0.39897780560E+02  0.00000000000E+00 0.  1.
         13   -1    0    0    0    0 -0.00000000000E+00 -0.00000000000E+00 -0.10000000000E+04  0.10000000000E+04  0.00000000000E+00 0.  1.
    9000005    2    1    2  501    0  0.29443437570E+02  0.40285436561E+02 -0.87774016899E+03  0.94359959901E+03  0.34272812342E+03 0.  0.
         13    1    3    3    0    0  0.14800993527E+03  0.54384138813E+02 -0.19636032808E+03  0.25183715758E+03  0.00000000000E+00 0.  1.
          3    1    3    3  501    0 -0.11856649770E+03 -0.14098702252E+02 -0.68137984091E+03  0.69176244143E+03  0.00000000000E+00 0.  1.
         21    1    1    2  502  501 -0.29443437570E+02 -0.40285436561E+02 -0.82362050452E+02  0.96298181548E+02  0.00000000000E+00 0. -1.
<mgrwt>
<rscale>  1 0.30000000E+03</rscale>
<asrwt>0</asrwt>
<pdfrwt beam="1">  1        1 0.14508314E+00 0.30000000E+03</pdfrwt>
<pdfrwt beam="2">0</pdfrwt>
<totfact> 0.19037379E+01</totfact>
</mgrwt>
</event>
<event>
 6    1  0.1929825E-004  0.3000000E+03  0.7818608E-02  0.1093470E+00
          3   -1    0    0  502    0  0.00000000000E+00  0.00000000000E+00  0.33971562834E+02  0.33971562834E+02  0.00000000000E+00 0.  1.
         13   -1    0    0    0    0 -0.00000000000E+00 -0.00000000000E+00 -0.10000000000E+04  0.10000000000E+04  0.00000000000E+00 0.  1.
    9000005    2    1    2  501    0  0.14802830284E+02 -0.87052594859E+00 -0.96411563987E+03  0.10190202956E+04  0.32964149330E+03 0.  0.
         13    1    3    3    0    0 -0.22591422923E+02 -0.13364522415E+03 -0.76424406370E+03  0.77617034678E+03  0.00000000000E+00 0.  1.
          3    1    3    3  501    0  0.37394253207E+02  0.13277469820E+03 -0.19987157617E+03  0.24284994877E+03  0.00000000000E+00 0.  1.
         21    1    1    2  502  501 -0.14802830284E+02  0.87052594859E+00 -0.19127972943E+01  0.14951267282E+02  0.00000000000E+00 0. -1.
<mgrwt>
<rscale>  1 0.30000000E+03</rscale>
<asrwt>0</asrwt>
<pdfrwt beam="1">  1        3 0.12353322E+00 0.30000000E+03</pdfrwt>
<pdfrwt beam="2">0</pdfrwt>
<totfact> 0.21044786E+00</totfact>
</mgrwt>
</event>
<event>
 6    1  0.1929825E-004  0.3000000E+03  0.7818608E-02  0.1093470E+00
          1   -1    0    0  502    0  0.00000000000E+00  0.00000000000E+00  0.48949907462E+02  0.48949907462E+02  0.00000000000E+00 0.  1.
         13   -1    0    0    0    0 -0.00000000000E+00 -0.00000000000E+00 -0.10000000000E+04  0.10000000000E+04  0.00000000000E+00 0.  1.
    9000005    2    1    2  501    0 -0.20643314627E+01  0.12363920707E+02 -0.97115075144E+03  0.10252609968E+04  0.32843447074E+03 0.  0.
         13    1    3    3    0    0  0.67270860602E+02 -0.12523256901E+03 -0.69161832381E+03  0.70607681654E+03  0.00000000000E+00 0.  1.
          1    1    3    3  501    0 -0.69335192065E+02  0.13759648972E+03 -0.27953242763E+03  0.31918418027E+03  0.00000000000E+00 0.  1.
         21    1    1    2  502  501  0.20643314627E+01 -0.12363920707E+02  0.20100658898E+02  0.23688910650E+02  0.00000000000E+00 0.  1.
<mgrwt>
<rscale>  1 0.30000000E+03</rscale>
<asrwt>0</asrwt>
<pdfrwt beam="1">  1        1 0.17800004E+00 0.30000000E+03</pdfrwt>
<pdfrwt beam="2">0</pdfrwt>
<totfact> 0.13062480E+01</totfact>
</mgrwt>
</event>
<event>
 6    1  0.1929825E-004  0.3000000E+03  0.7818608E-02  0.1093470E+00
          1   -1    0    0  502    0  0.00000000000E+00  0.00000000000E+00  0.36444436311E+02  0.36444436311E+02  0.00000000000E+00 0.  1.
         13   -1    0    0    0    0 -0.00000000000E+00 -0.00000000000E+00 -0.10000000000E+04  0.10000000000E+04  0.00000000000E+00 0.  1.
    9000005    2    1    2  501    0  0.95070295767E+01  0.80313385988E+01 -0.97044520611E+03  0.10222193464E+04  0.32095733054E+03 0.  0.
         13    1    3    3    0    0  0.77279665316E+02  0.12401647249E+03 -0.74973664890E+03  0.76384375026E+03  0.00000000000E+00 0.  1.
          3    1    3    3  501    0 -0.67772635740E+02 -0.11598513389E+03 -0.22070855721E+03  0.25837559611E+03  0.00000000000E+00 0.  1.
         21    1    1    2  502  501 -0.95070295767E+01 -0.80313385988E+01  0.68896424201E+01  0.14225089938E+02  0.00000000000E+00 0.  1.
<mgrwt>
<rscale>  1 0.30000000E+03</rscale>
<asrwt>0</asrwt>
<pdfrwt beam="1">  1        1 0.13252550E+00 0.30000000E+03</pdfrwt>
<pdfrwt beam="2">0</pdfrwt>
<totfact> 0.22170061E+01</totfact>
</mgrwt>
</event>
<event>
 6    1  0.1929825E-004  0.3000000E+03  0.7818608E-02  0.1093470E+00
          1   -1    0    0  502    0  0.00000000000E+00  0.00000000000E+00  0.30253082946E+02  0.30253082946E+02  0.00000000000E+00 0.  1.
         13   -1    0    0    0    0 -0.00000000000E+00 -0.00000000000E+00 -0.10000000000E+04  0.10000000000E+04  0.00000000000E+00 0.  1.
    9000005    2    1    2  501    0  0.12111137230E+02 -0.77520866399E+00 -0.90223962141E+03  0.96166361175E+03  0.33258575906E+03 0.  0.
         13    1    3    3    0    0 -0.11766559771E+03  0.11993824170E+02 -0.75817554180E+03  0.76734555246E+03  0.00000000000E+00 0.  1.
          1    1    3    3  501    0  0.12977673494E+03 -0.12769032834E+02 -0.14406407961E+03  0.19431805929E+03  0.00000000000E+00 0.  1.
         21    1    1    2  502  501 -0.12111137230E+02  0.77520866399E+00 -0.67507295644E+02  0.68589471193E+02  0.00000000000E+00 0. -1.
<mgrwt>
<rscale>  1 0.30000000E+03</rscale>
<asrwt>0</asrwt>
<pdfrwt beam="1">  1        1 0.11001144E+00 0.30000000E+03</pdfrwt>
<pdfrwt beam="2">0</pdfrwt>
<totfact> 0.29704976E+01</totfact>
</mgrwt>
</event>
<event>
 6    1  0.1929825E-004  0.3000000E+03  0.7818608E-02  0.1093470E+00
          1   -1    0    0  502    0  0.00000000000E+00  0.00000000000E+00  0.44638316397E+02  0.44638316397E+02  0.00000000000E+00 0.  1.
         13   -1    0    0    0    0 -0.00000000000E+00 -0.00000000000E+00 -0.10000000000E+04  0.10000000000E+04  0.00000000000E+00 0.  1.
    9000005    2    1    2  501    0 -0.60995458138E+02 -0.22393222474E+02 -0.90441173991E+03  0.96206835159E+03  0.32154784327E+03 0.  0.
         13    1    3    3    0    0  0.52309513395E+02 -0.28777038916E+02 -0.81607369266E+03  0.81825465169E+03  0.00000000000E+00 0.  1.
          3    1    3    3  501    0 -0.11330497153E+03  0.63838164414E+01 -0.88338047252E+02  0.14381369990E+03  0.00000000000E+00 0.  1.
         21    1    1    2  502  501  0.60995458138E+02  0.22393222474E+02 -0.50949943693E+02  0.82569964809E+02  0.00000000000E+00 0.  1.
<mgrwt>
<rscale>  1 0.30000000E+03</rscale>
<asrwt>0</asrwt>
<pdfrwt beam="1">  1        1 0.16232149E+00 0.30000000E+03</pdfrwt>
<pdfrwt beam="2">0</pdfrwt>
<totfact> 0.15584559E+01</totfact>
</mgrwt>
</event>
<event>
 6    1  0.1929825E-004  0.3000000E+03  0.7818608E-02  0.1093470E+00
          1   -1    0    0  502    0  0.00000000000E+00  0.00000000000E+00  0.30552629284E+02  0.30552629284E+02  0.00000000000E+00 0.  1.
         13   -1    0    0    0    0 -0.00000000000E+00 -0.00000000000E+00 -0.10000000000E+04  0.10000000000E+04  0.00000000000E+00 0.  1.
    9000005    2    1    2  501    0  0.29566769616E+01 -0.19178043608E+02 -0.94757657894E+03  0.10013144551E+04  0.32303672514E+03 0.  0.
         13    1    3    3    0    0  0.10984665076E+03 -0.12522279007E+03 -0.59628600233E+03  0.61911552267E+03  0.00000000000E+00 0.  1.
          3    1    3    3  501    0 -0.10688997380E+03  0.10604474647E+03 -0.35129057661E+03  0.38219893245E+03  0.00000000000E+00 0.  1.
         21    1    1    2  502  501 -0.29566769616E+01  0.19178043608E+02 -0.21870791781E+02  0.29238174163E+02  0.00000000000E+00 0.  1.
<mgrwt>
<rscale>  1 0.30000000E+03</rscale>
<asrwt>0</asrwt>
<pdfrwt beam="1">  1        1 0.11110070E+00 0.30000000E+03</pdfrwt>
<pdfrwt beam="2">0</pdfrwt>
<totfact> 0.29265600E+01</totfact>
</mgrwt>
</event>
<event>
 6    1  0.1929825E-004  0.3000000E+03  0.7818608E-02  0.1093470E+00
          1   -1    0    0  502    0  0.00000000000E+00  0.00000000000E+00  0.58747863704E+02  0.58747863704E+02  0.00000000000E+00 0.  1.
         13   -1    0    0    0    0 -0.00000000000E+00 -0.00000000000E+00 -0.10000000000E+04  0.10000000000E+04  0.00000000000E+00 0.  1.
    9000005    2    1    2  501    0 -0.41971778083E+02  0.11564165101E+03 -0.79903397582E+03  0.87070364876E+03  0.32331861661E+03 0.  0.
         13    1    3    3    0    0 -0.13200694423E+03  0.16884740692E+03 -0.35637673951E+03  0.41586014550E+03  0.00000000000E+00 0.  1.
          1    1    3    3  501    0  0.90035166145E+02 -0.53205755911E+02 -0.44265723630E+03  0.45484350326E+03  0.00000000000E+00 0.  1.
         21    1    1    2  502  501  0.41971778083E+02 -0.11564165101E+03 -0.14221816048E+03  0.18804421495E+03  0.00000000000E+00 0.  1.
<mgrwt>
<rscale>  1 0.30000000E+03</rscale>
<asrwt>0</asrwt>
<pdfrwt beam="1">  1        1 0.21362905E+00 0.30000000E+03</pdfrwt>
<pdfrwt beam="2">0</pdfrwt>
<totfact> 0.88310142E+00</totfact>
</mgrwt>
</event>
<event>
 6    1  0.1929825E-004  0.3000000E+03  0.7818608E-02  0.1093470E+00
          1   -1    0    0  502    0  0.00000000000E+00  0.00000000000E+00  0.77965525682E+02  0.77965525682E+02  0.00000000000E+00 0.  1.
         13   -1    0    0    0    0 -0.00000000000E+00 -0.00000000000E+00 -0.10000000000E+04  0.10000000000E+04  0.00000000000E+00 0.  1.
    9000005    2    1    2  501    0 -0.15913043912E+02  0.12096957766E+02 -0.97203568336E+03  0.10241168278E+04  0.32181104080E+03 0.  0.
         13    1    3    3    0    0  0.11181256985E+03  0.12918691153E+02 -0.12790740940E+03  0.17037971927E+03  0.00000000000E+00 0.  1.
          1    1    3    3  501    0 -0.12772561376E+03 -0.82173338732E+00 -0.84412827396E+03  0.85373710857E+03  0.00000000000E+00 0.  1.
         21    1    1    2  502  501  0.15913043912E+02 -0.12096957766E+02  0.50001209044E+02  0.53848697844E+02  0.00000000000E+00 0.  1.
<mgrwt>
<rscale>  1 0.30000000E+03</rscale>
<asrwt>0</asrwt>
<pdfrwt beam="1">  1        1 0.28351160E+00 0.30000000E+03</pdfrwt>
<pdfrwt beam="2">0</pdfrwt>
<totfact> 0.41574489E+00</totfact>
</mgrwt>
</event>
<event>
 6    1  0.1929825E-004  0.3000000E+03  0.7818608E-02  0.1093470E+00
          1   -1    0    0  502    0  0.00000000000E+00  0.00000000000E+00  0.56988821505E+02  0.56988821505E+02  0.00000000000E+00 0.  1.
         13   -1    0    0    0    0 -0.00000000000E+00 -0.00000000000E+00 -0.10000000000E+04  0.10000000000E+04  0.00000000000E+00 0.  1.
    9000005    2    1    2  501    0  0.20080831049E+02 -0.12342211053E+03 -0.64795188550E+03  0.73652627529E+03  0.32709792284E+03 0.  0.
         13    1    3    3    0    0 -0.97067225193E+02 -0.72641932137E+02 -0.57872154193E+03  0.59128463501E+03  0.00000000000E+00 0.  1.
          1    1    3    3  501    0  0.11714805624E+03 -0.50780178395E+02 -0.69230343571E+02  0.14524164028E+03  0.00000000000E+00 0.  1.
         21    1    1    2  502  501 -0.20080831049E+02  0.12342211053E+03 -0.29505929300E+03  0.32046254622E+03  0.00000000000E+00 0.  1.
<mgrwt>
<rscale>  1 0.30000000E+03</rscale>
<asrwt>0</asrwt>
<pdfrwt beam="1">  1        1 0.20723252E+00 0.30000000E+03</pdfrwt>
<pdfrwt beam="2">0</pdfrwt>
<totfact> 0.94657247E+00</totfact>
</mgrwt>
</event>
<event>
 6    1  0.1929825E-004  0.3000000E+03  0.7818608E-02  0.1093470E+00
          1   -1    0    0  502    0  0.00000000000E+00  0.00000000000E+00  0.25432795144E+02  0.25432795144E+02  0.00000000000E+00 0.  1.
         13   -1    0    0    0    0 -0.00000000000E+00 -0.00000000000E+00 -0.10000000000E+04  0.10000000000E+04  0.00000000000E+00 0.  1.
    9000005    2    1    2  501    0  0.86807583714E+00 -0.10900975704E+02 -0.93278864276E+03  0.98224676641E+03  0.30756214532E+03 0.  0.
         13    1    3    3    0    0 -0.47016935929E+02 -0.10524217350E+03 -0.13517898045E+03  0.17765096145E+03  0.00000000000E+00 0.  1.
          3    1    3    3  501    0  0.47885011766E+02  0.94341197801E+02 -0.79760966231E+03  0.80459580496E+03  0.00000000000E+00 0.  1.
         21    1    1    2  502  501 -0.86807583714E+00  0.10900975704E+02 -0.41778562097E+02  0.43186028735E+02  0.00000000000E+00 0. -1.
<mgrwt>
<rscale>  1 0.30000000E+03</rscale>
<asrwt>0</asrwt>
<pdfrwt beam="1">  1        1 0.92483086E-01 0.30000000E+03</pdfrwt>
<pdfrwt beam="2">0</pdfrwt>
<totfact> 0.38318585E+01</totfact>
</mgrwt>
</event>
<event>
 6    1  0.1929825E-004  0.3000000E+03  0.7818608E-02  0.1093470E+00
          1   -1    0    0  502    0  0.00000000000E+00  0.00000000000E+00  0.30257721998E+02  0.30257721998E+02  0.00000000000E+00 0.  1.
         13   -1    0    0    0    0 -0.00000000000E+00 -0.00000000000E+00 -0.10000000000E+04  0.10000000000E+04  0.00000000000E+00 0.  1.
    9000005    2    1    2  501    0  0.28983465199E+01  0.12965572495E+02 -0.95626568542E+03  0.10113335303E+04  0.32889959254E+03 0.  0.
         13    1    3    3    0    0 -0.96100709981E+02 -0.11777089664E+03 -0.31989305309E+03  0.35417071586E+03  0.00000000000E+00 0.  1.
          3    1    3    3  501    0  0.98999056501E+02  0.13073646913E+03 -0.63637263233E+03  0.65716281447E+03  0.00000000000E+00 0.  1.
         21    1    1    2  502  501 -0.28983465199E+01 -0.12965572495E+02 -0.13476592580E+02  0.18924191667E+02  0.00000000000E+00 0. -1.
<mgrwt>
<rscale>  1 0.30000000E+03</rscale>
<asrwt>0</asrwt>
<pdfrwt beam="1">  1        1 0.11002831E+00 0.30000000E+03</pdfrwt>
<pdfrwt beam="2">0</pdfrwt>
<totfact> 0.29698101E+01</totfact>
</mgrwt>
</event>
<event>
 6    1  0.1929825E-004  0.3000000E+03  0.7818608E-02  0.1093470E+00
          1   -1    0    0  502    0  0.00000000000E+00  0.00000000000E+00  0.42831018615E+02  0.42831018615E+02  0.00000000000E+00 0.  1.
         13   -1    0    0    0    0 -0.00000000000E+00 -0.00000000000E+00 -0.10000000000E+04  0.10000000000E+04  0.00000000000E+00 0.  1.
    9000005    2    1    2  501    0  0.18113028897E+02 -0.59105808472E+02 -0.88942243380E+03  0.95111857060E+03  0.33125925072E+03 0.  0.
         13    1    3    3    0    0 -0.15579113310E+03 -0.45353895177E+02 -0.44774761811E+03  0.47624130699E+03  0.00000000000E+00 0.  1.
          3    1    3    3  501    0  0.17390416200E+03 -0.13751913296E+02 -0.44167481568E+03  0.47487726361E+03  0.00000000000E+00 0.  1.
         21    1    1    2  502  501 -0.18113028897E+02  0.59105808472E+02 -0.67746547586E+02  0.91712448015E+02  0.00000000000E+00 0.  1.
<mgrwt>
<rscale>  1 0.30000000E+03</rscale>
<asrwt>0</asrwt>
<pdfrwt beam="1">  1        1 0.15574949E+00 0.30000000E+03</pdfrwt>
<pdfrwt beam="2">0</pdfrwt>
<totfact> 0.16803850E+01</totfact>
</mgrwt>
</event>
<event>
 6    1  0.1929825E-004  0.3000000E+03  0.7818608E-02  0.1093470E+00
          1   -1    0    0  502    0  0.00000000000E+00  0.00000000000E+00  0.60519289982E+02  0.60519289982E+02  0.00000000000E+00 0.  1.
         13   -1    0    0    0    0 -0.00000000000E+00 -0.00000000000E+00 -0.10000000000E+04  0.10000000000E+04  0.00000000000E+00 0.  1.
    9000005    2    1    2  501    0  0.43495922867E+01  0.22659192643E+02 -0.96666144564E+03  0.10248660944E+04  0.33968191451E+03 0.  0.
         13    1    3    3    0    0 -0.12397499120E+03 -0.92618609954E+02 -0.60029415307E+03  0.61992021709E+03  0.00000000000E+00 0.  1.
          3    1    3    3  501    0  0.12832458349E+03  0.11527780260E+03 -0.36636729258E+03  0.40494587733E+03  0.00000000000E+00 0.  1.
         21    1    1    2  502  501 -0.43495922867E+01 -0.22659192643E+02  0.27180735626E+02  0.35653195558E+02  0.00000000000E+00 0.  1.
<mgrwt>
<rscale>  1 0.30000000E+03</rscale>
<asrwt>0</asrwt>
<pdfrwt beam="1">  1        1 0.22007061E+00 0.30000000E+03</pdfrwt>
<pdfrwt beam="2">0</pdfrwt>
<totfact> 0.82369912E+00</totfact>
</mgrwt>
</event>
<event>
 6    1  0.1929825E-004  0.3000000E+03  0.7818608E-02  0.1093470E+00
          1   -1    0    0  502    0  0.00000000000E+00  0.00000000000E+00  0.44627622700E+02  0.44627622700E+02  0.00000000000E+00 0.  1.
         13   -1    0    0    0    0 -0.00000000000E+00 -0.00000000000E+00 -0.10000000000E+04  0.10000000000E+04  0.00000000000E+00 0.  1.
    9000005    2    1    2  501    0  0.37706646582E+02 -0.11545648330E+02 -0.95232069821E+03  0.10050750509E+04  0.31891386373E+03 0.  0.
         13    1    3    3    0    0 -0.83294996554E+02 -0.98406143858E+01 -0.82561617978E+03  0.82986563398E+03  0.00000000000E+00 0.  1.
          1    1    3    3  501    0  0.12100164314E+03 -0.17050339445E+01 -0.12670451843E+03  0.17520941691E+03  0.00000000000E+00 0.  1.
         21    1    1    2  502  501 -0.37706646582E+02  0.11545648330E+02 -0.30516790877E+01  0.39552571814E+02  0.00000000000E+00 0.  1.
<mgrwt>
<rscale>  1 0.30000000E+03</rscale>
<asrwt>0</asrwt>
<pdfrwt beam="1">  1        1 0.16228261E+00 0.30000000E+03</pdfrwt>
<pdfrwt beam="2">0</pdfrwt>
<totfact> 0.15591464E+01</totfact>
</mgrwt>
</event>
<event>
 6    1  0.1929825E-004  0.3000000E+03  0.7818608E-02  0.1093470E+00
          1   -1    0    0  502    0  0.00000000000E+00  0.00000000000E+00  0.16793067514E+02  0.16793067514E+02  0.00000000000E+00 0.  1.
         13   -1    0    0    0    0 -0.00000000000E+00 -0.00000000000E+00 -0.10000000000E+04  0.10000000000E+04  0.00000000000E+00 0.  1.
    9000005    2    1    2  501    0 -0.17699841215E+02  0.16323390089E+02 -0.95837446048E+03  0.98220420935E+03  0.21369081620E+03 0.  0.
         13    1    3    3    0    0  0.11519643427E+01 -0.22232339010E+02 -0.93107202138E+03  0.93133813028E+03  0.00000000000E+00 0.  1.
          3    1    3    3  501    0 -0.18851805558E+02  0.38555729099E+02 -0.27302439098E+02  0.50866079069E+02  0.00000000000E+00 0.  1.
         21    1    1    2  502  501  0.17699841215E+02 -0.16323390089E+02 -0.24832472011E+02  0.34588858166E+02  0.00000000000E+00 0.  1.
<mgrwt>
<rscale>  1 0.30000000E+03</rscale>
<asrwt>0</asrwt>
<pdfrwt beam="1">  1        1 0.61065829E-01 0.30000000E+03</pdfrwt>
<pdfrwt beam="2">0</pdfrwt>
<totfact> 0.67737663E+01</totfact>
</mgrwt>
</event>
<event>
 6    1  0.1929825E-004  0.3000000E+03  0.7818608E-02  0.1093470E+00
          1   -1    0    0  502    0  0.00000000000E+00  0.00000000000E+00  0.23108913416E+02  0.23108913416E+02  0.00000000000E+00 0.  1.
         13   -1    0    0    0    0 -0.00000000000E+00 -0.00000000000E+00 -0.10000000000E+04  0.10000000000E+04  0.00000000000E+00 0.  1.
    9000005    2    1    2  501    0  0.83924323448E+01  0.16478629000E+02 -0.92910411488E+03  0.97186856994E+03  0.28452079507E+03 0.  0.
         13    1    3    3    0    0  0.10170183356E+03 -0.95260320740E+02 -0.43631627301E+03  0.45802803599E+03  0.00000000000E+00 0.  1.
          1    1    3    3  501    0 -0.93309401214E+02  0.11173894974E+03 -0.49278784186E+03  0.51384053395E+03  0.00000000000E+00 0.  1.
         21    1    1    2  502  501 -0.83924323448E+01 -0.16478629000E+02 -0.47786971707E+02  0.51240343474E+02  0.00000000000E+00 0.  1.
<mgrwt>
<rscale>  1 0.30000000E+03</rscale>
<asrwt>0</asrwt>
<pdfrwt beam="1">  1        1 0.84032590E-01 0.30000000E+03</pdfrwt>
<pdfrwt beam="2">0</pdfrwt>
<totfact> 0.43865093E+01</totfact>
</mgrwt>
</event>
<event>
 6    1  0.1929825E-004  0.3000000E+03  0.7818608E-02  0.1093470E+00
          1   -1    0    0  502    0  0.00000000000E+00  0.00000000000E+00  0.40978300212E+02  0.40978300212E+02  0.00000000000E+00 0.  1.
         13   -1    0    0    0    0 -0.00000000000E+00 -0.00000000000E+00 -0.10000000000E+04  0.10000000000E+04  0.00000000000E+00 0.  1.
    9000005    2    1    2  501    0 -0.10043220469E+02  0.36854727998E+01 -0.95533302236E+03  0.10296621468E+04  0.38396419615E+03 0.  0.
         13    1    3    3    0    0 -0.27392081676E+02 -0.14859443513E+03 -0.78958857108E+03  0.80391588109E+03  0.00000000000E+00 0.  1.
          3    1    3    3  501    0  0.17348861206E+02  0.15227990793E+03 -0.16574445128E+03  0.22574626569E+03  0.00000000000E+00 0.  1.
         21    1    1    2  502  501  0.10043220469E+02 -0.36854727998E+01 -0.36886774246E+01  0.11316153423E+02  0.00000000000E+00 0. -1.
<mgrwt>
<rscale>  1 0.30000000E+03</rscale>
<asrwt>0</asrwt>
<pdfrwt beam="1">  1        1 0.14901231E+00 0.30000000E+03</pdfrwt>
<pdfrwt beam="2">0</pdfrwt>
<totfact> 0.18174200E+01</totfact>
</mgrwt>
</event>
<event>
 6    1  0.1929825E-004  0.3000000E+03  0.7818608E-02  0.1093470E+00
          1   -1    0    0  502    0  0.00000000000E+00  0.00000000000E+00  0.30253974208E+02  0.30253974208E+02  0.00000000000E+00 0.  1.
         13   -1    0    0    0    0 -0.00000000000E+00 -0.00000000000E+00 -0.10000000000E+04  0.10000000000E+04  0.00000000000E+00 0.  1.
    9000005    2    1    2  501    0  0.26223208856E+02 -0.60653944233E+01 -0.88500660654E+03  0.94134269895E+03  0.31963250392E+03 0.  0.
         13    1    3    3    0    0 -0.82711852631E+02  0.12443014635E+03 -0.37098253230E+03  0.39994018447E+03  0.00000000000E+00 0.  1.
          3    1    3    3  501    0  0.10893506149E+03 -0.13049554078E+03 -0.51402407425E+03  0.54140251448E+03  0.00000000000E+00 0.  1.
         21    1    1    2  502  501 -0.26223208856E+02  0.60653944233E+01 -0.84739419251E+02  0.88911275253E+02  0.00000000000E+00 0. -1.
<mgrwt>
<rscale>  1 0.30000000E+03</rscale>
<asrwt>0</asrwt>
<pdfrwt beam="1">  1        1 0.11001468E+00 0.30000000E+03</pdfrwt>
<pdfrwt beam="2">0</pdfrwt>
<totfact> 0.29703655E+01</totfact>
</mgrwt>
</event>
<event>
 6    1  0.1929825E-004  0.3000000E+03  0.7818608E-02  0.1093470E+00
          3   -1    0    0  502    0  0.00000000000E+00  0.00000000000E+00  0.26865871361E+02  0.26865871361E+02  0.00000000000E+00 0.  1.
         13   -1    0    0    0    0 -0.00000000000E+00 -0.00000000000E+00 -0.10000000000E+04  0.10000000000E+04  0.00000000000E+00 0.  1.
    9000005    2    1    2  501    0  0.13233504542E+02  0.43093644657E+01 -0.95893316993E+03  0.10069821219E+04  0.30702845660E+03 0.  0.
         13    1    3    3    0    0 -0.13781763048E+03 -0.10212052187E+02 -0.29267425854E+03  0.32366063537E+03  0.00000000000E+00 0.  1.
          1    1    3    3  501    0  0.15105113502E+03  0.14521416652E+02 -0.66625891139E+03  0.68332148652E+03  0.00000000000E+00 0.  1.
         21    1    1    2  502  501 -0.13233504542E+02 -0.43093644657E+01 -0.14200958711E+02  0.19883749468E+02  0.00000000000E+00 0.  1.
<mgrwt>
<rscale>  1 0.30000000E+03</rscale>
<asrwt>0</asrwt>
<pdfrwt beam="1">  1        3 0.97694284E-01 0.30000000E+03</pdfrwt>
<pdfrwt beam="2">0</pdfrwt>
<totfact> 0.41615360E+00</totfact>
</mgrwt>
</event>
<event>
 6    1  0.1929825E-004  0.3000000E+03  0.7818608E-02  0.1093470E+00
          1   -1    0    0  502    0  0.00000000000E+00  0.00000000000E+00  0.39846472294E+02  0.39846472294E+02  0.00000000000E+00 0.  1.
         13   -1    0    0    0    0 -0.00000000000E+00 -0.00000000000E+00 -0.10000000000E+04  0.10000000000E+04  0.00000000000E+00 0.  1.
    9000005    2    1    2  501    0 -0.13364555540E+02 -0.46873153949E+01 -0.96892534127E+03  0.10231873312E+04  0.32847437558E+03 0.  0.
         13    1    3    3    0    0  0.15642984813E+03 -0.32068753135E+01 -0.40184131377E+03  0.43122734479E+03  0.00000000000E+00 0.  1.
          1    1    3    3  501    0 -0.16979440367E+03 -0.14804400814E+01 -0.56708402749E+03  0.59195998637E+03  0.00000000000E+00 0.  1.
         21    1    1    2  502  501  0.13364555540E+02  0.46873153949E+01  0.87718135601E+01  0.16659141140E+02  0.00000000000E+00 0.  1.
<mgrwt>
<rscale>  1 0.30000000E+03</rscale>
<asrwt>0</asrwt>
<pdfrwt beam="1">  1        1 0.14489657E+00 0.30000000E+03</pdfrwt>
<pdfrwt beam="2">0</pdfrwt>
<totfact> 0.19079633E+01</totfact>
</mgrwt>
</event>
<event>
 6    1  0.1929825E-004  0.3000000E+03  0.7818608E-02  0.1093470E+00
          1   -1    0    0  502    0  0.00000000000E+00  0.00000000000E+00  0.30317192122E+02  0.30317192122E+02  0.00000000000E+00 0.  1.
         13   -1    0    0    0    0 -0.00000000000E+00 -0.00000000000E+00 -0.10000000000E+04  0.10000000000E+04  0.00000000000E+00 0.  1.
    9000005    2    1    2  501    0 -0.22234036893E+02  0.13249804958E+02 -0.90672486142E+03  0.96224654683E+03  0.32108960252E+03 0.  0.
         13    1    3    3    0    0  0.11102823376E+03 -0.82804932111E+02 -0.25555457784E+03  0.29067519283E+03  0.00000000000E+00 0.  1.
          1    1    3    3  501    0 -0.13326227065E+03  0.96054737069E+02 -0.65117028358E+03  0.67157135400E+03  0.00000000000E+00 0.  1.
         21    1    1    2  502  501  0.22234036893E+02 -0.13249804958E+02 -0.62957946459E+02  0.68070645291E+02  0.00000000000E+00 0.  1.
<mgrwt>
<rscale>  1 0.30000000E+03</rscale>
<asrwt>0</asrwt>
<pdfrwt beam="1">  1        1 0.11024457E+00 0.30000000E+03</pdfrwt>
<pdfrwt beam="2">0</pdfrwt>
<totfact> 0.29610158E+01</totfact>
</mgrwt>
</event>
<event>
 6    1  0.1929825E-004  0.3000000E+03  0.7818608E-02  0.1093470E+00
          3   -1    0    0  502    0  0.00000000000E+00  0.00000000000E+00  0.43819970127E+02  0.43819970127E+02  0.00000000000E+00 0.  1.
         13   -1    0    0    0    0 -0.00000000000E+00 -0.00000000000E+00 -0.10000000000E+04  0.10000000000E+04  0.00000000000E+00 0.  1.
    9000005    2    1    2  501    0  0.49961106499E+02  0.38599604317E+02 -0.90261426263E+03  0.96102303156E+03  0.32383131174E+03 0.  0.
         13    1    3    3    0    0  0.65739221651E+02  0.16526371062E+03 -0.33557840919E+03  0.37979811482E+03  0.00000000000E+00 0.  1.
          1    1    3    3  501    0 -0.15778115152E+02 -0.12666410630E+03 -0.56703585345E+03  0.58122491674E+03  0.00000000000E+00 0.  1.
         21    1    1    2  502  501 -0.49961106499E+02 -0.38599604317E+02 -0.53565767239E+02  0.82796938566E+02  0.00000000000E+00 0.  1.
<mgrwt>
<rscale>  1 0.30000000E+03</rscale>
<asrwt>0</asrwt>
<pdfrwt beam="1">  1        3 0.15934568E+00 0.30000000E+03</pdfrwt>
<pdfrwt beam="2">0</pdfrwt>
<totfact> 0.72454602E-01</totfact>
</mgrwt>
</event>
<event>
 6    1  0.1929825E-004  0.3000000E+03  0.7818608E-02  0.1093470E+00
          1   -1    0    0  502    0  0.00000000000E+00  0.00000000000E+00  0.53181226155E+02  0.53181226155E+02  0.00000000000E+00 0.  1.
         13   -1    0    0    0    0 -0.00000000000E+00 -0.00000000000E+00 -0.10000000000E+04  0.10000000000E+04  0.00000000000E+00 0.  1.
    9000005    2    1    2  501    0  0.63973424038E+02  0.77688306674E+02 -0.83070569491E+03  0.89952472913E+03  0.33006774273E+03 0.  0.
         13    1    3    3    0    0  0.49527061120E+02  0.18297026001E+02 -0.83646617423E+03  0.83813087974E+03  0.00000000000E+00 0.  1.
          3    1    3    3  501    0  0.14446362918E+02  0.59391280673E+02  0.57604793189E+01  0.61393849395E+02  0.00000000000E+00 0.  1.
         21    1    1    2  502  501 -0.63973424038E+02 -0.77688306674E+02 -0.11611307894E+03  0.15365649702E+03  0.00000000000E+00 0.  1.
<mgrwt>
<rscale>  1 0.30000000E+03</rscale>
<asrwt>0</asrwt>
<pdfrwt beam="1">  1        1 0.19338668E+00 0.30000000E+03</pdfrwt>
<pdfrwt beam="2">0</pdfrwt>
<totfact> 0.11014568E+01</totfact>
</mgrwt>
</event>
<event>
 6    1  0.1929825E-004  0.3000000E+03  0.7818608E-02  0.1093470E+00
          1   -1    0    0  502    0  0.00000000000E+00  0.00000000000E+00  0.42425643419E+02  0.42425643419E+02  0.00000000000E+00 0.  1.
         13   -1    0    0    0    0 -0.00000000000E+00 -0.00000000000E+00 -0.10000000000E+04  0.10000000000E+04  0.00000000000E+00 0.  1.
    9000005    2    1    2  501    0 -0.14393575769E+01 -0.12302868230E+02 -0.95791870956E+03  0.10300340779E+04  0.37842900947E+03 0.  0.
         13    1    3    3    0    0  0.45798738044E+02  0.58367016993E+02 -0.94030140764E+03  0.94322371169E+03  0.00000000000E+00 0.  1.
          1    1    3    3  501    0 -0.47238095621E+02 -0.70669885223E+02 -0.17617301912E+02  0.86810366213E+02  0.00000000000E+00 0.  1.
         21    1    1    2  502  501  0.14393575769E+01  0.12302868230E+02  0.34435297561E+00  0.12391565514E+02  0.00000000000E+00 0.  1.
<mgrwt>
<rscale>  1 0.30000000E+03</rscale>
<asrwt>0</asrwt>
<pdfrwt beam="1">  1        1 0.15427539E+00 0.30000000E+03</pdfrwt>
<pdfrwt beam="2">0</pdfrwt>
<totfact> 0.17092640E+01</totfact>
</mgrwt>
</event>
<event>
 6    1  0.1929825E-004  0.3000000E+03  0.7818608E-02  0.1093470E+00
          1   -1    0    0  502    0  0.00000000000E+00  0.00000000000E+00  0.32831052828E+02  0.32831052828E+02  0.00000000000E+00 0.  1.
         13   -1    0    0    0    0 -0.00000000000E+00 -0.00000000000E+00 -0.10000000000E+04  0.10000000000E+04  0.00000000000E+00 0.  1.
    9000005    2    1    2  501    0  0.18171077171E+02  0.12595423791E+02 -0.94530805904E+03  0.10017387519E+04  0.33073307646E+03 0.  0.
         13    1    3    3    0    0 -0.90528028603E+02  0.12586092227E+03 -0.30099667371E+03  0.33857834145E+03  0.00000000000E+00 0.  1.
          1    1    3    3  501    0  0.10869910577E+03 -0.11326549848E+03 -0.64431138533E+03  0.66316041046E+03  0.00000000000E+00 0.  1.
         21    1    1    2  502  501 -0.18171077171E+02 -0.12595423791E+02 -0.21860888136E+02  0.31092300914E+02  0.00000000000E+00 0. -1.
<mgrwt>
<rscale>  1 0.30000000E+03</rscale>
<asrwt>0</asrwt>
<pdfrwt beam="1">  1        1 0.11938590E+00 0.30000000E+03</pdfrwt>
<pdfrwt beam="2">0</pdfrwt>
<totfact> 0.26204983E+01</totfact>
</mgrwt>
</event>
<event>
 6    1  0.1929825E-004  0.3000000E+03  0.7818608E-02  0.1093470E+00
          3   -1    0    0  502    0  0.00000000000E+00  0.00000000000E+00  0.24733778018E+02  0.24733778018E+02  0.00000000000E+00 0.  1.
         13   -1    0    0    0    0 -0.00000000000E+00 -0.00000000000E+00 -0.10000000000E+04  0.10000000000E+04  0.00000000000E+00 0.  1.
    9000005    2    1    2  501    0  0.62586883536E+00  0.85104390668E+01 -0.95032477129E+03  0.99837291218E+03  0.30587330967E+03 0.  0.
         13    1    3    3    0    0 -0.13741660852E+03  0.37433982136E+02 -0.28916262379E+03  0.32233468679E+03  0.00000000000E+00 0.  1.
          3    1    3    3  501    0  0.13804247735E+03 -0.28923543069E+02 -0.66116214750E+03  0.67603822538E+03  0.00000000000E+00 0.  1.
         21    1    1    2  502  501 -0.62586883536E+00 -0.85104390668E+01 -0.24941450696E+02  0.26360865838E+02  0.00000000000E+00 0.  1.
<mgrwt>
<rscale>  1 0.30000000E+03</rscale>
<asrwt>0</asrwt>
<pdfrwt beam="1">  1        3 0.89941201E-01 0.30000000E+03</pdfrwt>
<pdfrwt beam="2">0</pdfrwt>
<totfact> 0.51102837E+00</totfact>
</mgrwt>
</event>
<event>
 6    1  0.1929825E-004  0.3000000E+03  0.7818608E-02  0.1093470E+00
          1   -1    0    0  502    0  0.00000000000E+00  0.00000000000E+00  0.31934447786E+02  0.31934447786E+02  0.00000000000E+00 0.  1.
         13   -1    0    0    0    0 -0.00000000000E+00 -0.00000000000E+00 -0.10000000000E+04  0.10000000000E+04  0.00000000000E+00 0.  1.
    9000005    2    1    2  501    0  0.35414931591E+01  0.20679646945E+02 -0.96425668110E+03  0.10106108114E+04  0.30183285938E+03 0.  0.
         13    1    3    3    0    0  0.39668228824E+02  0.12182952459E+03 -0.82425822212E+03  0.83415683068E+03  0.00000000000E+00 0.  1.
          1    1    3    3  501    0 -0.36126735665E+02 -0.10114987765E+03 -0.13999845898E+03  0.17645398067E+03  0.00000000000E+00 0.  1.
         21    1    1    2  502  501 -0.35414931591E+01 -0.20679646945E+02 -0.38088711117E+01  0.21323636432E+02  0.00000000000E+00 0.  1.
<mgrwt>
<rscale>  1 0.30000000E+03</rscale>
<asrwt>0</asrwt>
<pdfrwt beam="1">  1        1 0.11612551E+00 0.30000000E+03</pdfrwt>
<pdfrwt beam="2">0</pdfrwt>
<totfact> 0.27353521E+01</totfact>
</mgrwt>
</event>
<event>
 6    1  0.1929825E-004  0.3000000E+03  0.7818608E-02  0.1093470E+00
          1   -1    0    0  502    0  0.00000000000E+00  0.00000000000E+00  0.35247783914E+02  0.35247783914E+02  0.00000000000E+00 0.  1.
         13   -1    0    0    0    0 -0.00000000000E+00 -0.00000000000E+00 -0.10000000000E+04  0.10000000000E+04  0.00000000000E+00 0.  1.
    9000005    2    1    2  501    0 -0.37205023893E+02 -0.24764385524E+01 -0.87349966103E+03  0.93667103537E+03  0.33609615308E+03 0.  0.
         13    1    3    3    0    0 -0.83239372476E+02 -0.90100379845E+01 -0.88485625516E+03  0.88880850930E+03  0.00000000000E+00 0.  1.
          3    1    3    3  501    0  0.46034348583E+02  0.65335994321E+01  0.11356594126E+02  0.47862526063E+02  0.00000000000E+00 0.  1.
         21    1    1    2  502  501  0.37205023893E+02  0.24764385524E+01 -0.91252555053E+02  0.98576748549E+02  0.00000000000E+00 0. -1.
<mgrwt>
<rscale>  1 0.30000000E+03</rscale>
<asrwt>0</asrwt>
<pdfrwt beam="1">  1        1 0.12817403E+00 0.30000000E+03</pdfrwt>
<pdfrwt beam="2">0</pdfrwt>
<totfact> 0.23411423E+01</totfact>
</mgrwt>
</event>
<event>
 6    1  0.1929825E-004  0.3000000E+03  0.7818608E-02  0.1093470E+00
          1   -1    0    0  502    0  0.00000000000E+00  0.00000000000E+00  0.56253595811E+02  0.56253595811E+02  0.00000000000E+00 0.  1.
         13   -1    0    0    0    0 -0.00000000000E+00 -0.00000000000E+00 -0.10000000000E+04  0.10000000000E+04  0.00000000000E+00 0.  1.
    9000005    2    1    2  501    0 -0.13436735349E+02 -0.83084358083E+02 -0.89883391822E+03  0.96085607063E+03  0.32902647235E+03 0.  0.
         13    1    3    3    0    0 -0.11162975511E+02 -0.77977256632E+02 -0.92790993543E+03  0.93124750353E+03  0.00000000000E+00 0.  1.
          3    1    3    3  501    0 -0.22737598380E+01 -0.51071014506E+01  0.29076017205E+02  0.29608567097E+02  0.00000000000E+00 0.  1.
         21    1    1    2  502  501  0.13436735349E+02  0.83084358083E+02 -0.44912485968E+02  0.95397525181E+02  0.00000000000E+00 0.  1.
<mgrwt>
<rscale>  1 0.30000000E+03</rscale>
<asrwt>0</asrwt>
<pdfrwt beam="1">  1        1 0.20455896E+00 0.30000000E+03</pdfrwt>
<pdfrwt beam="2">0</pdfrwt>
<totfact> 0.97455378E+00</totfact>
</mgrwt>
</event>
<event>
 6    1  0.1929825E-004  0.3000000E+03  0.7818608E-02  0.1093470E+00
          1   -1    0    0  502    0  0.00000000000E+00  0.00000000000E+00  0.50750668409E+02  0.50750668409E+02  0.00000000000E+00 0.  1.
         13   -1    0    0    0    0 -0.00000000000E+00 -0.00000000000E+00 -0.10000000000E+04  0.10000000000E+04  0.00000000000E+00 0.  1.
    9000005    2    1    2  501    0  0.79122209594E+02  0.38334555621E+02 -0.87357444939E+03  0.93474829774E+03  0.32076813945E+03 0.  0.
         13    1    3    3    0    0  0.18886301197E+03 -0.43542148562E+02 -0.55975516381E+03  0.59236053160E+03  0.00000000000E+00 0.  1.
          1    1    3    3  501    0 -0.10974080237E+03  0.81876704183E+02 -0.31381928559E+03  0.34238776613E+03  0.00000000000E+00 0.  1.
         21    1    1    2  502  501 -0.79122209594E+02 -0.38334555621E+02 -0.75674882200E+02  0.11600237067E+03  0.00000000000E+00 0.  1.
<mgrwt>
<rscale>  1 0.30000000E+03</rscale>
<asrwt>0</asrwt>
<pdfrwt beam="1">  1        1 0.18454827E+00 0.30000000E+03</pdfrwt>
<pdfrwt beam="2">0</pdfrwt>
<totfact> 0.12144998E+01</totfact>
</mgrwt>
</event>
<event>
 6    1  0.1929825E-004  0.3000000E+03  0.7818608E-02  0.1093470E+00
          1   -1    0    0  502    0  0.00000000000E+00  0.00000000000E+00  0.30506849736E+02  0.30506849736E+02  0.00000000000E+00 0.  1.
         13   -1    0    0    0    0 -0.00000000000E+00 -0.00000000000E+00 -0.10000000000E+04  0.10000000000E+04  0.00000000000E+00 0.  1.
    9000005    2    1    2  501    0 -0.96220471797E+01  0.48421269255E+01 -0.96302078883E+03  0.10179401697E+04  0.32966212907E+03 0.  0.
         13    1    3    3    0    0 -0.52483911190E+02 -0.12910443657E+03 -0.74894349759E+03  0.76179976310E+03  0.00000000000E+00 0.  1.
          1    1    3    3  501    0  0.42861864010E+02  0.13394656350E+03 -0.21407729124E+03  0.25614040658E+03  0.00000000000E+00 0.  1.
         21    1    1    2  502  501  0.96220471797E+01 -0.48421269255E+01 -0.64723614317E+01  0.12566680055E+02  0.00000000000E+00 0. -1.
<mgrwt>
<rscale>  1 0.30000000E+03</rscale>
<asrwt>0</asrwt>
<pdfrwt beam="1">  1        1 0.11093423E+00 0.30000000E+03</pdfrwt>
<pdfrwt beam="2">0</pdfrwt>
<totfact> 0.29332151E+01</totfact>
</mgrwt>
</event>
<event>
 6    1  0.1929825E-004  0.3000000E+03  0.7818608E-02  0.1093470E+00
          1   -1    0    0  502    0  0.00000000000E+00  0.00000000000E+00  0.68588371123E+02  0.68588371123E+02  0.00000000000E+00 0.  1.
         13   -1    0    0    0    0 -0.00000000000E+00 -0.00000000000E+00 -0.10000000000E+04  0.10000000000E+04  0.00000000000E+00 0.  1.
    9000005    2    1    2  501    0 -0.29658016125E+01  0.13547919731E+02 -0.96049580680E+03  0.10363667710E+04  0.38898784952E+03 0.  0.
         13    1    3    3    0    0  0.10386080473E+03  0.14192758742E+03 -0.73505376719E+03  0.75580060035E+03  0.00000000000E+00 0.  1.
          3    1    3    3  501    0 -0.10682660634E+03 -0.12837966769E+03 -0.22544203961E+03  0.28056617066E+03  0.00000000000E+00 0.  1.
         21    1    1    2  502  501  0.29658016125E+01 -0.13547919731E+02  0.29084177922E+02  0.32221600110E+02  0.00000000000E+00 0.  1.
<mgrwt>
<rscale>  1 0.30000000E+03</rscale>
<asrwt>0</asrwt>
<pdfrwt beam="1">  1        1 0.24941278E+00 0.30000000E+03</pdfrwt>
<pdfrwt beam="2">0</pdfrwt>
<totfact> 0.60037578E+00</totfact>
</mgrwt>
</event>
<event>
 6    1  0.1929825E-004  0.3000000E+03  0.7818608E-02  0.1093470E+00
          1   -1    0    0  502    0  0.00000000000E+00  0.00000000000E+00  0.51041827394E+02  0.51041827394E+02  0.00000000000E+00 0.  1.
         13   -1    0    0    0    0 -0.00000000000E+00 -0.00000000000E+00 -0.10000000000E+04  0.10000000000E+04  0.00000000000E+00 0.  1.
    9000005    2    1    2  501    0  0.17165726227E+02 -0.41810440438E+01 -0.96927138168E+03  0.10241202794E+04  0.33018660172E+03 0.  0.
         13    1    3    3    0    0  0.17003812484E+03 -0.28022218679E+02 -0.43484626359E+03  0.46774937904E+03  0.00000000000E+00 0.  1.
          1    1    3    3  501    0 -0.15287239861E+03  0.23841174636E+02 -0.53442511809E+03  0.55637090031E+03  0.00000000000E+00 0.  1.
         21    1    1    2  502  501 -0.17165726227E+02  0.41810440438E+01  0.20313209070E+02  0.26921548042E+02  0.00000000000E+00 0.  1.
<mgrwt>
<rscale>  1 0.30000000E+03</rscale>
<asrwt>0</asrwt>
<pdfrwt beam="1">  1        1 0.18560704E+00 0.30000000E+03</pdfrwt>
<pdfrwt beam="2">0</pdfrwt>
<totfact> 0.12003421E+01</totfact>
</mgrwt>
</event>
<event>
 6    1  0.1929825E-004  0.3000000E+03  0.7818608E-02  0.1093470E+00
          1   -1    0    0  502    0  0.00000000000E+00  0.00000000000E+00  0.29988969247E+02  0.29988969247E+02  0.00000000000E+00 0.  1.
         13   -1    0    0    0    0 -0.00000000000E+00 -0.00000000000E+00 -0.10000000000E+04  0.10000000000E+04  0.00000000000E+00 0.  1.
    9000005    2    1    2  501    0 -0.11052985413E+02  0.44484794541E+01 -0.93159827245E+03  0.98977084576E+03  0.33410930612E+03 0.  0.
         13    1    3    3    0    0 -0.33080127153E+02 -0.81356430893E+02 -0.44859698381E+02  0.98618234617E+02  0.00000000000E+00 0.  1.
          3    1    3    3  501    0  0.22027141740E+02  0.85804910347E+02 -0.88673857407E+03  0.89115261115E+03  0.00000000000E+00 0.  1.
         21    1    1    2  502  501  0.11052985413E+02 -0.44484794541E+01 -0.38412758303E+02  0.40218123483E+02  0.00000000000E+00 0.  1.
<mgrwt>
<rscale>  1 0.30000000E+03</rscale>
<asrwt>0</asrwt>
<pdfrwt beam="1">  1        1 0.10905103E+00 0.30000000E+03</pdfrwt>
<pdfrwt beam="2">0</pdfrwt>
<totfact> 0.30100189E+01</totfact>
</mgrwt>
</event>
<event>
 6    1  0.1929825E-004  0.3000000E+03  0.7818608E-02  0.1093470E+00
          1   -1    0    0  502    0  0.00000000000E+00  0.00000000000E+00  0.61995496155E+02  0.61995496155E+02  0.00000000000E+00 0.  1.
         13   -1    0    0    0    0 -0.00000000000E+00 -0.00000000000E+00 -0.10000000000E+04  0.10000000000E+04  0.00000000000E+00 0.  1.
    9000005    2    1    2  501    0  0.12008312643E+02 -0.13548521512E+02 -0.97162097462E+03  0.10238139677E+04  0.32221104903E+03 0.  0.
         13    1    3    3    0    0 -0.79216766222E+02 -0.85027217306E+02 -0.84182190384E+03  0.84980529624E+03  0.00000000000E+00 0.  1.
          3    1    3    3  501    0  0.91225078865E+02  0.71478695794E+02 -0.12979907078E+03  0.17400867146E+03  0.00000000000E+00 0.  1.
         21    1    1    2  502  501 -0.12008312643E+02  0.13548521512E+02  0.33616470778E+02  0.38181528456E+02  0.00000000000E+00 0.  1.
<mgrwt>
<rscale>  1 0.30000000E+03</rscale>
<asrwt>0</asrwt>
<pdfrwt beam="1">  1        1 0.22543864E+00 0.30000000E+03</pdfrwt>
<pdfrwt beam="2">0</pdfrwt>
<totfact> 0.77735087E+00</totfact>
</mgrwt>
</event>
<event>
 6    1  0.1929825E-004  0.3000000E+03  0.7818608E-02  0.1093470E+00
          1   -1    0    0  502    0  0.00000000000E+00  0.00000000000E+00  0.29915274030E+02  0.29915274030E+02  0.00000000000E+00 0.  1.
         13   -1    0    0    0    0 -0.00000000000E+00 -0.00000000000E+00 -0.10000000000E+04  0.10000000000E+04  0.00000000000E+00 0.  1.
    9000005    2    1    2  501    0 -0.83521000934E+01  0.43889641721E+01 -0.96256796633E+03  0.10178520134E+04  0.33075158460E+03 0.  0.
         13    1    3    3    0    0  0.12956260860E+03  0.96311743931E+02 -0.39914574433E+03  0.43055748371E+03  0.00000000000E+00 0.  1.
          1    1    3    3  501    0 -0.13791470869E+03 -0.91922779759E+02 -0.56342222200E+03  0.58729452965E+03  0.00000000000E+00 0.  1.
         21    1    1    2  502  501  0.83521000934E+01 -0.43889641721E+01 -0.75167596430E+01  0.12063260670E+02  0.00000000000E+00 0. -1.
<mgrwt>
<rscale>  1 0.30000000E+03</rscale>
<asrwt>0</asrwt>
<pdfrwt beam="1">  1        1 0.10878304E+00 0.30000000E+03</pdfrwt>
<pdfrwt beam="2">0</pdfrwt>
<totfact> 0.30211800E+01</totfact>
</mgrwt>
</event>
<event>
 6    1  0.1929825E-004  0.3000000E+03  0.7818608E-02  0.1093470E+00
          1   -1    0    0  502    0  0.00000000000E+00  0.00000000000E+00  0.92252903560E+02  0.92252903560E+02  0.00000000000E+00 0.  1.
         13   -1    0    0    0    0 -0.00000000000E+00 -0.00000000000E+00 -0.10000000000E+04  0.10000000000E+04  0.00000000000E+00 0.  1.
    9000005    2    1    2  501    0 -0.11428385303E+03  0.13454504383E+03 -0.81396609589E+03  0.89235782121E+03  0.32031001848E+03 0.  0.
         13    1    3    3    0    0 -0.19434265870E+03  0.10483499987E+03 -0.75979324444E+03  0.79123019437E+03  0.00000000000E+00 0.  1.
          1    1    3    3  501    0  0.80058805662E+02  0.29710043956E+02 -0.54172851445E+02  0.10112762684E+03  0.00000000000E+00 0.  1.
         21    1    1    2  502  501  0.11428385303E+03 -0.13454504383E+03 -0.93781000551E+02  0.19989508235E+03  0.00000000000E+00 0.  1.
<mgrwt>
<rscale>  1 0.30000000E+03</rscale>
<asrwt>0</asrwt>
<pdfrwt beam="1">  1        1 0.33546581E+00 0.30000000E+03</pdfrwt>
<pdfrwt beam="2">0</pdfrwt>
<totfact> 0.23344462E+00</totfact>
</mgrwt>
</event>
<event>
 6    1  0.1929825E-004  0.3000000E+03  0.7818608E-02  0.1093470E+00
          1   -1    0    0  502    0  0.00000000000E+00  0.00000000000E+00  0.42066878336E+02  0.42066878336E+02  0.00000000000E+00 0.  1.
         13   -1    0    0    0    0 -0.00000000000E+00 -0.00000000000E+00 -0.10000000000E+04  0.10000000000E+04  0.00000000000E+00 0.  1.
    9000005    2    1    2  501    0  0.55655591510E+02  0.47219562875E+02 -0.82562469219E+03  0.89096177420E+03  0.32684785261E+03 0.  0.
         13    1    3    3    0    0 -0.46233027481E+02  0.15696273023E+03 -0.27184742021E+03  0.31729451837E+03  0.00000000000E+00 0.  1.
          3    1    3    3  501    0  0.10188861899E+03 -0.10974316735E+03 -0.55377727198E+03  0.57366725584E+03  0.00000000000E+00 0.  1.
         21    1    1    2  502  501 -0.55655591510E+02 -0.47219562875E+02 -0.13230842948E+03  0.15110510413E+03  0.00000000000E+00 0.  1.
<mgrwt>
<rscale>  1 0.30000000E+03</rscale>
<asrwt>0</asrwt>
<pdfrwt beam="1">  1        1 0.15297079E+00 0.30000000E+03</pdfrwt>
<pdfrwt beam="2">0</pdfrwt>
<totfact> 0.17353231E+01</totfact>
</mgrwt>
</event>
<event>
 6    1  0.1929825E-004  0.3000000E+03  0.7818608E-02  0.1093470E+00
          1   -1    0    0  502    0  0.00000000000E+00  0.00000000000E+00  0.29891662719E+02  0.29891662719E+02  0.00000000000E+00 0.  1.
         13   -1    0    0    0    0 -0.00000000000E+00 -0.00000000000E+00 -0.10000000000E+04  0.10000000000E+04  0.00000000000E+00 0.  1.
    9000005    2    1    2  501    0 -0.11427963259E+02  0.37809172822E+00 -0.96753787345E+03  0.10181720816E+04  0.31688185475E+03 0.  0.
         13    1    3    3    0    0  0.61187705666E+02 -0.36916944347E+02 -0.92186530872E+03  0.92463097694E+03  0.00000000000E+00 0.  1.
          3    1    3    3  501    0 -0.72615668924E+02  0.37295036076E+02 -0.45672564733E+02  0.93541104647E+02  0.00000000000E+00 0.  1.
         21    1    1    2  502  501  0.11427963259E+02 -0.37809172822E+00 -0.25704638314E+01  0.11719581132E+02  0.00000000000E+00 0.  1.
<mgrwt>
<rscale>  1 0.30000000E+03</rscale>
<asrwt>0</asrwt>
<pdfrwt beam="1">  1        1 0.10869718E+00 0.30000000E+03</pdfrwt>
<pdfrwt beam="2">0</pdfrwt>
<totfact> 0.30247684E+01</totfact>
</mgrwt>
</event>
<event>
 6    1  0.1929825E-004  0.3000000E+03  0.7818608E-02  0.1093470E+00
          1   -1    0    0  502    0  0.00000000000E+00  0.00000000000E+00  0.34982590010E+02  0.34982590010E+02  0.00000000000E+00 0.  1.
         13   -1    0    0    0    0 -0.00000000000E+00 -0.00000000000E+00 -0.10000000000E+04  0.10000000000E+04  0.00000000000E+00 0.  1.
    9000005    2    1    2  501    0 -0.19159654308E+02 -0.37977299982E+02 -0.91222399615E+03  0.96718500737E+03  0.31856687156E+03 0.  0.
         13    1    3    3    0    0  0.45421595422E+02 -0.48690036757E+02 -0.89765295210E+03  0.90011924956E+03  0.00000000000E+00 0.  1.
          3    1    3    3  501    0 -0.64581249730E+02  0.10712736775E+02 -0.14571044049E+02  0.67065757809E+02  0.00000000000E+00 0.  1.
         21    1    1    2  502  501  0.19159654308E+02  0.37977299982E+02 -0.52793413839E+02  0.67797582640E+02  0.00000000000E+00 0.  1.
<mgrwt>
<rscale>  1 0.30000000E+03</rscale>
<asrwt>0</asrwt>
<pdfrwt beam="1">  1        1 0.12720969E+00 0.30000000E+03</pdfrwt>
<pdfrwt beam="2">0</pdfrwt>
<totfact> 0.23698635E+01</totfact>
</mgrwt>
</event>
<event>
 6    1  0.1929825E-004  0.3000000E+03  0.7818608E-02  0.1093470E+00
          1   -1    0    0  502    0  0.00000000000E+00  0.00000000000E+00  0.37284052302E+02  0.37284052302E+02  0.00000000000E+00 0.  1.
         13   -1    0    0    0    0 -0.00000000000E+00 -0.00000000000E+00 -0.10000000000E+04  0.10000000000E+04  0.00000000000E+00 0.  1.
    9000005    2    1    2  501    0 -0.11620256054E+02 -0.55930388545E+01 -0.97075758578E+03  0.10220860137E+04  0.31956723331E+03 0.  0.
         13    1    3    3    0    0  0.92095525752E+02  0.96710835058E+02 -0.71831452089E+03  0.73062324244E+03  0.00000000000E+00 0.  1.
          3    1    3    3  501    0 -0.10371578181E+03 -0.10230387391E+03 -0.25244306489E+03  0.29146277125E+03  0.00000000000E+00 0.  1.
         21    1    1    2  502  501  0.11620256054E+02  0.55930388545E+01  0.80416380839E+01  0.15198038606E+02  0.00000000000E+00 0. -1.
<mgrwt>
<rscale>  1 0.30000000E+03</rscale>
<asrwt>0</asrwt>
<pdfrwt beam="1">  1        1 0.13557866E+00 0.30000000E+03</pdfrwt>
<pdfrwt beam="2">0</pdfrwt>
<totfact> 0.21350265E+01</totfact>
</mgrwt>
</event>
<event>
 6    1  0.1929825E-004  0.3000000E+03  0.7818608E-02  0.1093470E+00
          1   -1    0    0  502    0  0.00000000000E+00  0.00000000000E+00  0.34397575196E+02  0.34397575196E+02  0.00000000000E+00 0.  1.
         13   -1    0    0    0    0 -0.00000000000E+00 -0.00000000000E+00 -0.10000000000E+04  0.10000000000E+04  0.00000000000E+00 0.  1.
    9000005    2    1    2  501    0 -0.32091310093E+02  0.13052034526E+02 -0.92612876449E+03  0.98187731580E+03  0.32429672689E+03 0.  0.
         13    1    3    3    0    0 -0.17500198572E+03  0.14754530684E+02 -0.61323711379E+03  0.63788960558E+03  0.00000000000E+00 0.  1.
          1    1    3    3  501    0  0.14291067562E+03 -0.17024961581E+01 -0.31289165070E+03  0.34398771021E+03  0.00000000000E+00 0.  1.
         21    1    1    2  502  501  0.32091310093E+02 -0.13052034526E+02 -0.39473660316E+02  0.52520259400E+02  0.00000000000E+00 0.  1.
<mgrwt>
<rscale>  1 0.30000000E+03</rscale>
<asrwt>0</asrwt>
<pdfrwt beam="1">  1        1 0.12508236E+00 0.30000000E+03</pdfrwt>
<pdfrwt beam="2">0</pdfrwt>
<totfact> 0.24348339E+01</totfact>
</mgrwt>
</event>
<event>
 6    1  0.1929825E-004  0.3000000E+03  0.7818608E-02  0.1093470E+00
          1   -1    0    0  502    0  0.00000000000E+00  0.00000000000E+00  0.27943513125E+02  0.27943513125E+02  0.00000000000E+00 0.  1.
         13   -1    0    0    0    0 -0.00000000000E+00 -0.00000000000E+00 -0.10000000000E+04  0.10000000000E+04  0.00000000000E+00 0.  1.
    9000005    2    1    2  501    0  0.23092998807E+02 -0.18566281254E+02 -0.94036315284E+03  0.98455617839E+03  0.29015515812E+03 0.  0.
         13    1    3    3    0    0 -0.87382219530E+02  0.91008408929E+02 -0.29784304698E+03  0.32346354264E+03  0.00000000000E+00 0.  1.
          1    1    3    3  501    0  0.11047521834E+03 -0.10957469018E+03 -0.64252010586E+03  0.66109263574E+03  0.00000000000E+00 0.  1.
         21    1    1    2  502  501 -0.23092998807E+02  0.18566281254E+02 -0.31693334033E+02  0.43387334738E+02  0.00000000000E+00 0. -1.
<mgrwt>
<rscale>  1 0.30000000E+03</rscale>
<asrwt>0</asrwt>
<pdfrwt beam="1">  1        1 0.10161299E+00 0.30000000E+03</pdfrwt>
<pdfrwt beam="2">0</pdfrwt>
<totfact> 0.33433541E+01</totfact>
</mgrwt>
</event>
<event>
 6    1  0.1929825E-004  0.3000000E+03  0.7818608E-02  0.1093470E+00
          1   -1    0    0  502    0  0.00000000000E+00  0.00000000000E+00  0.36800204402E+02  0.36800204402E+02  0.00000000000E+00 0.  1.
         13   -1    0    0    0    0 -0.00000000000E+00 -0.00000000000E+00 -0.10000000000E+04  0.10000000000E+04  0.00000000000E+00 0.  1.
    9000005    2    1    2  501    0 -0.27512227875E+02  0.29939261387E+02 -0.92797745084E+03  0.98300526388E+03  0.32172024727E+03 0.  0.
         13    1    3    3    0    0  0.10213025989E+03 -0.83984869335E+02 -0.57613310740E+03  0.59111200775E+03  0.00000000000E+00 0.  1.
          1    1    3    3  501    0 -0.12964248777E+03  0.11392413072E+03 -0.35184434344E+03  0.39189325614E+03  0.00000000000E+00 0.  1.
         21    1    1    2  502  501  0.27512227875E+02 -0.29939261387E+02 -0.35222344762E+02  0.53794940520E+02  0.00000000000E+00 0.  1.
<mgrwt>
<rscale>  1 0.30000000E+03</rscale>
<asrwt>0</asrwt>
<pdfrwt beam="1">  1        1 0.13381921E+00 0.30000000E+03</pdfrwt>
<pdfrwt beam="2">0</pdfrwt>
<totfact> 0.21817686E+01</totfact>
</mgrwt>
</event>
<event>
 6    1  0.1929825E-004  0.3000000E+03  0.7818608E-02  0.1093470E+00
          3   -1    0    0  502    0  0.00000000000E+00  0.00000000000E+00  0.41662972538E+02  0.41662972538E+02  0.00000000000E+00 0.  1.
         13   -1    0    0    0    0 -0.00000000000E+00 -0.00000000000E+00 -0.10000000000E+04  0.10000000000E+04  0.00000000000E+00 0.  1.
    9000005    2    1    2  501    0  0.24369513389E+02 -0.11489825116E+02 -0.95586831705E+03  0.10146077735E+04  0.33914422482E+03 0.  0.
         13    1    3    3    0    0  0.15711802306E+03 -0.68491789088E+02 -0.32519330989E+03  0.36759745258E+03  0.00000000000E+00 0.  1.
          1    1    3    3  501    0 -0.13274850967E+03  0.57001963972E+02 -0.63067500716E+03  0.64701032092E+03  0.00000000000E+00 0.  1.
         21    1    1    2  502  501 -0.24369513389E+02  0.11489825116E+02 -0.24687104074E+01  0.27055199040E+02  0.00000000000E+00 0.  1.
<mgrwt>
<rscale>  1 0.30000000E+03</rscale>
<asrwt>0</asrwt>
<pdfrwt beam="1">  1        3 0.15150204E+00 0.30000000E+03</pdfrwt>
<pdfrwt beam="2">0</pdfrwt>
<totfact> 0.94352501E-01</totfact>
</mgrwt>
</event>
<event>
 6    1  0.1929825E-004  0.3000000E+03  0.7818608E-02  0.1093470E+00
          1   -1    0    0  502    0  0.00000000000E+00  0.00000000000E+00  0.55988845091E+02  0.55988845091E+02  0.00000000000E+00 0.  1.
         13   -1    0    0    0    0 -0.00000000000E+00 -0.00000000000E+00 -0.10000000000E+04  0.10000000000E+04  0.00000000000E+00 0.  1.
    9000005    2    1    2  501    0  0.17005375262E+01  0.13299642165E+02 -0.97508244481E+03  0.10221480802E+04  0.30630238564E+03 0.  0.
         13    1    3    3    0    0 -0.88639947883E+02  0.85717976482E+02 -0.81670660524E+03  0.82596264498E+03  0.00000000000E+00 0.  1.
          1    1    3    3  501    0  0.90340485409E+02 -0.72418334317E+02 -0.15837583957E+03  0.19618543526E+03  0.00000000000E+00 0.  1.
         21    1    1    2  502  501 -0.17005375262E+01 -0.13299642165E+02  0.31071289902E+02  0.33840764852E+02  0.00000000000E+00 0.  1.
<mgrwt>
<rscale>  1 0.30000000E+03</rscale>
<asrwt>0</asrwt>
<pdfrwt beam="1">  1        1 0.20359623E+00 0.30000000E+03</pdfrwt>
<pdfrwt beam="2">0</pdfrwt>
<totfact> 0.98484801E+00</totfact>
</mgrwt>
</event>
<event>
 6    1  0.1929825E-004  0.3000000E+03  0.7818608E-02  0.1093470E+00
          1   -1    0    0  502    0  0.00000000000E+00  0.00000000000E+00  0.45000082217E+02  0.45000082217E+02  0.00000000000E+00 0.  1.
         13   -1    0    0    0    0 -0.00000000000E+00 -0.00000000000E+00 -0.10000000000E+04  0.10000000000E+04  0.00000000000E+00 0.  1.
    9000005    2    1    2  501    0  0.15100667454E+02  0.70072177807E+01 -0.96773228205E+03  0.10240419249E+04  0.33448312805E+03 0.  0.
         13    1    3    3    0    0  0.14633212144E+03  0.84999022483E+02 -0.64804030221E+03  0.66977171997E+03  0.00000000000E+00 0.  1.
          3    1    3    3  501    0 -0.13123145399E+03 -0.77991804702E+02 -0.31969197984E+03  0.35427020492E+03  0.00000000000E+00 0.  1.
         21    1    1    2  502  501 -0.15100667454E+02 -0.70072177807E+01  0.12732364268E+02  0.20958157325E+02  0.00000000000E+00 0. -1.
<mgrwt>
<rscale>  1 0.30000000E+03</rscale>
<asrwt>0</asrwt>
<pdfrwt beam="1">  1        1 0.16363701E+00 0.30000000E+03</pdfrwt>
<pdfrwt beam="2">0</pdfrwt>
<totfact> 0.15353033E+01</totfact>
</mgrwt>
</event>
<event>
 6    1  0.1929825E-004  0.3000000E+03  0.7818608E-02  0.1093470E+00
          1   -1    0    0  502    0  0.00000000000E+00  0.00000000000E+00  0.34634487269E+02  0.34634487269E+02  0.00000000000E+00 0.  1.
         13   -1    0    0    0    0 -0.00000000000E+00 -0.00000000000E+00 -0.10000000000E+04  0.10000000000E+04  0.00000000000E+00 0.  1.
    9000005    2    1    2  501    0  0.42316402218E+01  0.11014440296E+02 -0.96804067810E+03  0.10225356781E+04  0.32914621951E+03 0.  0.
         13    1    3    3    0    0  0.16246478196E+03 -0.26349643983E+02 -0.54573998706E+03  0.57001863355E+03  0.00000000000E+00 0.  1.
          3    1    3    3  501    0 -0.15823314174E+03  0.37364084279E+02 -0.42230069104E+03  0.45251704454E+03  0.00000000000E+00 0.  1.
         21    1    1    2  502  501 -0.42316402218E+01 -0.11014440296E+02  0.26751653695E+01  0.12098809188E+02  0.00000000000E+00 0.  1.
<mgrwt>
<rscale>  1 0.30000000E+03</rscale>
<asrwt>0</asrwt>
<pdfrwt beam="1">  1        1 0.12594386E+00 0.30000000E+03</pdfrwt>
<pdfrwt beam="2">0</pdfrwt>
<totfact> 0.24082528E+01</totfact>
</mgrwt>
</event>
<event>
 6    1  0.1929825E-004  0.3000000E+03  0.7818608E-02  0.1093470E+00
          1   -1    0    0  502    0  0.00000000000E+00  0.00000000000E+00  0.29844677023E+02  0.29844677023E+02  0.00000000000E+00 0.  1.
         13   -1    0    0    0    0 -0.00000000000E+00 -0.00000000000E+00 -0.10000000000E+04  0.10000000000E+04  0.00000000000E+00 0.  1.
    9000005    2    1    2  501    0  0.35380069232E+01 -0.14562662530E+02 -0.95520865029E+03  0.10086788636E+04  0.32370495158E+03 0.  0.
         13    1    3    3    0    0 -0.60988373970E+02 -0.68523836273E+02 -0.90720159721E+03  0.91182774463E+03  0.00000000000E+00 0.  1.
          1    1    3    3  501    0  0.64526380893E+02  0.53961173743E+02 -0.48007053082E+02  0.96851118984E+02  0.00000000000E+00 0.  1.
         21    1    1    2  502  501 -0.35380069232E+01  0.14562662530E+02 -0.14946672688E+02  0.21165813412E+02  0.00000000000E+00 0.  1.
<mgrwt>
<rscale>  1 0.30000000E+03</rscale>
<asrwt>0</asrwt>
<pdfrwt beam="1">  1        1 0.10852633E+00 0.30000000E+03</pdfrwt>
<pdfrwt beam="2">0</pdfrwt>
<totfact> 0.30319274E+01</totfact>
</mgrwt>
</event>
<event>
 6    1  0.1929825E-004  0.3000000E+03  0.7818608E-02  0.1093470E+00
          1   -1    0    0  502    0  0.00000000000E+00  0.00000000000E+00  0.48647924952E+02  0.48647924952E+02  0.00000000000E+00 0.  1.
         13   -1    0    0    0    0 -0.00000000000E+00 -0.00000000000E+00 -0.10000000000E+04  0.10000000000E+04  0.00000000000E+00 0.  1.
    9000005    2    1    2  501    0  0.17656556541E+02 -0.15265845760E+02 -0.96566686715E+03  0.10212670318E+04  0.33155550355E+03 0.  0.
         13    1    3    3    0    0 -0.10512407201E+03 -0.12788249173E+03 -0.50009511842E+03  0.52678281072E+03  0.00000000000E+00 0.  1.
          1    1    3    3  501    0  0.12278062855E+03  0.11261664597E+03 -0.46557174873E+03  0.49448422110E+03  0.00000000000E+00 0.  1.
         21    1    1    2  502  501 -0.17656556541E+02  0.15265845760E+02  0.14314792105E+02  0.27380893131E+02  0.00000000000E+00 0.  1.
<mgrwt>
<rscale>  1 0.30000000E+03</rscale>
<asrwt>0</asrwt>
<pdfrwt beam="1">  1        1 0.17690192E+00 0.30000000E+03</pdfrwt>
<pdfrwt beam="2">0</pdfrwt>
<totfact> 0.13223628E+01</totfact>
</mgrwt>
</event>
<event>
 6    1  0.1929825E-004  0.3000000E+03  0.7818608E-02  0.1093470E+00
          1   -1    0    0  502    0  0.00000000000E+00  0.00000000000E+00  0.49102802250E+02  0.49102802250E+02  0.00000000000E+00 0.  1.
         13   -1    0    0    0    0 -0.00000000000E+00 -0.00000000000E+00 -0.10000000000E+04  0.10000000000E+04  0.00000000000E+00 0.  1.
    9000005    2    1    2  501    0 -0.13412418209E+02 -0.19527899742E+02 -0.96280448213E+03  0.10225883675E+04  0.34370520310E+03 0.  0.
         13    1    3    3    0    0 -0.42212150636E+02 -0.21969931087E+02 -0.98499837620E+03  0.98614722260E+03  0.00000000000E+00 0.  1.
          1    1    3    3  501    0  0.28799732427E+02  0.24420313441E+01  0.22193894071E+02  0.36441144864E+02  0.00000000000E+00 0.  1.
         21    1    1    2  502  501  0.13412418209E+02  0.19527899742E+02  0.11907284379E+02  0.26514434782E+02  0.00000000000E+00 0.  1.
<mgrwt>
<rscale>  1 0.30000000E+03</rscale>
<asrwt>0</asrwt>
<pdfrwt beam="1">  1        1 0.17855602E+00 0.30000000E+03</pdfrwt>
<pdfrwt beam="2">0</pdfrwt>
<totfact> 0.12981705E+01</totfact>
</mgrwt>
</event>
<event>
 6    1  0.1929825E-004  0.3000000E+03  0.7818608E-02  0.1093470E+00
          1   -1    0    0  502    0  0.00000000000E+00  0.00000000000E+00  0.11709222075E+03  0.11709222075E+03  0.00000000000E+00 0.  1.
         13   -1    0    0    0    0 -0.00000000000E+00 -0.00000000000E+00 -0.10000000000E+04  0.10000000000E+04  0.00000000000E+00 0.  1.
    9000005    2    1    2  501    0 -0.49918676774E+02  0.74254674998E+02 -0.96181968105E+03  0.99779125974E+03  0.24996933434E+03 0.  0.
         13    1    3    3    0    0 -0.28058781660E+02  0.15922248222E+03 -0.44245860717E+03  0.47107187682E+03  0.00000000000E+00 0.  1.
          3    1    3    3  501    0 -0.21859895115E+02 -0.84967807226E+02 -0.51936107389E+03  0.52671938293E+03  0.00000000000E+00 0.  1.
         21    1    1    2  502  501  0.49918676774E+02 -0.74254674998E+02  0.78911901800E+02  0.11930096100E+03  0.00000000000E+00 0.  1.
<mgrwt>
<rscale>  1 0.30000000E+03</rscale>
<asrwt>0</asrwt>
<pdfrwt beam="1">  1        1 0.42579079E+00 0.30000000E+03</pdfrwt>
<pdfrwt beam="2">0</pdfrwt>
<totfact> 0.73829025E-01</totfact>
</mgrwt>
</event>
<event>
 6    1  0.1929825E-004  0.3000000E+03  0.7818608E-02  0.1093470E+00
          1   -1    0    0  502    0  0.00000000000E+00  0.00000000000E+00  0.30392113519E+02  0.30392113519E+02  0.00000000000E+00 0.  1.
         13   -1    0    0    0    0 -0.00000000000E+00 -0.00000000000E+00 -0.10000000000E+04  0.10000000000E+04  0.00000000000E+00 0.  1.
    9000005    2    1    2  501    0  0.42634804739E-02  0.10128407109E+02 -0.96998517165E+03  0.10202566810E+04  0.31614850498E+03 0.  0.
         13    1    3    3    0    0  0.15733040906E+03  0.20322500917E+02 -0.48118986281E+03  0.50666512188E+03  0.00000000000E+00 0.  1.
          3    1    3    3  501    0 -0.15732614558E+03 -0.10194093808E+02 -0.48879530884E+03  0.51359155910E+03  0.00000000000E+00 0.  1.
         21    1    1    2  502  501 -0.42634804739E-02 -0.10128407109E+02  0.37728516980E+00  0.10135432544E+02  0.00000000000E+00 0. -1.
<mgrwt>
<rscale>  1 0.30000000E+03</rscale>
<asrwt>0</asrwt>
<pdfrwt beam="1">  1        1 0.11051701E+00 0.30000000E+03</pdfrwt>
<pdfrwt beam="2">0</pdfrwt>
<totfact> 0.29499891E+01</totfact>
</mgrwt>
</event>
<event>
 6    1  0.1929825E-004  0.3000000E+03  0.7818608E-02  0.1093470E+00
          1   -1    0    0  502    0  0.00000000000E+00  0.00000000000E+00  0.35071018680E+02  0.35071018680E+02  0.00000000000E+00 0.  1.
         13   -1    0    0    0    0 -0.00000000000E+00 -0.00000000000E+00 -0.10000000000E+04  0.10000000000E+04  0.00000000000E+00 0.  1.
    9000005    2    1    2  501    0 -0.16987808825E+02 -0.80796871292E+01 -0.96495430824E+03  0.10162596489E+04  0.31826559652E+03 0.  0.
         13    1    3    3    0    0  0.54946120415E+01  0.49355602024E+02 -0.95192528717E+03  0.95321976405E+03  0.00000000000E+00 0.  1.
          1    1    3    3  501    0 -0.22482420867E+02 -0.57435289154E+02 -0.13029021069E+02  0.63039884821E+02  0.00000000000E+00 0.  1.
         21    1    1    2  502  501  0.16987808825E+02  0.80796871292E+01  0.25326920572E-01  0.18811369813E+02  0.00000000000E+00 0.  1.
<mgrwt>
<rscale>  1 0.30000000E+03</rscale>
<asrwt>0</asrwt>
<pdfrwt beam="1">  1        1 0.12753125E+00 0.30000000E+03</pdfrwt>
<pdfrwt beam="2">0</pdfrwt>
<totfact> 0.23602364E+01</totfact>
</mgrwt>
</event>
<event>
 6    1  0.1929825E-004  0.3000000E+03  0.7818608E-02  0.1093470E+00
          1   -1    0    0  502    0  0.00000000000E+00  0.00000000000E+00  0.36013511718E+02  0.36013511718E+02  0.00000000000E+00 0.  1.
         13   -1    0    0    0    0 -0.00000000000E+00 -0.00000000000E+00 -0.10000000000E+04  0.10000000000E+04  0.00000000000E+00 0.  1.
    9000005    2    1    2  501    0 -0.75234455326E+01 -0.16206982373E+02 -0.95988957908E+03  0.10176817585E+04  0.33759278590E+03 0.  0.
         13    1    3    3    0    0  0.67509002246E+01 -0.14111689202E+03 -0.18560649158E+03  0.23325805792E+03  0.00000000000E+00 0.  1.
          3    1    3    3  501    0 -0.14274345757E+02  0.12490990965E+03 -0.77428308750E+03  0.78442370060E+03  0.00000000000E+00 0.  1.
         21    1    1    2  502  501  0.75234455326E+01  0.16206982373E+02 -0.40969092046E+01  0.18331753199E+02  0.00000000000E+00 0. -1.
<mgrwt>
<rscale>  1 0.30000000E+03</rscale>
<asrwt>0</asrwt>
<pdfrwt beam="1">  1        1 0.13095850E+00 0.30000000E+03</pdfrwt>
<pdfrwt beam="2">0</pdfrwt>
<totfact> 0.22606971E+01</totfact>
</mgrwt>
</event>
<event>
 6    1  0.1929825E-004  0.3000000E+03  0.7818608E-02  0.1093470E+00
          1   -1    0    0  502    0  0.00000000000E+00  0.00000000000E+00  0.36960965396E+02  0.36960965396E+02  0.00000000000E+00 0.  1.
         13   -1    0    0    0    0 -0.00000000000E+00 -0.00000000000E+00 -0.10000000000E+04  0.10000000000E+04  0.00000000000E+00 0.  1.
    9000005    2    1    2  501    0  0.42260020663E+02 -0.13563991416E+02 -0.91766975270E+03  0.97349236726E+03  0.32186910829E+03 0.  0.
         13    1    3    3    0    0 -0.11192280557E+03 -0.89606372482E+02 -0.30257607504E+03  0.33482577198E+03  0.00000000000E+00 0.  1.
          3    1    3    3  501    0  0.15418282623E+03  0.76042381067E+02 -0.61509367766E+03  0.63866659527E+03  0.00000000000E+00 0.  1.
         21    1    1    2  502  501 -0.42260020663E+02  0.13563991416E+02 -0.45369281899E+02  0.63468598138E+02  0.00000000000E+00 0. -1.
<mgrwt>
<rscale>  1 0.30000000E+03</rscale>
<asrwt>0</asrwt>
<pdfrwt beam="1">  1        1 0.13440379E+00 0.30000000E+03</pdfrwt>
<pdfrwt beam="2">0</pdfrwt>
<totfact> 0.21660887E+01</totfact>
</mgrwt>
</event>
<event>
 6    1  0.1929825E-004  0.3000000E+03  0.7818608E-02  0.1093470E+00
          1   -1    0    0  502    0  0.00000000000E+00  0.00000000000E+00  0.33435633759E+02  0.33435633759E+02  0.00000000000E+00 0.  1.
         13   -1    0    0    0    0 -0.00000000000E+00 -0.00000000000E+00 -0.10000000000E+04  0.10000000000E+04  0.00000000000E+00 0.  1.
    9000005    2    1    2  501    0 -0.10207771151E+02 -0.56126231948E+01 -0.96046719549E+03  0.10202874163E+04  0.34402540332E+03 0.  0.
         13    1    3    3    0    0 -0.28128437840E+02  0.15230476128E+03 -0.68471689258E+03  0.70201507983E+03  0.00000000000E+00 0.  1.
          3    1    3    3  501    0  0.17920666690E+02 -0.15791738447E+03 -0.27575030291E+03  0.31827233648E+03  0.00000000000E+00 0.  1.
         21    1    1    2  502  501  0.10207771151E+02  0.56126231948E+01 -0.60971707486E+01  0.13148217450E+02  0.00000000000E+00 0. -1.
<mgrwt>
<rscale>  1 0.30000000E+03</rscale>
<asrwt>0</asrwt>
<pdfrwt beam="1">  1        1 0.12158438E+00 0.30000000E+03</pdfrwt>
<pdfrwt beam="2">0</pdfrwt>
<totfact> 0.25467083E+01</totfact>
</mgrwt>
</event>
<event>
 6    1  0.1929825E-004  0.3000000E+03  0.7818608E-02  0.1093470E+00
          1   -1    0    0  502    0  0.00000000000E+00  0.00000000000E+00  0.52711635912E+02  0.52711635912E+02  0.00000000000E+00 0.  1.
         13   -1    0    0    0    0 -0.00000000000E+00 -0.00000000000E+00 -0.10000000000E+04  0.10000000000E+04  0.00000000000E+00 0.  1.
    9000005    2    1    2  501    0 -0.14165216737E+02  0.69056354635E+02 -0.91463079190E+03  0.97502025607E+03  0.33037188254E+03 0.  0.
         13    1    3    3    0    0  0.14517725413E+03  0.12134622078E+02 -0.25154513673E+03  0.29068649776E+03  0.00000000000E+00 0.  1.
          1    1    3    3  501    0 -0.15934247087E+03  0.56921732557E+02 -0.66308565517E+03  0.68433375831E+03  0.00000000000E+00 0.  1.
         21    1    1    2  502  501  0.14165216737E+02 -0.69056354635E+02 -0.32657572186E+02  0.77691379842E+02  0.00000000000E+00 0. -1.
<mgrwt>
<rscale>  1 0.30000000E+03</rscale>
<asrwt>0</asrwt>
<pdfrwt beam="1">  1        1 0.19167908E+00 0.30000000E+03</pdfrwt>
<pdfrwt beam="2">0</pdfrwt>
<totfact> 0.11223927E+01</totfact>
</mgrwt>
</event>
<event>
 6    1  0.1929825E-004  0.3000000E+03  0.7818608E-02  0.1093470E+00
          1   -1    0    0  502    0  0.00000000000E+00  0.00000000000E+00  0.31983281462E+02  0.31983281462E+02  0.00000000000E+00 0.  1.
         13   -1    0    0    0    0 -0.00000000000E+00 -0.00000000000E+00 -0.10000000000E+04  0.10000000000E+04  0.00000000000E+00 0.  1.
    9000005    2    1    2  501    0  0.27167788559E+02  0.91804975569E+01 -0.92704602273E+03  0.98197360054E+03  0.32254527378E+03 0.  0.
         13    1    3    3    0    0  0.69446942820E+02  0.11126260876E+03 -0.81176632824E+03  0.82229363225E+03  0.00000000000E+00 0.  1.
          3    1    3    3  501    0 -0.42279154261E+02 -0.10208211120E+03 -0.11527969449E+03  0.15967996829E+03  0.00000000000E+00 0.  1.
         21    1    1    2  502  501 -0.27167788559E+02 -0.91804975569E+01 -0.40970695812E+02  0.50009680922E+02  0.00000000000E+00 0.  1.
<mgrwt>
<rscale>  1 0.30000000E+03</rscale>
<asrwt>0</asrwt>
<pdfrwt beam="1">  1        1 0.11630309E+00 0.30000000E+03</pdfrwt>
<pdfrwt beam="2">0</pdfrwt>
<totfact> 0.27289203E+01</totfact>
</mgrwt>
</event>
<event>
 6    1  0.1929825E-004  0.3000000E+03  0.7818608E-02  0.1093470E+00
          1   -1    0    0  502    0  0.00000000000E+00  0.00000000000E+00  0.51085168996E+02  0.51085168996E+02  0.00000000000E+00 0.  1.
         13   -1    0    0    0    0 -0.00000000000E+00 -0.00000000000E+00 -0.10000000000E+04  0.10000000000E+04  0.00000000000E+00 0.  1.
    9000005    2    1    2  501    0  0.13921595965E+02  0.13070614917E+01 -0.97158744650E+03  0.10244474751E+04  0.32452263983E+03 0.  0.
         13    1    3    3    0    0 -0.13646916171E+01 -0.11695366948E+03 -0.13170671367E+03  0.17614392301E+03  0.00000000000E+00 0.  1.
          1    1    3    3  501    0  0.15286287582E+02  0.11826073097E+03 -0.83988073282E+03  0.84830355207E+03  0.00000000000E+00 0.  1.
         21    1    1    2  502  501 -0.13921595965E+02 -0.13070614917E+01  0.22672615492E+02  0.26637693917E+02  0.00000000000E+00 0. -1.
<mgrwt>
<rscale>  1 0.30000000E+03</rscale>
<asrwt>0</asrwt>
<pdfrwt beam="1">  1        1 0.18576464E+00 0.30000000E+03</pdfrwt>
<pdfrwt beam="2">0</pdfrwt>
<totfact> 0.11982493E+01</totfact>
</mgrwt>
</event>
<event>
 6    1  0.1929825E-004  0.3000000E+03  0.7818608E-02  0.1093470E+00
          1   -1    0    0  502    0  0.00000000000E+00  0.00000000000E+00  0.33197472017E+02  0.33197472017E+02  0.00000000000E+00 0.  1.
         13   -1    0    0    0    0 -0.00000000000E+00 -0.00000000000E+00 -0.10000000000E+04  0.10000000000E+04  0.00000000000E+00 0.  1.
    9000005    2    1    2  501    0 -0.99615012392E+01  0.12146977222E+02 -0.96781799331E+03  0.10174554349E+04  0.31352370448E+03 0.  0.
         13    1    3    3    0    0 -0.12502303558E+03 -0.93738391985E+02 -0.43771231114E+03  0.46476845082E+03  0.00000000000E+00 0.  1.
          1    1    3    3  501    0  0.11506153435E+03  0.10588536921E+03 -0.53010568218E+03  0.55268698408E+03  0.00000000000E+00 0.  1.
         21    1    1    2  502  501  0.99615012392E+01 -0.12146977222E+02  0.10154653318E+01  0.15742037111E+02  0.00000000000E+00 0.  1.
<mgrwt>
<rscale>  1 0.30000000E+03</rscale>
<asrwt>0</asrwt>
<pdfrwt beam="1">  1        1 0.12071833E+00 0.30000000E+03</pdfrwt>
<pdfrwt beam="2">0</pdfrwt>
<totfact> 0.25754414E+01</totfact>
</mgrwt>
</event>
<event>
 6    1  0.1929825E-004  0.3000000E+03  0.7818608E-02  0.1093470E+00
          3   -1    0    0  502    0  0.00000000000E+00  0.00000000000E+00  0.31156984681E+02  0.31156984681E+02  0.00000000000E+00 0.  1.
         13   -1    0    0    0    0 -0.00000000000E+00 -0.00000000000E+00 -0.10000000000E+04  0.10000000000E+04  0.00000000000E+00 0.  1.
    9000005    2    1    2  501    0  0.70315091523E+01 -0.10280571962E+02 -0.94211031168E+03  0.10016651261E+04  0.34000890153E+03 0.  0.
         13    1    3    3    0    0  0.13419417370E+03  0.76418974079E+02 -0.68345004010E+03  0.70067959380E+03  0.00000000000E+00 0.  1.
          3    1    3    3  501    0 -0.12716266455E+03 -0.86699546042E+02 -0.25866027158E+03  0.30098553226E+03  0.00000000000E+00 0.  1.
         21    1    1    2  502  501 -0.70315091523E+01  0.10280571962E+02 -0.26732703638E+02  0.29491858616E+02  0.00000000000E+00 0. -1.
<mgrwt>
<rscale>  1 0.30000000E+03</rscale>
<asrwt>0</asrwt>
<pdfrwt beam="1">  1        3 0.11329837E+00 0.30000000E+03</pdfrwt>
<pdfrwt beam="2">0</pdfrwt>
<totfact> 0.27633556E+00</totfact>
</mgrwt>
</event>
<event>
 6    1  0.1929825E-004  0.3000000E+03  0.7818608E-02  0.1093470E+00
          1   -1    0    0  502    0  0.00000000000E+00  0.00000000000E+00  0.45160778253E+02  0.45160778253E+02  0.00000000000E+00 0.  1.
         13   -1    0    0    0    0 -0.00000000000E+00 -0.00000000000E+00 -0.10000000000E+04  0.10000000000E+04  0.00000000000E+00 0.  1.
    9000005    2    1    2  501    0 -0.13050416780E+02  0.99205864124E+01 -0.97210274810E+03  0.10213540407E+04  0.31290828062E+03 0.  0.
         13    1    3    3    0    0  0.12632043782E+03 -0.13149651167E+01 -0.73752491953E+03  0.74826572090E+03  0.00000000000E+00 0.  1.
          3    1    3    3  501    0 -0.13937085460E+03  0.11235551529E+02 -0.23457782857E+03  0.27308831976E+03  0.00000000000E+00 0.  1.
         21    1    1    2  502  501  0.13050416780E+02 -0.99205864124E+01  0.17263526356E+02  0.23806737599E+02  0.00000000000E+00 0.  1.
<mgrwt>
<rscale>  1 0.30000000E+03</rscale>
<asrwt>0</asrwt>
<pdfrwt beam="1">  1        1 0.16422136E+00 0.30000000E+03</pdfrwt>
<pdfrwt beam="2">0</pdfrwt>
<totfact> 0.15251460E+01</totfact>
</mgrwt>
</event>
<event>
 6    1  0.1929825E-004  0.3000000E+03  0.7818608E-02  0.1093470E+00
          1   -1    0    0  502    0  0.00000000000E+00  0.00000000000E+00  0.33600070032E+02  0.33600070032E+02  0.00000000000E+00 0.  1.
         13   -1    0    0    0    0 -0.00000000000E+00 -0.00000000000E+00 -0.10000000000E+04  0.10000000000E+04  0.00000000000E+00 0.  1.
    9000005    2    1    2  501    0  0.17592876048E+02  0.12655573333E+02 -0.95360050132E+03  0.10084306799E+04  0.32727488034E+03 0.  0.
         13    1    3    3    0    0  0.53543618822E+02 -0.13046148503E+03 -0.22885634112E+03  0.26881656025E+03  0.00000000000E+00 0.  1.
          1    1    3    3  501    0 -0.35950742773E+02  0.14311705837E+03 -0.72474416019E+03  0.73961411968E+03  0.00000000000E+00 0.  1.
         21    1    1    2  502  501 -0.17592876048E+02 -0.12655573333E+02 -0.12799428652E+02  0.25169390097E+02  0.00000000000E+00 0. -1.
<mgrwt>
<rscale>  1 0.30000000E+03</rscale>
<asrwt>0</asrwt>
<pdfrwt beam="1">  1        1 0.12218233E+00 0.30000000E+03</pdfrwt>
<pdfrwt beam="2">0</pdfrwt>
<totfact> 0.25271166E+01</totfact>
</mgrwt>
</event>
<event>
 6    1  0.1929825E-004  0.3000000E+03  0.7818608E-02  0.1093470E+00
          1   -1    0    0  502    0  0.00000000000E+00  0.00000000000E+00  0.33818079057E+02  0.33818079057E+02  0.00000000000E+00 0.  1.
         13   -1    0    0    0    0 -0.00000000000E+00 -0.00000000000E+00 -0.10000000000E+04  0.10000000000E+04  0.00000000000E+00 0.  1.
    9000005    2    1    2  501    0  0.27978822740E+02 -0.39573892441E+00 -0.94616549301E+03  0.99941417639E+03  0.32065025290E+03 0.  0.
         13    1    3    3    0    0  0.72156929165E+02 -0.25908270514E+02 -0.94528704645E+03  0.94839098536E+03  0.00000000000E+00 0.  1.
          1    1    3    3  501    0 -0.44178106425E+02  0.25512531589E+02 -0.87844655348E+00  0.51023191039E+02  0.00000000000E+00 0.  1.
         21    1    1    2  502  501 -0.27978822740E+02  0.39573892441E+00 -0.20016427935E+02  0.34403902663E+02  0.00000000000E+00 0.  1.
<mgrwt>
<rscale>  1 0.30000000E+03</rscale>
<asrwt>0</asrwt>
<pdfrwt beam="1">  1        1 0.12297509E+00 0.30000000E+03</pdfrwt>
<pdfrwt beam="2">0</pdfrwt>
<totfact> 0.25014459E+01</totfact>
</mgrwt>
</event>
<event>
 6    1  0.1929825E-004  0.3000000E+03  0.7818608E-02  0.1093470E+00
          1   -1    0    0  502    0  0.00000000000E+00  0.00000000000E+00  0.86608489143E+02  0.86608489143E+02  0.00000000000E+00 0.  1.
         13   -1    0    0    0    0 -0.00000000000E+00 -0.00000000000E+00 -0.10000000000E+04  0.10000000000E+04  0.00000000000E+00 0.  1.
    9000005    2    1    2  501    0 -0.12750394437E+03 -0.17809535640E+02 -0.88398064256E+03  0.95455003783E+03  0.33640684135E+03 0.  0.
         13    1    3    3    0    0  0.44216867643E+02  0.12020358327E+03 -0.21534033747E+03  0.25055038168E+03  0.00000000000E+00 0.  1.
          3    1    3    3  501    0 -0.17172081201E+03 -0.13801311891E+03 -0.66864030509E+03  0.70399965615E+03  0.00000000000E+00 0.  1.
         21    1    1    2  502  501  0.12750394437E+03  0.17809535640E+02 -0.29410868295E+02  0.13205845131E+03  0.00000000000E+00 0. -1.
<mgrwt>
<rscale>  1 0.30000000E+03</rscale>
<asrwt>0</asrwt>
<pdfrwt beam="1">  1        1 0.31494062E+00 0.30000000E+03</pdfrwt>
<pdfrwt beam="2">0</pdfrwt>
<totfact> 0.29466864E+00</totfact>
</mgrwt>
</event>
<event>
 6    1  0.1929825E-004  0.3000000E+03  0.7818608E-02  0.1093470E+00
          3   -1    0    0  502    0  0.00000000000E+00  0.00000000000E+00  0.33689760194E+02  0.33689760194E+02  0.00000000000E+00 0.  1.
         13   -1    0    0    0    0 -0.00000000000E+00 -0.00000000000E+00 -0.10000000000E+04  0.10000000000E+04  0.00000000000E+00 0.  1.
    9000005    2    1    2  501    0  0.54715298764E+01  0.89775553325E+01 -0.97041159081E+03  0.10224045832E+04  0.32171717720E+03 0.  0.
         13    1    3    3    0    0 -0.15251791771E+03 -0.35712288071E+02 -0.43248136864E+03  0.45997523516E+03  0.00000000000E+00 0.  1.
          1    1    3    3  501    0  0.15798944759E+03  0.44689843404E+02 -0.53793022217E+03  0.56242934808E+03  0.00000000000E+00 0.  1.
         21    1    1    2  502  501 -0.54715298764E+01 -0.89775553325E+01  0.41013510011E+01  0.11285176958E+02  0.00000000000E+00 0.  1.
<mgrwt>
<rscale>  1 0.30000000E+03</rscale>
<asrwt>0</asrwt>
<pdfrwt beam="1">  1        3 0.12250848E+00 0.30000000E+03</pdfrwt>
<pdfrwt beam="2">0</pdfrwt>
<totfact> 0.21629950E+00</totfact>
</mgrwt>
</event>
<event>
 6    1  0.1929825E-004  0.3000000E+03  0.7818608E-02  0.1093470E+00
          1   -1    0    0  502    0  0.00000000000E+00  0.00000000000E+00  0.37916251360E+02  0.37916251360E+02  0.00000000000E+00 0.  1.
         13   -1    0    0    0    0 -0.00000000000E+00 -0.00000000000E+00 -0.10000000000E+04  0.10000000000E+04  0.00000000000E+00 0.  1.
    9000005    2    1    2  501    0  0.92654911822E+01  0.12428172149E+02 -0.96401058741E+03  0.10222950639E+04  0.33989774382E+03 0.  0.
         13    1    3    3    0    0 -0.34458190527E+02  0.15276787937E+03 -0.26347328771E+03  0.30650214551E+03  0.00000000000E+00 0.  1.
          3    1    3    3  501    0  0.43723681709E+02 -0.14033970722E+03 -0.70053729970E+03  0.71579291840E+03  0.00000000000E+00 0.  1.
         21    1    1    2  502  501 -0.92654911822E+01 -0.12428172149E+02  0.19268387729E+01  0.15621187454E+02  0.00000000000E+00 0.  1.
<mgrwt>
<rscale>  1 0.30000000E+03</rscale>
<asrwt>0</asrwt>
<pdfrwt beam="1">  1        1 0.13787757E+00 0.30000000E+03</pdfrwt>
<pdfrwt beam="2">0</pdfrwt>
<totfact> 0.20759299E+01</totfact>
</mgrwt>
</event>
<event>
 6    1  0.1929825E-004  0.3000000E+03  0.7818608E-02  0.1093470E+00
          1   -1    0    0  502    0  0.00000000000E+00  0.00000000000E+00  0.29515039114E+02  0.29515039114E+02  0.00000000000E+00 0.  1.
         13   -1    0    0    0    0 -0.00000000000E+00 -0.00000000000E+00 -0.10000000000E+04  0.10000000000E+04  0.00000000000E+00 0.  1.
    9000005    2    1    2  501    0 -0.13877780878E+02  0.93070576535E+01 -0.93015251936E+03  0.98585819585E+03  0.32627206275E+03 0.  0.
         13    1    3    3    0    0  0.14123996951E+03  0.53570832584E+02 -0.30679608687E+03  0.34196842253E+03  0.00000000000E+00 0.  1.
          3    1    3    3  501    0 -0.15511775039E+03 -0.44263774930E+02 -0.62335643249E+03  0.64388977332E+03  0.00000000000E+00 0.  1.
         21    1    1    2  502  501  0.13877780878E+02 -0.93070576535E+01 -0.40332441529E+02  0.43656843266E+02  0.00000000000E+00 0.  1.
<mgrwt>
<rscale>  1 0.30000000E+03</rscale>
<asrwt>0</asrwt>
<pdfrwt beam="1">  1        1 0.10732764E+00 0.30000000E+03</pdfrwt>
<pdfrwt beam="2">0</pdfrwt>
<totfact> 0.30828401E+01</totfact>
</mgrwt>
</event>
<event>
 6    1  0.1929825E-004  0.3000000E+03  0.7818608E-02  0.1093470E+00
          1   -1    0    0  502    0  0.00000000000E+00  0.00000000000E+00  0.42247467129E+02  0.42247467129E+02  0.00000000000E+00 0.  1.
         13   -1    0    0    0    0 -0.00000000000E+00 -0.00000000000E+00 -0.10000000000E+04  0.10000000000E+04  0.00000000000E+00 0.  1.
    9000005    2    1    2  501    0  0.74206482371E+02 -0.41186327696E+02 -0.81008531557E+03  0.87192858186E+03  0.31115642006E+03 0.  0.
         13    1    3    3    0    0 -0.21398565454E+02 -0.63687300147E+02 -0.12525183260E+02  0.68343624569E+02  0.00000000000E+00 0.  1.
          3    1    3    3  501    0  0.95605047824E+02  0.22500972451E+02 -0.79756013231E+03  0.80358495729E+03  0.00000000000E+00 0.  1.
         21    1    1    2  502  501 -0.74206482371E+02  0.41186327696E+02 -0.14766721730E+03  0.17031888527E+03  0.00000000000E+00 0.  1.
<mgrwt>
<rscale>  1 0.30000000E+03</rscale>
<asrwt>0</asrwt>
<pdfrwt beam="1">  1        1 0.15362748E+00 0.30000000E+03</pdfrwt>
<pdfrwt beam="2">0</pdfrwt>
<totfact> 0.17221463E+01</totfact>
</mgrwt>
</event>
<event>
 6    1  0.1929825E-004  0.3000000E+03  0.7818608E-02  0.1093470E+00
          1   -1    0    0  502    0  0.00000000000E+00  0.00000000000E+00  0.30310438803E+02  0.30310438803E+02  0.00000000000E+00 0.  1.
         13   -1    0    0    0    0 -0.00000000000E+00 -0.00000000000E+00 -0.10000000000E+04  0.10000000000E+04  0.00000000000E+00 0.  1.
    9000005    2    1    2  501    0  0.16016573049E+02  0.87281176356E+00 -0.95583800102E+03  0.10091170877E+04  0.32316206466E+03 0.  0.
         13    1    3    3    0    0  0.12559459635E+02  0.99202086474E+02 -0.80783949907E+02  0.12854898113E+03  0.00000000000E+00 0.  1.
          1    1    3    3  501    0  0.34571134141E+01 -0.98329274710E+02 -0.87505405112E+03  0.88056810655E+03  0.00000000000E+00 0.  1.
         21    1    1    2  502  501 -0.16016573049E+02 -0.87281176356E+00 -0.13851560174E+02  0.21193351124E+02  0.00000000000E+00 0. -1.
<mgrwt>
<rscale>  1 0.30000000E+03</rscale>
<asrwt>0</asrwt>
<pdfrwt beam="1">  1        1 0.11022001E+00 0.30000000E+03</pdfrwt>
<pdfrwt beam="2">0</pdfrwt>
<totfact> 0.29620126E+01</totfact>
</mgrwt>
</event>
<event>
 6    1  0.1929825E-004  0.3000000E+03  0.7818608E-02  0.1093470E+00
          1   -1    0    0  502    0  0.00000000000E+00  0.00000000000E+00  0.30960914110E+02  0.30960914110E+02  0.00000000000E+00 0.  1.
         13   -1    0    0    0    0 -0.00000000000E+00 -0.00000000000E+00 -0.10000000000E+04  0.10000000000E+04  0.00000000000E+00 0.  1.
    9000005    2    1    2  501    0  0.41866608143E+01 -0.16200417604E+02 -0.94812004981E+03  0.10041730861E+04  0.33038156172E+03 0.  0.
         13    1    3    3    0    0  0.14095089411E+03 -0.43159245720E+02 -0.73414187625E+03  0.74879514523E+03  0.00000000000E+00 0.  1.
          3    1    3    3  501    0 -0.13676423330E+03  0.26958828116E+02 -0.21397817355E+03  0.25537794086E+03  0.00000000000E+00 0.  1.
         21    1    1    2  502  501 -0.41866608143E+01  0.16200417604E+02 -0.20919036083E+02  0.26787828019E+02  0.00000000000E+00 0. -1.
<mgrwt>
<rscale>  1 0.30000000E+03</rscale>
<asrwt>0</asrwt>
<pdfrwt beam="1">  1        1 0.11258538E+00 0.30000000E+03</pdfrwt>
<pdfrwt beam="2">0</pdfrwt>
<totfact> 0.28681390E+01</totfact>
</mgrwt>
</event>
<event>
 6    1  0.1929825E-004  0.3000000E+03  0.7818608E-02  0.1093470E+00
          1   -1    0    0  502    0  0.00000000000E+00  0.00000000000E+00  0.32799239537E+02  0.32799239537E+02  0.00000000000E+00 0.  1.
         13   -1    0    0    0    0 -0.00000000000E+00 -0.00000000000E+00 -0.10000000000E+04  0.10000000000E+04  0.00000000000E+00 0.  1.
    9000005    2    1    2  501    0  0.19630084514E+02  0.26878357224E+01 -0.95602139569E+03  0.10100496708E+04  0.32531655949E+03 0.  0.
         13    1    3    3    0    0  0.10430767314E+03 -0.69699695400E+02 -0.83958097211E+03  0.84890184765E+03  0.00000000000E+00 0.  1.
          3    1    3    3  501    0 -0.84677588624E+02  0.72387531122E+02 -0.11644042358E+03  0.16114782319E+03  0.00000000000E+00 0.  1.
         21    1    1    2  502  501 -0.19630084514E+02 -0.26878357224E+01 -0.11179364776E+02  0.22749568693E+02  0.00000000000E+00 0. -1.
<mgrwt>
<rscale>  1 0.30000000E+03</rscale>
<asrwt>0</asrwt>
<pdfrwt beam="1">  1        1 0.11927021E+00 0.30000000E+03</pdfrwt>
<pdfrwt beam="2">0</pdfrwt>
<totfact> 0.26244600E+01</totfact>
</mgrwt>
</event>
<event>
 6    1  0.1929825E-004  0.3000000E+03  0.7818608E-02  0.1093470E+00
          1   -1    0    0  502    0  0.00000000000E+00  0.00000000000E+00  0.28945155072E+02  0.28945155072E+02  0.00000000000E+00 0.  1.
         13   -1    0    0    0    0 -0.00000000000E+00 -0.00000000000E+00 -0.10000000000E+04  0.10000000000E+04  0.00000000000E+00 0.  1.
    9000005    2    1    2  501    0  0.64036979950E+00  0.10845004343E+02 -0.96139166559E+03  0.10144055118E+04  0.32346032745E+03 0.  0.
         13    1    3    3    0    0  0.85456529703E+02 -0.12751521999E+03 -0.57897322034E+03  0.59897657689E+03  0.00000000000E+00 0.  1.
          3    1    3    3  501    0 -0.84816159904E+02  0.13836022433E+03 -0.38241844525E+03  0.41542893487E+03  0.00000000000E+00 0.  1.
         21    1    1    2  502  501 -0.64036979950E+00 -0.10845004343E+02 -0.96631793391E+01  0.14539643311E+02  0.00000000000E+00 0. -1.
<mgrwt>
<rscale>  1 0.30000000E+03</rscale>
<asrwt>0</asrwt>
<pdfrwt beam="1">  1        1 0.10525533E+00 0.30000000E+03</pdfrwt>
<pdfrwt beam="2">0</pdfrwt>
<totfact> 0.31737986E+01</totfact>
</mgrwt>
</event>
<event>
 6    1  0.1929825E-004  0.3000000E+03  0.7818608E-02  0.1093470E+00
          1   -1    0    0  502    0  0.00000000000E+00  0.00000000000E+00  0.32202538410E+02  0.32202538410E+02  0.00000000000E+00 0.  1.
         13   -1    0    0    0    0 -0.00000000000E+00 -0.00000000000E+00 -0.10000000000E+04  0.10000000000E+04  0.00000000000E+00 0.  1.
    9000005    2    1    2  501    0 -0.94229211985E+01  0.27604331458E+02 -0.92798999710E+03  0.98285251523E+03  0.32246370557E+03 0.  0.
         13    1    3    3    0    0  0.80609013272E+02 -0.76454258880E+02 -0.74843479047E+03  0.75663577916E+03  0.00000000000E+00 0.  1.
          3    1    3    3  501    0 -0.90031934471E+02  0.10405859034E+03 -0.17955520663E+03  0.22621673607E+03  0.00000000000E+00 0.  1.
         21    1    1    2  502  501  0.94229211985E+01 -0.27604331458E+02 -0.39807464490E+02  0.49350023184E+02  0.00000000000E+00 0.  1.
<mgrwt>
<rscale>  1 0.30000000E+03</rscale>
<asrwt>0</asrwt>
<pdfrwt beam="1">  1        1 0.11710039E+00 0.30000000E+03</pdfrwt>
<pdfrwt beam="2">0</pdfrwt>
<totfact> 0.27002987E+01</totfact>
</mgrwt>
</event>
<event>
 6    1  0.1929825E-004  0.3000000E+03  0.7818608E-02  0.1093470E+00
          1   -1    0    0  502    0  0.00000000000E+00  0.00000000000E+00  0.47189495265E+02  0.47189495265E+02  0.00000000000E+00 0.  1.
         13   -1    0    0    0    0 -0.00000000000E+00 -0.00000000000E+00 -0.10000000000E+04  0.10000000000E+04  0.00000000000E+00 0.  1.
    9000005    2    1    2  501    0  0.49113571730E+02  0.92413017910E+01 -0.94338522166E+03  0.99633302520E+03  0.31655374908E+03 0.  0.
         13    1    3    3    0    0  0.43969775187E+02 -0.12347777781E+03 -0.18691997863E+03  0.22829625742E+03  0.00000000000E+00 0.  1.
          1    1    3    3  501    0  0.51437965428E+01  0.13271907960E+03 -0.75646524304E+03  0.76803676778E+03  0.00000000000E+00 0.  1.
         21    1    1    2  502  501 -0.49113571730E+02 -0.92413017910E+01 -0.94252830703E+01  0.50856470068E+02  0.00000000000E+00 0.  1.
<mgrwt>
<rscale>  1 0.30000000E+03</rscale>
<asrwt>0</asrwt>
<pdfrwt beam="1">  1        1 0.17159853E+00 0.30000000E+03</pdfrwt>
<pdfrwt beam="2">0</pdfrwt>
<totfact> 0.14032750E+01</totfact>
</mgrwt>
</event>
<event>
 6    1  0.1929825E-004  0.3000000E+03  0.7818608E-02  0.1093470E+00
          1   -1    0    0  502    0  0.00000000000E+00  0.00000000000E+00  0.48393632867E+02  0.48393632867E+02  0.00000000000E+00 0.  1.
         13   -1    0    0    0    0 -0.00000000000E+00 -0.00000000000E+00 -0.10000000000E+04  0.10000000000E+04  0.00000000000E+00 0.  1.
    9000005    2    1    2  501    0  0.14973840185E+02  0.16010898739E+02 -0.94896938342E+03  0.10263138129E+04  0.39025195328E+03 0.  0.
         13    1    3    3    0    0  0.45421789554E+02  0.12010032247E+03 -0.81483294295E+02  0.15207482919E+03  0.00000000000E+00 0.  1.
          1    1    3    3  501    0 -0.30447949369E+02 -0.10408942373E+03 -0.86748608913E+03  0.87423898368E+03  0.00000000000E+00 0.  1.
         21    1    1    2  502  501 -0.14973840185E+02 -0.16010898739E+02 -0.26369837125E+01  0.22079820004E+02  0.00000000000E+00 0.  1.
<mgrwt>
<rscale>  1 0.30000000E+03</rscale>
<asrwt>0</asrwt>
<pdfrwt beam="1">  1        1 0.17597722E+00 0.30000000E+03</pdfrwt>
<pdfrwt beam="2">0</pdfrwt>
<totfact> 0.13360998E+01</totfact>
</mgrwt>
</event>
<event>
 6    1  0.1929825E-004  0.3000000E+03  0.7818608E-02  0.1093470E+00
          1   -1    0    0  502    0  0.00000000000E+00  0.00000000000E+00  0.29588598191E+02  0.29588598191E+02  0.00000000000E+00 0.  1.
         13   -1    0    0    0    0 -0.00000000000E+00 -0.00000000000E+00 -0.10000000000E+04  0.10000000000E+04  0.00000000000E+00 0.  1.
    9000005    2    1    2  501    0 -0.80538103908E+01 -0.12507377146E+02 -0.94042113944E+03  0.99611152870E+03  0.32806243271E+03 0.  0.
         13    1    3    3    0    0  0.16734339117E+02 -0.15952013223E+03 -0.31897208587E+03  0.35702927367E+03  0.00000000000E+00 0.  1.
          1    1    3    3  501    0 -0.24788149508E+02  0.14701275508E+03 -0.62144905357E+03  0.63908225503E+03  0.00000000000E+00 0.  1.
         21    1    1    2  502  501  0.80538103908E+01  0.12507377146E+02 -0.29990262370E+02  0.33477069494E+02  0.00000000000E+00 0.  1.
<mgrwt>
<rscale>  1 0.30000000E+03</rscale>
<asrwt>0</asrwt>
<pdfrwt beam="1">  1        1 0.10759513E+00 0.30000000E+03</pdfrwt>
<pdfrwt beam="2">0</pdfrwt>
<totfact> 0.30713734E+01</totfact>
</mgrwt>
</event>
<event>
 6    1  0.1929825E-004  0.3000000E+03  0.7818608E-02  0.1093470E+00
          1   -1    0    0  502    0  0.00000000000E+00  0.00000000000E+00  0.39339530542E+02  0.39339530542E+02  0.00000000000E+00 0.  1.
         13   -1    0    0    0    0 -0.00000000000E+00 -0.00000000000E+00 -0.10000000000E+04  0.10000000000E+04  0.00000000000E+00 0.  1.
    9000005    2    1    2  501    0  0.13327327704E+02  0.48720076417E+01 -0.96826319537E+03  0.10232412212E+04  0.33058679213E+03 0.  0.
         13    1    3    3    0    0  0.11843620177E+03 -0.52721241185E+02 -0.15900878819E+03  0.20515959125E+03  0.00000000000E+00 0.  1.
          1    1    3    3  501    0 -0.10510887406E+03  0.57593248827E+02 -0.80925440719E+03  0.81808162995E+03  0.00000000000E+00 0.  1.
         21    1    1    2  502  501 -0.13327327704E+02 -0.48720076417E+01  0.76027259155E+01  0.16098309338E+02  0.00000000000E+00 0.  1.
<mgrwt>
<rscale>  1 0.30000000E+03</rscale>
<asrwt>0</asrwt>
<pdfrwt beam="1">  1        1 0.14305314E+00 0.30000000E+03</pdfrwt>
<pdfrwt beam="2">0</pdfrwt>
<totfact> 0.19503547E+01</totfact>
</mgrwt>
</event>
<event>
 6    1  0.1929825E-004  0.3000000E+03  0.7818608E-02  0.1093470E+00
          1   -1    0    0  502    0  0.00000000000E+00  0.00000000000E+00  0.66170168569E+02  0.66170168569E+02  0.00000000000E+00 0.  1.
         13   -1    0    0    0    0 -0.00000000000E+00 -0.00000000000E+00 -0.10000000000E+04  0.10000000000E+04  0.00000000000E+00 0.  1.
    9000005    2    1    2  501    0 -0.90917567536E+02  0.88980960941E+01 -0.91047105818E+03  0.97187906354E+03  0.32748463498E+03 0.  0.
         13    1    3    3    0    0 -0.34686452604E+02  0.16765591460E+03 -0.48127807129E+03  0.51082309815E+03  0.00000000000E+00 0.  1.
          3    1    3    3  501    0 -0.56231114932E+02 -0.15875781851E+03 -0.42919298689E+03  0.46105596539E+03  0.00000000000E+00 0.  1.
         21    1    1    2  502  501  0.90917567536E+02 -0.88980960941E+01 -0.23358773249E+02  0.94291105034E+02  0.00000000000E+00 0.  1.
<mgrwt>
<rscale>  1 0.30000000E+03</rscale>
<asrwt>0</asrwt>
<pdfrwt beam="1">  1        1 0.24061930E+00 0.30000000E+03</pdfrwt>
<pdfrwt beam="2">0</pdfrwt>
<totfact> 0.65995749E+00</totfact>
</mgrwt>
</event>
<event>
 6    1  0.1929825E-004  0.3000000E+03  0.7818608E-02  0.1093470E+00
          1   -1    0    0  502    0  0.00000000000E+00  0.00000000000E+00  0.29915638347E+02  0.29915638347E+02  0.00000000000E+00 0.  1.
         13   -1    0    0    0    0 -0.00000000000E+00 -0.00000000000E+00 -0.10000000000E+04  0.10000000000E+04  0.00000000000E+00 0.  1.
    9000005    2    1    2  501    0 -0.17322690871E+02  0.54818855278E+01 -0.95124985558E+03  0.10037457070E+04  0.31984219528E+03 0.  0.
         13    1    3    3    0    0  0.14240582774E+03 -0.13330172354E+02 -0.29182350255E+03  0.32498933815E+03  0.00000000000E+00 0.  1.
          1    1    3    3  501    0 -0.15972851861E+03  0.18812057882E+02 -0.65942635303E+03  0.67875636885E+03  0.00000000000E+00 0.  1.
         21    1    1    2  502  501  0.17322690871E+02 -0.54818855278E+01 -0.18834506069E+02  0.26169931349E+02  0.00000000000E+00 0.  1.
<mgrwt>
<rscale>  1 0.30000000E+03</rscale>
<asrwt>0</asrwt>
<pdfrwt beam="1">  1        1 0.10878437E+00 0.30000000E+03</pdfrwt>
<pdfrwt beam="2">0</pdfrwt>
<totfact> 0.30211247E+01</totfact>
</mgrwt>
</event>
<event>
 6    1  0.1929825E-004  0.3000000E+03  0.7818608E-02  0.1093470E+00
          1   -1    0    0  502    0  0.00000000000E+00  0.00000000000E+00  0.35117964289E+02  0.35117964289E+02  0.00000000000E+00 0.  1.
         13   -1    0    0    0    0 -0.00000000000E+00 -0.00000000000E+00 -0.10000000000E+04  0.10000000000E+04  0.00000000000E+00 0.  1.
    9000005    2    1    2  501    0  0.25024785475E+01 -0.17696954769E+02 -0.96201215125E+03  0.10170160074E+04  0.32944610412E+03 0.  0.
         13    1    3    3    0    0  0.11913347246E+03 -0.70446285536E+02 -0.19342112077E+03  0.23783858679E+03  0.00000000000E+00 0.  1.
          1    1    3    3  501    0 -0.11663099391E+03  0.52749330768E+02 -0.76859103048E+03  0.77917742060E+03  0.00000000000E+00 0.  1.
         21    1    1    2  502  501 -0.25024785475E+01  0.17696954769E+02 -0.28698844628E+01  0.18101956905E+02  0.00000000000E+00 0. -1.
<mgrwt>
<rscale>  1 0.30000000E+03</rscale>
<asrwt>0</asrwt>
<pdfrwt beam="1">  1        1 0.12770196E+00 0.30000000E+03</pdfrwt>
<pdfrwt beam="2">0</pdfrwt>
<totfact> 0.23551459E+01</totfact>
</mgrwt>
</event>
<event>
 6    1  0.1929825E-004  0.3000000E+03  0.7818608E-02  0.1093470E+00
          1   -1    0    0  502    0  0.00000000000E+00  0.00000000000E+00  0.39704461881E+02  0.39704461881E+02  0.00000000000E+00 0.  1.
         13   -1    0    0    0    0 -0.00000000000E+00 -0.00000000000E+00 -0.10000000000E+04  0.10000000000E+04  0.00000000000E+00 0.  1.
    9000005    2    1    2  501    0  0.10489114194E+02  0.10544736571E+00 -0.97664132101E+03  0.10202823803E+04  0.29502174998E+03 0.  0.
         13    1    3    3    0    0  0.10555785904E+03  0.45480449173E+02 -0.16072676810E+03  0.19759561444E+03  0.00000000000E+00 0.  1.
          1    1    3    3  501    0 -0.95068744841E+02 -0.45375001807E+02 -0.81591455290E+03  0.82268676583E+03  0.00000000000E+00 0.  1.
         21    1    1    2  502  501 -0.10489114194E+02 -0.10544736571E+00  0.16345782889E+02  0.19422081608E+02  0.00000000000E+00 0.  1.
<mgrwt>
<rscale>  1 0.30000000E+03</rscale>
<asrwt>0</asrwt>
<pdfrwt beam="1">  1        1 0.14438017E+00 0.30000000E+03</pdfrwt>
<pdfrwt beam="2">0</pdfrwt>
<totfact> 0.19197202E+01</totfact>
</mgrwt>
</event>
<event>
 6    1  0.1929825E-004  0.3000000E+03  0.7818608E-02  0.1093470E+00
          1   -1    0    0  502    0  0.00000000000E+00  0.00000000000E+00  0.43343564631E+02  0.43343564631E+02  0.00000000000E+00 0.  1.
         13   -1    0    0    0    0 -0.00000000000E+00 -0.00000000000E+00 -0.10000000000E+04  0.10000000000E+04  0.00000000000E+00 0.  1.
    9000005    2    1    2  501    0  0.83586158354E+01 -0.52165019242E+02 -0.85474017586E+03  0.92854818300E+03  0.35892882893E+03 0.  0.
         13    1    3    3    0    0 -0.55875023065E+02  0.12680569944E+03 -0.56676970088E+03  0.58346344997E+03  0.00000000000E+00 0.  1.
          3    1    3    3  501    0  0.64233638900E+02 -0.17897071868E+03 -0.28797047498E+03  0.34508473304E+03  0.00000000000E+00 0.  1.
         21    1    1    2  502  501 -0.83586158354E+01  0.52165019242E+02 -0.10191625951E+03  0.11479538163E+03  0.00000000000E+00 0.  1.
<mgrwt>
<rscale>  1 0.30000000E+03</rscale>
<asrwt>0</asrwt>
<pdfrwt beam="1">  1        1 0.15761329E+00 0.30000000E+03</pdfrwt>
<pdfrwt beam="2">0</pdfrwt>
<totfact> 0.16447012E+01</totfact>
</mgrwt>
</event>
<event>
 6    1  0.1929825E-004  0.3000000E+03  0.7818608E-02  0.1093470E+00
          1   -1    0    0  502    0  0.00000000000E+00  0.00000000000E+00  0.21815292389E+02  0.21815292389E+02  0.00000000000E+00 0.  1.
         13   -1    0    0    0    0 -0.00000000000E+00 -0.00000000000E+00 -0.10000000000E+04  0.10000000000E+04  0.00000000000E+00 0.  1.
    9000005    2    1    2  501    0  0.11731716783E+02  0.52402510984E+01 -0.94367419675E+03  0.98499045335E+03  0.28199310306E+03 0.  0.
         13    1    3    3    0    0  0.87165793806E+02  0.50967132723E+02 -0.85128498831E+03  0.85725238731E+03  0.00000000000E+00 0.  1.
          3    1    3    3  501    0 -0.75434077023E+02 -0.45726881624E+02 -0.92389208433E+02  0.12773806604E+03  0.00000000000E+00 0.  1.
         21    1    1    2  502  501 -0.11731716783E+02 -0.52402510984E+01 -0.34510510864E+02  0.36824839040E+02  0.00000000000E+00 0.  1.
<mgrwt>
<rscale>  1 0.30000000E+03</rscale>
<asrwt>0</asrwt>
<pdfrwt beam="1">  1        1 0.79328503E-01 0.30000000E+03</pdfrwt>
<pdfrwt beam="2">0</pdfrwt>
<totfact> 0.47515946E+01</totfact>
</mgrwt>
</event>
<event>
 6    1  0.1929825E-004  0.3000000E+03  0.7818608E-02  0.1093470E+00
          1   -1    0    0  502    0  0.00000000000E+00  0.00000000000E+00  0.75029077481E+02  0.75029077481E+02  0.00000000000E+00 0.  1.
         13   -1    0    0    0    0 -0.00000000000E+00 -0.00000000000E+00 -0.10000000000E+04  0.10000000000E+04  0.00000000000E+00 0.  1.
    9000005    2    1    2  501    0 -0.15000672682E+02 -0.14308485626E+02 -0.97063614199E+03  0.10248786516E+04  0.32834734281E+03 0.  0.
         13    1    3    3    0    0  0.46293118183E+02  0.13518466853E+03 -0.26593905915E+03  0.30189655609E+03  0.00000000000E+00 0.  1.
          3    1    3    3  501    0 -0.61293790865E+02 -0.14949315416E+03 -0.70469708284E+03  0.72298209556E+03  0.00000000000E+00 0.  1.
         21    1    1    2  502  501  0.15000672682E+02  0.14308485626E+02  0.45665219470E+02  0.50150425831E+02  0.00000000000E+00 0.  1.
<mgrwt>
<rscale>  1 0.30000000E+03</rscale>
<asrwt>0</asrwt>
<pdfrwt beam="1">  1        1 0.27283358E+00 0.30000000E+03</pdfrwt>
<pdfrwt beam="2">0</pdfrwt>
<totfact> 0.46636196E+00</totfact>
</mgrwt>
</event>
<event>
 6    1  0.1929825E-004  0.3000000E+03  0.7818608E-02  0.1093470E+00
          1   -1    0    0  502    0  0.00000000000E+00  0.00000000000E+00  0.36484765043E+02  0.36484765043E+02  0.00000000000E+00 0.  1.
         13   -1    0    0    0    0 -0.00000000000E+00 -0.00000000000E+00 -0.10000000000E+04  0.10000000000E+04  0.00000000000E+00 0.  1.
    9000005    2    1    2  501    0  0.12149194836E+02 -0.33820500858E+02 -0.92739342890E+03  0.98553170737E+03  0.33154599236E+03 0.  0.
         13    1    3    3    0    0 -0.11145242362E+03  0.10101426204E+03 -0.40356281598E+03  0.43068372423E+03  0.00000000000E+00 0.  1.
          1    1    3    3  501    0  0.12360161846E+03 -0.13483476290E+03 -0.52383061291E+03  0.55484798314E+03  0.00000000000E+00 0.  1.
         21    1    1    2  502  501 -0.12149194836E+02  0.33820500858E+02 -0.36121806062E+02  0.50953057677E+02  0.00000000000E+00 0. -1.
<mgrwt>
<rscale>  1 0.30000000E+03</rscale>
<asrwt>0</asrwt>
<pdfrwt beam="1">  1        1 0.13267215E+00 0.30000000E+03</pdfrwt>
<pdfrwt beam="2">0</pdfrwt>
<totfact> 0.22129741E+01</totfact>
</mgrwt>
</event>
<event>
 6    1  0.1929825E-004  0.3000000E+03  0.7818608E-02  0.1093470E+00
          1   -1    0    0  502    0  0.00000000000E+00  0.00000000000E+00  0.41411919913E+02  0.41411919913E+02  0.00000000000E+00 0.  1.
         13   -1    0    0    0    0 -0.00000000000E+00 -0.00000000000E+00 -0.10000000000E+04  0.10000000000E+04  0.00000000000E+00 0.  1.
    9000005    2    1    2  501    0  0.93556898305E+01  0.75191089171E+02 -0.83719246073E+03  0.89831011970E+03  0.31674694322E+03 0.  0.
         13    1    3    3    0    0  0.13045245394E+03 -0.58486054103E+02 -0.42435013441E+03  0.44778510230E+03  0.00000000000E+00 0.  1.
          3    1    3    3  501    0 -0.12109676411E+03  0.13367714327E+03 -0.41284232631E+03  0.45052501740E+03  0.00000000000E+00 0.  1.
         21    1    1    2  502  501 -0.93556898305E+01 -0.75191089171E+02 -0.12139561936E+03  0.14310180021E+03  0.00000000000E+00 0.  1.
<mgrwt>
<rscale>  1 0.30000000E+03</rscale>
<asrwt>0</asrwt>
<pdfrwt beam="1">  1        1 0.15058912E+00 0.30000000E+03</pdfrwt>
<pdfrwt beam="2">0</pdfrwt>
<totfact> 0.17841568E+01</totfact>
</mgrwt>
</event>
<event>
 6    1  0.1929825E-004  0.3000000E+03  0.7818608E-02  0.1093470E+00
          3   -1    0    0  502    0  0.00000000000E+00  0.00000000000E+00  0.29145188767E+02  0.29145188767E+02  0.00000000000E+00 0.  1.
         13   -1    0    0    0    0 -0.00000000000E+00 -0.00000000000E+00 -0.10000000000E+04  0.10000000000E+04  0.00000000000E+00 0.  1.
    9000005    2    1    2  501    0  0.11452049743E+02  0.69533512487E+01 -0.94709717963E+03  0.10018702260E+04  0.32645272776E+03 0.  0.
         13    1    3    3    0    0  0.93522570922E+02 -0.11524580397E+03 -0.26181913189E+03  0.30096066924E+03  0.00000000000E+00 0.  1.
          3    1    3    3  501    0 -0.82070521179E+02  0.12219915522E+03 -0.68527804774E+03  0.70090955672E+03  0.00000000000E+00 0.  1.
         21    1    1    2  502  501 -0.11452049743E+02 -0.69533512487E+01 -0.23757631601E+02  0.27274962808E+02  0.00000000000E+00 0.  1.
<mgrwt>
<rscale>  1 0.30000000E+03</rscale>
<asrwt>0</asrwt>
<pdfrwt beam="1">  1        3 0.10598273E+00 0.30000000E+03</pdfrwt>
<pdfrwt beam="2">0</pdfrwt>
<totfact> 0.33484322E+00</totfact>
</mgrwt>
</event>
<event>
 6    1  0.1929825E-004  0.3000000E+03  0.7818608E-02  0.1093470E+00
          1   -1    0    0  502    0  0.00000000000E+00  0.00000000000E+00  0.30914063103E+02  0.30914063103E+02  0.00000000000E+00 0.  1.
         13   -1    0    0    0    0 -0.00000000000E+00 -0.00000000000E+00 -0.10000000000E+04  0.10000000000E+04  0.00000000000E+00 0.  1.
    9000005    2    1    2  501    0 -0.98574029865E+01  0.61777575530E+01 -0.96355255906E+03  0.10180318524E+04  0.32835953675E+03 0.  0.
         13    1    3    3    0    0 -0.94588637530E+02 -0.17971744832E+02 -0.67326584881E+02  0.11748558632E+03  0.00000000000E+00 0.  1.
          1    1    3    3  501    0  0.84731234544E+02  0.24149502385E+02 -0.89622597418E+03  0.90054626609E+03  0.00000000000E+00 0.  1.
         21    1    1    2  502  501  0.98574029865E+01 -0.61777575530E+01 -0.55333778373E+01  0.12882210692E+02  0.00000000000E+00 0. -1.
<mgrwt>
<rscale>  1 0.30000000E+03</rscale>
<asrwt>0</asrwt>
<pdfrwt beam="1">  1        1 0.11241501E+00 0.30000000E+03</pdfrwt>
<pdfrwt beam="2">0</pdfrwt>
<totfact> 0.28747583E+01</totfact>
</mgrwt>
</event>
<event>
 6    1  0.1929825E-004  0.3000000E+03  0.7818608E-02  0.1093470E+00
          1   -1    0    0  502    0  0.00000000000E+00  0.00000000000E+00  0.35931556261E+02  0.35931556261E+02  0.00000000000E+00 0.  1.
         13   -1    0    0    0    0 -0.00000000000E+00 -0.00000000000E+00 -0.10000000000E+04  0.10000000000E+04  0.00000000000E+00 0.  1.
    9000005    2    1    2  501    0  0.97889243516E+01 -0.27213850059E+01 -0.97130719928E+03  0.10234564387E+04  0.32236962878E+03 0.  0.
         13    1    3    3    0    0 -0.61718534561E+02  0.11589649394E+03 -0.19627952309E+03  0.23615000741E+03  0.00000000000E+00 0.  1.
          1    1    3    3  501    0  0.71507458913E+02 -0.11861787894E+03 -0.77502767619E+03  0.78730643129E+03  0.00000000000E+00 0.  1.
         21    1    1    2  502  501 -0.97889243516E+01  0.27213850059E+01  0.72387555455E+01  0.12475117561E+02  0.00000000000E+00 0.  1.
<mgrwt>
<rscale>  1 0.30000000E+03</rscale>
<asrwt>0</asrwt>
<pdfrwt beam="1">  1        1 0.13066048E+00 0.30000000E+03</pdfrwt>
<pdfrwt beam="2">0</pdfrwt>
<totfact> 0.22691337E+01</totfact>
</mgrwt>
</event>
<event>
 6    1  0.1929825E-004  0.3000000E+03  0.7818608E-02  0.1093470E+00
          1   -1    0    0  502    0  0.00000000000E+00  0.00000000000E+00  0.37040411063E+02  0.37040411063E+02  0.00000000000E+00 0.  1.
         13   -1    0    0    0    0 -0.00000000000E+00 -0.00000000000E+00 -0.10000000000E+04  0.10000000000E+04  0.00000000000E+00 0.  1.
    9000005    2    1    2  501    0  0.66971208750E+01 -0.10569253363E+02 -0.96562135713E+03  0.10242480088E+04  0.34132509098E+03 0.  0.
         13    1    3    3    0    0 -0.10205687290E+03 -0.44313265814E+02 -0.86550007241E+03  0.87262228150E+03  0.00000000000E+00 0.  1.
          3    1    3    3  501    0  0.10875399377E+03  0.33744012451E+02 -0.10012128472E+03  0.15162572734E+03  0.00000000000E+00 0.  1.
         21    1    1    2  502  501 -0.66971208750E+01  0.10569253363E+02  0.26617681904E+01  0.12792402221E+02  0.00000000000E+00 0. -1.
<mgrwt>
<rscale>  1 0.30000000E+03</rscale>
<asrwt>0</asrwt>
<pdfrwt beam="1">  1        1 0.13469269E+00 0.30000000E+03</pdfrwt>
<pdfrwt beam="2">0</pdfrwt>
<totfact> 0.21583952E+01</totfact>
</mgrwt>
</event>
<event>
 6    1  0.1929825E-004  0.3000000E+03  0.7818608E-02  0.1093470E+00
          1   -1    0    0  502    0  0.00000000000E+00  0.00000000000E+00  0.30483344545E+02  0.30483344545E+02  0.00000000000E+00 0.  1.
         13   -1    0    0    0    0 -0.00000000000E+00 -0.00000000000E+00 -0.10000000000E+04  0.10000000000E+04  0.00000000000E+00 0.  1.
    9000005    2    1    2  501    0 -0.61944713709E+01 -0.70558778147E+01 -0.95414026088E+03  0.10124669521E+04  0.33855211524E+03 0.  0.
         13    1    3    3    0    0  0.98456552036E+02  0.30532864127E+02 -0.77918890340E+02  0.12921804016E+03  0.00000000000E+00 0.  1.
          1    1    3    3  501    0 -0.10465102341E+03 -0.37588741942E+02 -0.87622137054E+03  0.88324891192E+03  0.00000000000E+00 0.  1.
         21    1    1    2  502  501  0.61944713709E+01  0.70558778147E+01 -0.15376394580E+02  0.18016392468E+02  0.00000000000E+00 0.  1.
<mgrwt>
<rscale>  1 0.30000000E+03</rscale>
<asrwt>0</asrwt>
<pdfrwt beam="1">  1        1 0.11084876E+00 0.30000000E+03</pdfrwt>
<pdfrwt beam="2">0</pdfrwt>
<totfact> 0.29366405E+01</totfact>
</mgrwt>
</event>
<event>
 6    1  0.1929825E-004  0.3000000E+03  0.7818608E-02  0.1093470E+00
          1   -1    0    0  502    0  0.00000000000E+00  0.00000000000E+00  0.31708683756E+02  0.31708683756E+02  0.00000000000E+00 0.  1.
         13   -1    0    0    0    0 -0.00000000000E+00 -0.00000000000E+00 -0.10000000000E+04  0.10000000000E+04  0.00000000000E+00 0.  1.
    9000005    2    1    2  501    0  0.14461180277E+02 -0.61831866082E+01 -0.93019951501E+03  0.99049772826E+03  0.33995184134E+03 0.  0.
         13    1    3    3    0    0 -0.14226995546E+03 -0.50311547611E+02 -0.64186346324E+03  0.65936385820E+03  0.00000000000E+00 0.  1.
          3    1    3    3  501    0  0.15673113574E+03  0.44128361003E+02 -0.28833605176E+03  0.33113387006E+03  0.00000000000E+00 0.  1.
         21    1    1    2  502  501 -0.14461180277E+02  0.61831866082E+01 -0.38091801238E+02  0.41210955499E+02  0.00000000000E+00 0.  1.
<mgrwt>
<rscale>  1 0.30000000E+03</rscale>
<asrwt>0</asrwt>
<pdfrwt beam="1">  1        1 0.11530455E+00 0.30000000E+03</pdfrwt>
<pdfrwt beam="2">0</pdfrwt>
<totfact> 0.27653630E+01</totfact>
</mgrwt>
</event>
<event>
 6    1  0.1929825E-004  0.3000000E+03  0.7818608E-02  0.1093470E+00
          3   -1    0    0  502    0  0.00000000000E+00  0.00000000000E+00  0.38933594195E+02  0.38933594195E+02  0.00000000000E+00 0.  1.
         13   -1    0    0    0    0 -0.00000000000E+00 -0.00000000000E+00 -0.10000000000E+04  0.10000000000E+04  0.00000000000E+00 0.  1.
    9000005    2    1    2  501    0 -0.57349343155E+02 -0.23901409392E+02 -0.86277286794E+03  0.92265012969E+03  0.32100781242E+03 0.  0.
         13    1    3    3    0    0 -0.88297820776E+02 -0.12371820977E+03 -0.19748697326E+03  0.24920635062E+03  0.00000000000E+00 0.  1.
          3    1    3    3  501    0  0.30948477621E+02  0.99816800380E+02 -0.66528589468E+03  0.67344377907E+03  0.00000000000E+00 0.  1.
         21    1    1    2  502  501  0.57349343155E+02  0.23901409392E+02 -0.98293537869E+02  0.11628346451E+03  0.00000000000E+00 0. -1.
<mgrwt>
<rscale>  1 0.30000000E+03</rscale>
<asrwt>0</asrwt>
<pdfrwt beam="1">  1        3 0.14157700E+00 0.30000000E+03</pdfrwt>
<pdfrwt beam="2">0</pdfrwt>
<totfact> 0.12790789E+00</totfact>
</mgrwt>
</event>
<event>
 6    1  0.1929825E-004  0.3000000E+03  0.7818608E-02  0.1093470E+00
          1   -1    0    0  502    0  0.00000000000E+00  0.00000000000E+00  0.35428970557E+02  0.35428970557E+02  0.00000000000E+00 0.  1.
         13   -1    0    0    0    0 -0.00000000000E+00 -0.00000000000E+00 -0.10000000000E+04  0.10000000000E+04  0.00000000000E+00 0.  1.
    9000005    2    1    2  501    0 -0.18668166397E+02  0.35083861290E+01 -0.96486241037E+03  0.10164317573E+04  0.31908186573E+03 0.  0.
         13    1    3    3    0    0  0.94940341148E+00 -0.11970230799E+03 -0.80397503151E+03  0.81283786526E+03  0.00000000000E+00 0.  1.
          3    1    3    3  501    0 -0.19617569808E+02  0.12321069411E+03 -0.16088737885E+03  0.20359389201E+03  0.00000000000E+00 0.  1.
         21    1    1    2  502  501  0.18668166397E+02 -0.35083861290E+01  0.29138092425E+00  0.18997213287E+02  0.00000000000E+00 0.  1.
<mgrwt>
<rscale>  1 0.30000000E+03</rscale>
<asrwt>0</asrwt>
<pdfrwt beam="1">  1        1 0.12883289E+00 0.30000000E+03</pdfrwt>
<pdfrwt beam="2">0</pdfrwt>
<totfact> 0.23217766E+01</totfact>
</mgrwt>
</event>
<event>
 6    1  0.1929825E-004  0.3000000E+03  0.7818608E-02  0.1093470E+00
          1   -1    0    0  502    0  0.00000000000E+00  0.00000000000E+00  0.48073546194E+02  0.48073546194E+02  0.00000000000E+00 0.  1.
         13   -1    0    0    0    0 -0.00000000000E+00 -0.00000000000E+00 -0.10000000000E+04  0.10000000000E+04  0.00000000000E+00 0.  1.
    9000005    2    1    2  501    0  0.19188627804E+02  0.33737567315E+01 -0.96834011999E+03  0.10225981834E+04  0.32809277814E+03 0.  0.
         13    1    3    3    0    0 -0.46167807634E+02  0.12530841611E+03 -0.76556187846E+03  0.77712203376E+03  0.00000000000E+00 0.  1.
          3    1    3    3  501    0  0.65356435438E+02 -0.12193465937E+03 -0.20277824153E+03  0.24547614965E+03  0.00000000000E+00 0.  1.
         21    1    1    2  502  501 -0.19188627804E+02 -0.33737567315E+01  0.16413666180E+02  0.25475362783E+02  0.00000000000E+00 0.  1.
<mgrwt>
<rscale>  1 0.30000000E+03</rscale>
<asrwt>0</asrwt>
<pdfrwt beam="1">  1        1 0.17481326E+00 0.30000000E+03</pdfrwt>
<pdfrwt beam="2">0</pdfrwt>
<totfact> 0.13536107E+01</totfact>
</mgrwt>
</event>
<event>
 6    1  0.1929825E-004  0.3000000E+03  0.7818608E-02  0.1093470E+00
          1   -1    0    0  502    0  0.00000000000E+00  0.00000000000E+00  0.30990702880E+02  0.30990702880E+02  0.00000000000E+00 0.  1.
         13   -1    0    0    0    0 -0.00000000000E+00 -0.00000000000E+00 -0.10000000000E+04  0.10000000000E+04  0.00000000000E+00 0.  1.
    9000005    2    1    2  501    0  0.13914046333E+02 -0.67482645095E+01 -0.96160196949E+03  0.10138440338E+04  0.32087729322E+03 0.  0.
         13    1    3    3    0    0 -0.11912414452E+03  0.13693549712E+02 -0.77238423824E+03  0.78163641585E+03  0.00000000000E+00 0.  1.
          3    1    3    3  501    0  0.13303819085E+03 -0.20441814221E+02 -0.18921773125E+03  0.23220761791E+03  0.00000000000E+00 0.  1.
         21    1    1    2  502  501 -0.13914046333E+02  0.67482645095E+01 -0.74073276308E+01  0.17146669119E+02  0.00000000000E+00 0.  1.
<mgrwt>
<rscale>  1 0.30000000E+03</rscale>
<asrwt>0</asrwt>
<pdfrwt beam="1">  1        1 0.11269370E+00 0.30000000E+03</pdfrwt>
<pdfrwt beam="2">0</pdfrwt>
<totfact> 0.28639418E+01</totfact>
</mgrwt>
</event>
<event>
 6    1  0.1929825E-004  0.3000000E+03  0.7818608E-02  0.1093470E+00
          1   -1    0    0  502    0  0.00000000000E+00  0.00000000000E+00  0.32791743152E+02  0.32791743152E+02  0.00000000000E+00 0.  1.
         13   -1    0    0    0    0 -0.00000000000E+00 -0.00000000000E+00 -0.10000000000E+04  0.10000000000E+04  0.00000000000E+00 0.  1.
    9000005    2    1    2  501    0  0.26705100431E+01 -0.27071288644E+02 -0.89152308987E+03  0.95236643126E+03  0.33383890325E+03 0.  0.
         13    1    3    3    0    0 -0.16081847364E+03  0.24307631427E+02 -0.39876924196E+03  0.43066268789E+03  0.00000000000E+00 0.  1.
          1    1    3    3  501    0  0.16348898368E+03 -0.51378920070E+02 -0.49275384791E+03  0.52170374337E+03  0.00000000000E+00 0.  1.
         21    1    1    2  502  501 -0.26705100431E+01  0.27071288644E+02 -0.75685166977E+02  0.80425311892E+02  0.00000000000E+00 0.  1.
<mgrwt>
<rscale>  1 0.30000000E+03</rscale>
<asrwt>0</asrwt>
<pdfrwt beam="1">  1        1 0.11924295E+00 0.30000000E+03</pdfrwt>
<pdfrwt beam="2">0</pdfrwt>
<totfact> 0.26253948E+01</totfact>
</mgrwt>
</event>
<event>
 6    1  0.1929825E-004  0.3000000E+03  0.7818608E-02  0.1093470E+00
          1   -1    0    0  502    0  0.00000000000E+00  0.00000000000E+00  0.28553188568E+02  0.28553188568E+02  0.00000000000E+00 0.  1.
         13   -1    0    0    0    0 -0.00000000000E+00 -0.00000000000E+00 -0.10000000000E+04  0.10000000000E+04  0.00000000000E+00 0.  1.
    9000005    2    1    2  501    0 -0.10943715397E+02  0.70518620370E+01 -0.94079008113E+03  0.99524660097E+03  0.32443847848E+03 0.  0.
         13    1    3    3    0    0 -0.11382769254E+03 -0.41690835564E+02 -0.82132545844E+03  0.83022308932E+03  0.00000000000E+00 0.  1.
          3    1    3    3  501    0  0.10288397714E+03  0.48742697601E+02 -0.11946462270E+03  0.16502351165E+03  0.00000000000E+00 0.  1.
         21    1    1    2  502  501  0.10943715397E+02 -0.70518620370E+01 -0.30656730298E+02  0.33306587598E+02  0.00000000000E+00 0. -1.
<mgrwt>
<rscale>  1 0.30000000E+03</rscale>
<asrwt>0</asrwt>
<pdfrwt beam="1">  1        1 0.10383000E+00 0.30000000E+03</pdfrwt>
<pdfrwt beam="2">0</pdfrwt>
<totfact> 0.32386265E+01</totfact>
</mgrwt>
</event>
<event>
 6    1  0.1929825E-004  0.3000000E+03  0.7818608E-02  0.1093470E+00
          1   -1    0    0  502    0  0.00000000000E+00  0.00000000000E+00  0.31097238454E+02  0.31097238454E+02  0.00000000000E+00 0.  1.
         13   -1    0    0    0    0 -0.00000000000E+00 -0.00000000000E+00 -0.10000000000E+04  0.10000000000E+04  0.00000000000E+00 0.  1.
    9000005    2    1    2  501    0  0.91309331369E+01 -0.47627761132E+01 -0.96757060668E+03  0.10207129901E+04  0.32489393866E+03 0.  0.
         13    1    3    3    0    0 -0.32020875948E+02  0.82286160891E+02 -0.57068774643E+02  0.10513417052E+03  0.00000000000E+00 0.  1.
          1    1    3    3  501    0  0.41151809084E+02 -0.87048937004E+02 -0.91050183204E+03  0.91557881963E+03  0.00000000000E+00 0.  1.
         21    1    1    2  502  501 -0.91309331369E+01  0.47627761132E+01 -0.13321548679E+01  0.10384248304E+02  0.00000000000E+00 0. -1.
<mgrwt>
<rscale>  1 0.30000000E+03</rscale>
<asrwt>0</asrwt>
<pdfrwt beam="1">  1        1 0.11308111E+00 0.30000000E+03</pdfrwt>
<pdfrwt beam="2">0</pdfrwt>
<totfact> 0.28490025E+01</totfact>
</mgrwt>
</event>
<event>
 6    1  0.1929825E-004  0.3000000E+03  0.7818608E-02  0.1093470E+00
          1   -1    0    0  502    0  0.00000000000E+00  0.00000000000E+00  0.67679462575E+02  0.67679462575E+02  0.00000000000E+00 0.  1.
         13   -1    0    0    0    0 -0.00000000000E+00 -0.00000000000E+00 -0.10000000000E+04  0.10000000000E+04  0.00000000000E+00 0.  1.
    9000005    2    1    2  501    0  0.33245364542E+02 -0.14167781747E+02 -0.96314629448E+03  0.10201799089E+04  0.33438044444E+03 0.  0.
         13    1    3    3    0    0 -0.10032815557E+02 -0.63782403644E+02 -0.10683743223E+02  0.65444593145E+02  0.00000000000E+00 0.  1.
          3    1    3    3  501    0  0.43278180099E+02  0.49614621897E+02 -0.95246255125E+03  0.95473531574E+03  0.00000000000E+00 0.  1.
         21    1    1    2  502  501 -0.33245364542E+02  0.14167781747E+02  0.30825757051E+02  0.47499553692E+02  0.00000000000E+00 0.  1.
<mgrwt>
<rscale>  1 0.30000000E+03</rscale>
<asrwt>0</asrwt>
<pdfrwt beam="1">  1        1 0.24610766E+00 0.30000000E+03</pdfrwt>
<pdfrwt beam="2">0</pdfrwt>
<totfact> 0.62205813E+00</totfact>
</mgrwt>
</event>
<event>
 6    1  0.1929825E-004  0.3000000E+03  0.7818608E-02  0.1093470E+00
          1   -1    0    0  502    0  0.00000000000E+00  0.00000000000E+00  0.28974593267E+02  0.28974593267E+02  0.00000000000E+00 0.  1.
         13   -1    0    0    0    0 -0.00000000000E+00 -0.00000000000E+00 -0.10000000000E+04  0.10000000000E+04  0.00000000000E+00 0.  1.
    9000005    2    1    2  501    0 -0.98378990994E+01  0.89019620270E+00 -0.96289133627E+03  0.10161785075E+04  0.32459429599E+03 0.  0.
         13    1    3    3    0    0 -0.55731022918E+02 -0.35353131104E+02 -0.95487479874E+03  0.95715289900E+03  0.00000000000E+00 0.  1.
          1    1    3    3  501    0  0.45893123819E+02  0.36243327307E+02 -0.80165375298E+01  0.59025608527E+02  0.00000000000E+00 0.  1.
         21    1    1    2  502  501  0.98378990994E+01 -0.89019620270E+00 -0.81340704617E+01  0.12796085739E+02  0.00000000000E+00 0. -1.
<mgrwt>
<rscale>  1 0.30000000E+03</rscale>
<asrwt>0</asrwt>
<pdfrwt beam="1">  1        1 0.10536238E+00 0.30000000E+03</pdfrwt>
<pdfrwt beam="2">0</pdfrwt>
<totfact> 0.31690059E+01</totfact>
</mgrwt>
</event>
<event>
 6    1  0.1929825E-004  0.3000000E+03  0.7818608E-02  0.1093470E+00
          1   -1    0    0  502    0  0.00000000000E+00  0.00000000000E+00  0.11099401366E+03  0.11099401366E+03  0.00000000000E+00 0.  1.
         13   -1    0    0    0    0 -0.00000000000E+00 -0.00000000000E+00 -0.10000000000E+04  0.10000000000E+04  0.00000000000E+00 0.  1.
    9000005    2    1    2  501    0  0.15451060513E+02 -0.29504726836E+02 -0.96995940636E+03  0.10234570478E+04  0.32485968439E+03 0.  0.
         13    1    3    3    0    0  0.65147802837E+02  0.70392900831E+02 -0.86490368898E+03  0.87020560095E+03  0.00000000000E+00 0.  1.
          3    1    3    3  501    0 -0.49696742324E+02 -0.99897627667E+02 -0.10505571738E+03  0.15325144686E+03  0.00000000000E+00 0.  1.
         21    1    1    2  502  501 -0.15451060513E+02  0.29504726836E+02  0.80953420021E+02  0.87536965847E+02  0.00000000000E+00 0.  1.
<mgrwt>
<rscale>  1 0.30000000E+03</rscale>
<asrwt>0</asrwt>
<pdfrwt beam="1">  1        1 0.40361545E+00 0.30000000E+03</pdfrwt>
<pdfrwt beam="2">0</pdfrwt>
<totfact> 0.10040441E+00</totfact>
</mgrwt>
</event>
<event>
 6    1  0.1929825E-004  0.3000000E+03  0.7818608E-02  0.1093470E+00
          1   -1    0    0  502    0  0.00000000000E+00  0.00000000000E+00  0.19942372206E+02  0.19942372206E+02  0.00000000000E+00 0.  1.
         13   -1    0    0    0    0 -0.00000000000E+00 -0.00000000000E+00 -0.10000000000E+04  0.10000000000E+04  0.00000000000E+00 0.  1.
    9000005    2    1    2  501    0 -0.55102436162E+01  0.10400706661E+02 -0.98418829050E+03  0.10074684050E+04  0.21500571714E+03 0.  0.
         13    1    3    3    0    0 -0.70075259131E+02 -0.22795941194E+02 -0.86341631852E+03  0.86655521230E+03  0.00000000000E+00 0.  1.
          1    1    3    3  501    0  0.64565015514E+02  0.33196647855E+02 -0.12077197198E+03  0.14091319269E+03  0.00000000000E+00 0.  1.
         21    1    1    2  502  501  0.55102436162E+01 -0.10400706661E+02  0.41306627076E+01  0.12473967218E+02  0.00000000000E+00 0.  1.
<mgrwt>
<rscale>  1 0.30000000E+03</rscale>
<asrwt>0</asrwt>
<pdfrwt beam="1">  1        1 0.72517870E-01 0.30000000E+03</pdfrwt>
<pdfrwt beam="2">0</pdfrwt>
<totfact> 0.53739032E+01</totfact>
</mgrwt>
</event>
<event>
 6    1  0.1929825E-004  0.3000000E+03  0.7818608E-02  0.1093470E+00
          1   -1    0    0  502    0  0.00000000000E+00  0.00000000000E+00  0.35709143444E+02  0.35709143444E+02  0.00000000000E+00 0.  1.
         13   -1    0    0    0    0 -0.00000000000E+00 -0.00000000000E+00 -0.10000000000E+04  0.10000000000E+04  0.00000000000E+00 0.  1.
    9000005    2    1    2  501    0  0.89559052483E+01 -0.66264706913E+01 -0.96497771454E+03  0.10245471487E+04  0.34407957221E+03 0.  0.
         13    1    3    3    0    0 -0.10419675052E+03 -0.10408176114E+03 -0.74002976945E+03  0.75454226885E+03  0.00000000000E+00 0.  1.
          3    1    3    3  501    0  0.11315265577E+03  0.97455290448E+02 -0.22494794509E+03  0.27000487985E+03  0.00000000000E+00 0.  1.
         21    1    1    2  502  501 -0.89559052483E+01  0.66264706913E+01  0.68685798166E+00  0.11161994738E+02  0.00000000000E+00 0.  1.
<mgrwt>
<rscale>  1 0.30000000E+03</rscale>
<asrwt>0</asrwt>
<pdfrwt beam="1">  1        1 0.12985170E+00 0.30000000E+03</pdfrwt>
<pdfrwt beam="2">0</pdfrwt>
<totfact> 0.22922369E+01</totfact>
</mgrwt>
</event>
<event>
 6    1  0.1929825E-004  0.3000000E+03  0.7818608E-02  0.1093470E+00
          1   -1    0    0  502    0  0.00000000000E+00  0.00000000000E+00  0.36498842502E+02  0.36498842502E+02  0.00000000000E+00 0.  1.
         13   -1    0    0    0    0 -0.00000000000E+00 -0.00000000000E+00 -0.10000000000E+04  0.10000000000E+04  0.00000000000E+00 0.  1.
    9000005    2    1    2  501    0 -0.10255770792E+02  0.30572599749E+02 -0.94231421231E+03  0.99791450194E+03  0.32685992991E+03 0.  0.
         13    1    3    3    0    0 -0.14171293140E+03  0.29110306441E+01 -0.20986154208E+03  0.25324473513E+03  0.00000000000E+00 0.  1.
          3    1    3    3  501    0  0.13145716061E+03  0.27661569105E+02 -0.73245267022E+03  0.74466976681E+03  0.00000000000E+00 0.  1.
         21    1    1    2  502  501  0.10255770792E+02 -0.30572599749E+02 -0.21186945191E+02  0.38584340560E+02  0.00000000000E+00 0. -1.
<mgrwt>
<rscale>  1 0.30000000E+03</rscale>
<asrwt>0</asrwt>
<pdfrwt beam="1">  1        1 0.13272334E+00 0.30000000E+03</pdfrwt>
<pdfrwt beam="2">0</pdfrwt>
<totfact> 0.22115689E+01</totfact>
</mgrwt>
</event>
<event>
 6    1  0.1929825E-004  0.3000000E+03  0.7818608E-02  0.1093470E+00
          3   -1    0    0  502    0  0.00000000000E+00  0.00000000000E+00  0.33036879254E+02  0.33036879254E+02  0.00000000000E+00 0.  1.
         13   -1    0    0    0    0 -0.00000000000E+00 -0.00000000000E+00 -0.10000000000E+04  0.10000000000E+04  0.00000000000E+00 0.  1.
    9000005    2    1    2  501    0  0.13559562162E+02 -0.29457621853E+02 -0.90548053094E+03  0.96352628970E+03  0.32777477910E+03 0.  0.
         13    1    3    3    0    0 -0.13925436029E+02 -0.17205411613E+03 -0.36312472431E+03  0.40206479832E+03  0.00000000000E+00 0.  1.
          3    1    3    3  501    0  0.27484998190E+02  0.14259649428E+03 -0.54235580664E+03  0.56146149138E+03  0.00000000000E+00 0.  1.
         21    1    1    2  502  501 -0.13559562162E+02  0.29457621853E+02 -0.61482589802E+02  0.69510589554E+02  0.00000000000E+00 0. -1.
<mgrwt>
<rscale>  1 0.30000000E+03</rscale>
<asrwt>0</asrwt>
<pdfrwt beam="1">  1        3 0.12013436E+00 0.30000000E+03</pdfrwt>
<pdfrwt beam="2">0</pdfrwt>
<totfact> 0.23047053E+00</totfact>
</mgrwt>
</event>
<event>
 6    1  0.1929825E-004  0.3000000E+03  0.7818608E-02  0.1093470E+00
          1   -1    0    0  502    0  0.00000000000E+00  0.00000000000E+00  0.38018947417E+02  0.38018947417E+02  0.00000000000E+00 0.  1.
         13   -1    0    0    0    0 -0.00000000000E+00 -0.00000000000E+00 -0.10000000000E+04  0.10000000000E+04  0.00000000000E+00 0.  1.
    9000005    2    1    2  501    0  0.32823895124E+02 -0.39821376135E+02 -0.81422313923E+03  0.88150840130E+03  0.33381820054E+03 0.  0.
         13    1    3    3    0    0 -0.16578199093E+02 -0.14483661120E+03 -0.15751357955E+03  0.21462294466E+03  0.00000000000E+00 0.  1.
          1    1    3    3  501    0  0.49402094217E+02  0.10501523506E+03 -0.65670955968E+03  0.66688545664E+03  0.00000000000E+00 0.  1.
         21    1    1    2  502  501 -0.32823895124E+02  0.39821376135E+02 -0.14775791335E+03  0.15651054612E+03  0.00000000000E+00 0.  1.
<mgrwt>
<rscale>  1 0.30000000E+03</rscale>
<asrwt>0</asrwt>
<pdfrwt beam="1">  1        1 0.13825101E+00 0.30000000E+03</pdfrwt>
<pdfrwt beam="2">0</pdfrwt>
<totfact> 0.20665301E+01</totfact>
</mgrwt>
</event>
<event>
 6    1  0.1929825E-004  0.3000000E+03  0.7818608E-02  0.1093470E+00
          1   -1    0    0  502    0  0.00000000000E+00  0.00000000000E+00  0.40766437576E+02  0.40766437576E+02  0.00000000000E+00 0.  1.
         13   -1    0    0    0    0 -0.00000000000E+00 -0.00000000000E+00 -0.10000000000E+04  0.10000000000E+04  0.00000000000E+00 0.  1.
    9000005    2    1    2  501    0  0.25020693510E+02  0.29603700085E+02 -0.94049927452E+03  0.99771544797E+03  0.33074887089E+03 0.  0.
         13    1    3    3    0    0 -0.61186549412E+02 -0.58231617851E+02 -0.48774974095E+02  0.97538265540E+02  0.00000000000E+00 0.  1.
          3    1    3    3  501    0  0.86207242923E+02  0.87835317936E+02 -0.89172430042E+03  0.90017718243E+03  0.00000000000E+00 0.  1.
         21    1    1    2  502  501 -0.25020693510E+02 -0.29603700085E+02 -0.18734287905E+02  0.43050989602E+02  0.00000000000E+00 0.  1.
<mgrwt>
<rscale>  1 0.30000000E+03</rscale>
<asrwt>0</asrwt>
<pdfrwt beam="1">  1        1 0.14824190E+00 0.30000000E+03</pdfrwt>
<pdfrwt beam="2">0</pdfrwt>
<totfact> 0.18339523E+01</totfact>
</mgrwt>
</event>
<event>
 6    1  0.1929825E-004  0.3000000E+03  0.7818608E-02  0.1093470E+00
          1   -1    0    0  502    0  0.00000000000E+00  0.00000000000E+00  0.16277267781E+02  0.16277267781E+02  0.00000000000E+00 0.  1.
         13   -1    0    0    0    0 -0.00000000000E+00 -0.00000000000E+00 -0.10000000000E+04  0.10000000000E+04  0.00000000000E+00 0.  1.
    9000005    2    1    2  501    0  0.10078186041E+02  0.73087387600E+01 -0.98212721078E+03  0.10037260453E+04  0.20672960222E+03 0.  0.
         13    1    3    3    0    0  0.82368877680E+02  0.70778897079E+02 -0.44564430862E+03  0.45868631339E+03  0.00000000000E+00 0.  1.
          1    1    3    3  501    0 -0.72290691639E+02 -0.63470158319E+02 -0.53648290216E+03  0.54503973195E+03  0.00000000000E+00 0.  1.
         21    1    1    2  502  501 -0.10078186041E+02 -0.73087387600E+01 -0.15955214362E+01  0.12551222442E+02  0.00000000000E+00 0. -1.
<mgrwt>
<rscale>  1 0.30000000E+03</rscale>
<asrwt>0</asrwt>
<pdfrwt beam="1">  1        1 0.59190189E-01 0.30000000E+03</pdfrwt>
<pdfrwt beam="2">0</pdfrwt>
<totfact> 0.70607249E+01</totfact>
</mgrwt>
</event>
<event>
 6    1  0.1929825E-004  0.3000000E+03  0.7818608E-02  0.1093470E+00
          1   -1    0    0  502    0  0.00000000000E+00  0.00000000000E+00  0.50255603984E+02  0.50255603984E+02  0.00000000000E+00 0.  1.
         13   -1    0    0    0    0 -0.00000000000E+00 -0.00000000000E+00 -0.10000000000E+04  0.10000000000E+04  0.00000000000E+00 0.  1.
    9000005    2    1    2  501    0 -0.45504758778E+02 -0.25315351781E+02 -0.95759538615E+03  0.99759453532E+03  0.27476241229E+03 0.  0.
         13    1    3    3    0    0 -0.56008893350E+02 -0.13957945180E+03 -0.37938284004E+03  0.40810630823E+03  0.00000000000E+00 0.  1.
          3    1    3    3  501    0  0.10504134572E+02  0.11426410002E+03 -0.57821254611E+03  0.58948822708E+03  0.00000000000E+00 0.  1.
         21    1    1    2  502  501  0.45504758778E+02  0.25315351781E+02  0.78509901332E+01  0.52661068669E+02  0.00000000000E+00 0.  1.
<mgrwt>
<rscale>  1 0.30000000E+03</rscale>
<asrwt>0</asrwt>
<pdfrwt beam="1">  1        1 0.18274804E+00 0.30000000E+03</pdfrwt>
<pdfrwt beam="2">0</pdfrwt>
<totfact> 0.12389960E+01</totfact>
</mgrwt>
</event>
<event>
 6    1  0.1929825E-004  0.3000000E+03  0.7818608E-02  0.1093470E+00
          1   -1    0    0  502    0  0.00000000000E+00  0.00000000000E+00  0.28924770240E+02  0.28924770240E+02  0.00000000000E+00 0.  1.
         13   -1    0    0    0    0 -0.00000000000E+00 -0.00000000000E+00 -0.10000000000E+04  0.10000000000E+04  0.00000000000E+00 0.  1.
    9000005    2    1    2  501    0  0.14494346406E+02  0.24562358680E+01 -0.94755812298E+03  0.10011907932E+04  0.32295586192E+03 0.  0.
         13    1    3    3    0    0  0.93479601345E+02  0.96748579190E+02 -0.78965576825E+03  0.80103367955E+03  0.00000000000E+00 0.  1.
          3    1    3    3  501    0 -0.78985254939E+02 -0.94292343322E+02 -0.15790235474E+03  0.20015711363E+03  0.00000000000E+00 0.  1.
         21    1    1    2  502  501 -0.14494346406E+02 -0.24562358680E+01 -0.23517106779E+02  0.27733977061E+02  0.00000000000E+00 0.  1.
<mgrwt>
<rscale>  1 0.30000000E+03</rscale>
<asrwt>0</asrwt>
<pdfrwt beam="1">  1        1 0.10518120E+00 0.30000000E+03</pdfrwt>
<pdfrwt beam="2">0</pdfrwt>
<totfact> 0.31771236E+01</totfact>
</mgrwt>
</event>
<event>
 6    1  0.1929825E-004  0.3000000E+03  0.7818608E-02  0.1093470E+00
          1   -1    0    0  502    0  0.00000000000E+00  0.00000000000E+00  0.36985229835E+02  0.36985229835E+02  0.00000000000E+00 0.  1.
         13   -1    0    0    0    0 -0.00000000000E+00 -0.00000000000E+00 -0.10000000000E+04  0.10000000000E+04  0.00000000000E+00 0.  1.
    9000005    2    1    2  501    0 -0.39792806364E+01  0.52575142979E+02 -0.86022808179E+03  0.92146430688E+03  0.32607381958E+03 0.  0.
         13    1    3    3    0    0  0.88389922741E+01 -0.27221291778E+02  0.21652514265E+02  0.35888130133E+02  0.00000000000E+00 0.  1.
          1    1    3    3  501    0 -0.12818272911E+02  0.79796434757E+02 -0.88188059606E+03  0.88557617675E+03  0.00000000000E+00 0.  1.
         21    1    1    2  502  501  0.39792806364E+01 -0.52575142979E+02 -0.10278668837E+03  0.11552092296E+03  0.00000000000E+00 0. -1.
<mgrwt>
<rscale>  1 0.30000000E+03</rscale>
<asrwt>0</asrwt>
<pdfrwt beam="1">  1        1 0.13449203E+00 0.30000000E+03</pdfrwt>
<pdfrwt beam="2">0</pdfrwt>
<totfact> 0.21637351E+01</totfact>
</mgrwt>
</event>
<event>
 6    1  0.1929825E-004  0.3000000E+03  0.7818608E-02  0.1093470E+00
          1   -1    0    0  502    0  0.00000000000E+00  0.00000000000E+00  0.28759490547E+02  0.28759490547E+02  0.00000000000E+00 0.  1.
         13   -1    0    0    0    0 -0.00000000000E+00 -0.00000000000E+00 -0.10000000000E+04  0.10000000000E+04  0.00000000000E+00 0.  1.
    9000005    2    1    2  501    0 -0.29557829722E+01  0.93216137338E+01 -0.95422548336E+03  0.10091345001E+04  0.32819283530E+03 0.  0.
         13    1    3    3    0    0  0.98234590671E+02 -0.12483876915E+03 -0.41662005617E+03  0.44587781318E+03  0.00000000000E+00 0.  1.
          1    1    3    3  501    0 -0.10119037364E+03  0.13416038288E+03 -0.53760542719E+03  0.56325668695E+03  0.00000000000E+00 0.  1.
         21    1    1    2  502  501  0.29557829722E+01 -0.93216137338E+01 -0.17015026095E+02  0.19624990410E+02  0.00000000000E+00 0. -1.
<mgrwt>
<rscale>  1 0.30000000E+03</rscale>
<asrwt>0</asrwt>
<pdfrwt beam="1">  1        1 0.10458019E+00 0.30000000E+03</pdfrwt>
<pdfrwt beam="2">0</pdfrwt>
<totfact> 0.32042692E+01</totfact>
</mgrwt>
</event>
<event>
 6    1  0.1929825E-004  0.3000000E+03  0.7818608E-02  0.1093470E+00
          1   -1    0    0  502    0  0.00000000000E+00  0.00000000000E+00  0.47886141883E+02  0.47886141883E+02  0.00000000000E+00 0.  1.
         13   -1    0    0    0    0 -0.00000000000E+00 -0.00000000000E+00 -0.10000000000E+04  0.10000000000E+04  0.00000000000E+00 0.  1.
    9000005    2    1    2  501    0  0.64673467969E+02 -0.51557722298E+02 -0.86132698644E+03  0.92507281909E+03  0.32716156078E+03 0.  0.
         13    1    3    3    0    0  0.19016198431E+03  0.25091562567E+01 -0.61058546614E+03  0.63951738648E+03  0.00000000000E+00 0.  1.
          1    1    3    3  501    0 -0.12548851634E+03 -0.54066878555E+02 -0.25074152030E+03  0.28555543261E+03  0.00000000000E+00 0.  1.
         21    1    1    2  502  501 -0.64673467969E+02  0.51557722298E+02 -0.90786871675E+02  0.12281332280E+03  0.00000000000E+00 0. -1.
<mgrwt>
<rscale>  1 0.30000000E+03</rscale>
<asrwt>0</asrwt>
<pdfrwt beam="1">  1        1 0.17413179E+00 0.30000000E+03</pdfrwt>
<pdfrwt beam="2">0</pdfrwt>
<totfact> 0.13639775E+01</totfact>
</mgrwt>
</event>
<event>
 6    1  0.1929825E-004  0.3000000E+03  0.7818608E-02  0.1093470E+00
          1   -1    0    0  502    0  0.00000000000E+00  0.00000000000E+00  0.31995596486E+02  0.31995596486E+02  0.00000000000E+00 0.  1.
         13   -1    0    0    0    0 -0.00000000000E+00 -0.00000000000E+00 -0.10000000000E+04  0.10000000000E+04  0.00000000000E+00 0.  1.
    9000005    2    1    2  501    0  0.11100469753E+02 -0.16933659525E+02 -0.94553337424E+03  0.10017480113E+04  0.33023589609E+03 0.  0.
         13    1    3    3    0    0  0.67002106803E+02 -0.67138492121E+02 -0.91618677668E+03  0.92108363855E+03  0.00000000000E+00 0.  1.
          3    1    3    3  501    0 -0.55901637050E+02  0.50204832596E+02 -0.29346597560E+02  0.80664372738E+02  0.00000000000E+00 0.  1.
         21    1    1    2  502  501 -0.11100469753E+02  0.16933659525E+02 -0.22471029272E+02  0.30247585196E+02  0.00000000000E+00 0.  1.
<mgrwt>
<rscale>  1 0.30000000E+03</rscale>
<asrwt>0</asrwt>
<pdfrwt beam="1">  1        1 0.11634787E+00 0.30000000E+03</pdfrwt>
<pdfrwt beam="2">0</pdfrwt>
<totfact> 0.27273016E+01</totfact>
</mgrwt>
</event>
<event>
 6    1  0.1929825E-004  0.3000000E+03  0.7818608E-02  0.1093470E+00
          1   -1    0    0  502    0  0.00000000000E+00  0.00000000000E+00  0.27497513878E+02  0.27497513878E+02  0.00000000000E+00 0.  1.
         13   -1    0    0    0    0 -0.00000000000E+00 -0.00000000000E+00 -0.10000000000E+04  0.10000000000E+04  0.00000000000E+00 0.  1.
    9000005    2    1    2  501    0  0.88441875547E+01  0.18423115303E+01 -0.94298464235E+03  0.99662816231E+03  0.32243765977E+03 0.  0.
         13    1    3    3    0    0 -0.91992802339E+02  0.84733877269E+02 -0.76908430839E+03  0.77918751213E+03  0.00000000000E+00 0.  1.
          1    1    3    3  501    0  0.10083698989E+03 -0.82891565739E+02 -0.17390033396E+03  0.21744065019E+03  0.00000000000E+00 0.  1.
         21    1    1    2  502  501 -0.88441875547E+01 -0.18423115303E+01 -0.29517843769E+02  0.30869351565E+02  0.00000000000E+00 0.  1.
<mgrwt>
<rscale>  1 0.30000000E+03</rscale>
<asrwt>0</asrwt>
<pdfrwt beam="1">  1        1 0.99991170E-01 0.30000000E+03</pdfrwt>
<pdfrwt beam="2">0</pdfrwt>
<totfact> 0.34231369E+01</totfact>
</mgrwt>
</event>
<event>
 6    1  0.1929825E-004  0.3000000E+03  0.7818608E-02  0.1093470E+00
          1   -1    0    0  502    0  0.00000000000E+00  0.00000000000E+00  0.35053318097E+02  0.35053318097E+02  0.00000000000E+00 0.  1.
         13   -1    0    0    0    0 -0.00000000000E+00 -0.00000000000E+00 -0.10000000000E+04  0.10000000000E+04  0.00000000000E+00 0.  1.
    9000005    2    1    2  501    0  0.36485592569E+02 -0.38327498237E+02 -0.80213511821E+03  0.86385810538E+03  0.31627501130E+03 0.  0.
         13    1    3    3    0    0 -0.51040446650E+02 -0.12470831086E+03 -0.66974584033E+03  0.68316672974E+03  0.00000000000E+00 0.  1.
          3    1    3    3  501    0  0.87526039219E+02  0.86380812621E+02 -0.13238927789E+03  0.18069137564E+03  0.00000000000E+00 0.  1.
         21    1    1    2  502  501 -0.36485592569E+02  0.38327498237E+02 -0.16281156369E+03  0.17119521272E+03  0.00000000000E+00 0.  1.
<mgrwt>
<rscale>  1 0.30000000E+03</rscale>
<asrwt>0</asrwt>
<pdfrwt beam="1">  1        1 0.12746688E+00 0.30000000E+03</pdfrwt>
<pdfrwt beam="2">0</pdfrwt>
<totfact> 0.23621594E+01</totfact>
</mgrwt>
</event>
<event>
 6    1  0.1929825E-004  0.3000000E+03  0.7818608E-02  0.1093470E+00
          1   -1    0    0  502    0  0.00000000000E+00  0.00000000000E+00  0.96083978981E+02  0.96083978981E+02  0.00000000000E+00 0.  1.
         13   -1    0    0    0    0 -0.00000000000E+00 -0.00000000000E+00 -0.10000000000E+04  0.10000000000E+04  0.00000000000E+00 0.  1.
    9000005    2    1    2  501    0 -0.68443380524E+02  0.33985559070E+02 -0.95021374944E+03  0.10067363757E+04  0.32368572084E+03 0.  0.
         13    1    3    3    0    0  0.11915797437E+03  0.62298983158E+02 -0.50898506055E+03  0.52644617771E+03  0.00000000000E+00 0.  1.
          1    1    3    3  501    0 -0.18760135490E+03 -0.28313424088E+02 -0.44122868889E+03  0.48029019795E+03  0.00000000000E+00 0.  1.
         21    1    1    2  502  501  0.68443380524E+02 -0.33985559070E+02  0.46297728424E+02  0.89347603326E+02  0.00000000000E+00 0.  1.
<mgrwt>
<rscale>  1 0.30000000E+03</rscale>
<asrwt>0</asrwt>
<pdfrwt beam="1">  1        1 0.34939702E+00 0.30000000E+03</pdfrwt>
<pdfrwt beam="2">0</pdfrwt>
<totfact> 0.19830914E+00</totfact>
</mgrwt>
</event>
<event>
 6    1  0.1929825E-004  0.3000000E+03  0.7818608E-02  0.1093470E+00
          1   -1    0    0  502    0  0.00000000000E+00  0.00000000000E+00  0.29705522089E+02  0.29705522089E+02  0.00000000000E+00 0.  1.
         13   -1    0    0    0    0 -0.00000000000E+00 -0.00000000000E+00 -0.10000000000E+04  0.10000000000E+04  0.00000000000E+00 0.  1.
    9000005    2    1    2  501    0  0.25225047546E+01 -0.99931920957E+01 -0.95835704302E+03  0.10139343690E+04  0.33092061855E+03 0.  0.
         13    1    3    3    0    0  0.10377260916E+02 -0.15116363188E+03 -0.72836554798E+03  0.74395866998E+03  0.00000000000E+00 0.  1.
          1    1    3    3  501    0 -0.78547561611E+01  0.14117043979E+03 -0.22999149504E+03  0.26997569901E+03  0.00000000000E+00 0.  1.
         21    1    1    2  502  501 -0.25225047546E+01  0.99931920957E+01 -0.11937434892E+02  0.15771153107E+02  0.00000000000E+00 0. -1.
<mgrwt>
<rscale>  1 0.30000000E+03</rscale>
<asrwt>0</asrwt>
<pdfrwt beam="1">  1        1 0.10802031E+00 0.30000000E+03</pdfrwt>
<pdfrwt beam="2">0</pdfrwt>
<totfact> 0.30532721E+01</totfact>
</mgrwt>
</event>
<event>
 6    1  0.1929825E-004  0.3000000E+03  0.7818608E-02  0.1093470E+00
          1   -1    0    0  502    0  0.00000000000E+00  0.00000000000E+00  0.34304315303E+02  0.34304315303E+02  0.00000000000E+00 0.  1.
         13   -1    0    0    0    0 -0.00000000000E+00 -0.00000000000E+00 -0.10000000000E+04  0.10000000000E+04  0.00000000000E+00 0.  1.
    9000005    2    1    2  501    0 -0.44035398762E+02 -0.25883195313E+02 -0.88835804601E+03  0.94162116419E+03  0.30799568630E+03 0.  0.
         13    1    3    3    0    0  0.10389374493E+03  0.73494017267E+02 -0.27731720330E+03  0.30512310967E+03  0.00000000000E+00 0.  1.
          1    1    3    3  501    0 -0.14792914370E+03 -0.99377212580E+02 -0.61104084272E+03  0.63649805452E+03  0.00000000000E+00 0.  1.
         21    1    1    2  502  501  0.44035398762E+02  0.25883195313E+02 -0.77337638683E+02  0.92683151116E+02  0.00000000000E+00 0. -1.
<mgrwt>
<rscale>  1 0.30000000E+03</rscale>
<asrwt>0</asrwt>
<pdfrwt beam="1">  1        1 0.12474323E+00 0.30000000E+03</pdfrwt>
<pdfrwt beam="2">0</pdfrwt>
<totfact> 0.24453995E+01</totfact>
</mgrwt>
</event>
<event>
 6    1  0.1929825E-004  0.3000000E+03  0.7818608E-02  0.1093470E+00
          1   -1    0    0  502    0  0.00000000000E+00  0.00000000000E+00  0.32279066590E+02  0.32279066590E+02  0.00000000000E+00 0.  1.
         13   -1    0    0    0    0 -0.00000000000E+00 -0.00000000000E+00 -0.10000000000E+04  0.10000000000E+04  0.00000000000E+00 0.  1.
    9000005    2    1    2  501    0 -0.15518476668E+02  0.27301286989E+02 -0.89723040300E+03  0.95510978341E+03  0.32592348627E+03 0.  0.
         13    1    3    3    0    0 -0.19449335902E+02  0.42595150895E+02 -0.92337766699E+03  0.92456418893E+03  0.00000000000E+00 0.  1.
          1    1    3    3  501    0  0.39308592341E+01 -0.15293863906E+02  0.26147263996E+02  0.30545594477E+02  0.00000000000E+00 0.  1.
         21    1    1    2  502  501  0.15518476668E+02 -0.27301286989E+02 -0.70490530412E+02  0.77169283184E+02  0.00000000000E+00 0. -1.
<mgrwt>
<rscale>  1 0.30000000E+03</rscale>
<asrwt>0</asrwt>
<pdfrwt beam="1">  1        1 0.11737867E+00 0.30000000E+03</pdfrwt>
<pdfrwt beam="2">0</pdfrwt>
<totfact> 0.26904062E+01</totfact>
</mgrwt>
</event>
<event>
 6    1  0.1929825E-004  0.3000000E+03  0.7818608E-02  0.1093470E+00
          1   -1    0    0  502    0  0.00000000000E+00  0.00000000000E+00  0.32382051110E+02  0.32382051110E+02  0.00000000000E+00 0.  1.
         13   -1    0    0    0    0 -0.00000000000E+00 -0.00000000000E+00 -0.10000000000E+04  0.10000000000E+04  0.00000000000E+00 0.  1.
    9000005    2    1    2  501    0  0.88875522623E-01 -0.23990878435E+02 -0.95839962869E+03  0.10066809310E+04  0.30708480659E+03 0.  0.
         13    1    3    3    0    0  0.10098670370E+03 -0.12459714238E+03 -0.41505603346E+03  0.44496547408E+03  0.00000000000E+00 0.  1.
          3    1    3    3  501    0 -0.10089782817E+03  0.10060626395E+03 -0.54334359524E+03  0.56171545694E+03  0.00000000000E+00 0.  1.
         21    1    1    2  502  501 -0.88875522623E-01  0.23990878435E+02 -0.92183201972E+01  0.25701120096E+02  0.00000000000E+00 0.  1.
<mgrwt>
<rscale>  1 0.30000000E+03</rscale>
<asrwt>0</asrwt>
<pdfrwt beam="1">  1        1 0.11775316E+00 0.30000000E+03</pdfrwt>
<pdfrwt beam="2">0</pdfrwt>
<totfact> 0.26771722E+01</totfact>
</mgrwt>
</event>
<event>
 6    1  0.1929825E-004  0.3000000E+03  0.7818608E-02  0.1093470E+00
          1   -1    0    0  502    0  0.00000000000E+00  0.00000000000E+00  0.19395548433E+02  0.19395548433E+02  0.00000000000E+00 0.  1.
         13   -1    0    0    0    0 -0.00000000000E+00 -0.00000000000E+00 -0.10000000000E+04  0.10000000000E+04  0.00000000000E+00 0.  1.
    9000005    2    1    2  501    0 -0.50806456716E+01  0.18198393825E+02 -0.95913271073E+03  0.99079432201E+03  0.24775156354E+03 0.  0.
         13    1    3    3    0    0 -0.70254490498E+02  0.10858045191E+03 -0.39086723127E+03  0.41170693515E+03  0.00000000000E+00 0.  1.
          3    1    3    3  501    0  0.65173844826E+02 -0.90382058083E+02 -0.56826547946E+03  0.57908738686E+03  0.00000000000E+00 0.  1.
         21    1    1    2  502  501  0.50806456716E+01 -0.18198393825E+02 -0.21471740837E+02  0.28601226421E+02  0.00000000000E+00 0.  1.
<mgrwt>
<rscale>  1 0.30000000E+03</rscale>
<asrwt>0</asrwt>
<pdfrwt beam="1">  1        1 0.70529416E-01 0.30000000E+03</pdfrwt>
<pdfrwt beam="2">0</pdfrwt>
<totfact> 0.55810375E+01</totfact>
</mgrwt>
</event>
<event>
 6    1  0.1929825E-004  0.3000000E+03  0.7818608E-02  0.1093470E+00
          1   -1    0    0  502    0  0.00000000000E+00  0.00000000000E+00  0.32663803514E+02  0.32663803514E+02  0.00000000000E+00 0.  1.
         13   -1    0    0    0    0 -0.00000000000E+00 -0.00000000000E+00 -0.10000000000E+04  0.10000000000E+04  0.00000000000E+00 0.  1.
    9000005    2    1    2  501    0  0.99770327727E+01 -0.10217620078E+02 -0.95530084203E+03  0.10139878644E+04  0.33965828347E+03 0.  0.
         13    1    3    3    0    0 -0.48348653669E+02  0.12511623329E+03 -0.74629086815E+03  0.75824911740E+03  0.00000000000E+00 0.  1.
          3    1    3    3  501    0  0.58325686441E+02 -0.13533385336E+03 -0.20900997387E+03  0.25573874705E+03  0.00000000000E+00 0.  1.
         21    1    1    2  502  501 -0.99770327727E+01  0.10217620078E+02 -0.12035354459E+02  0.18675939065E+02  0.00000000000E+00 0. -1.
<mgrwt>
<rscale>  1 0.30000000E+03</rscale>
<asrwt>0</asrwt>
<pdfrwt beam="1">  1        1 0.11877772E+00 0.30000000E+03</pdfrwt>
<pdfrwt beam="2">0</pdfrwt>
<totfact> 0.26414168E+01</totfact>
</mgrwt>
</event>
<event>
 6    1  0.1929825E-004  0.3000000E+03  0.7818608E-02  0.1093470E+00
          1   -1    0    0  502    0  0.00000000000E+00  0.00000000000E+00  0.31093291440E+02  0.31093291440E+02  0.00000000000E+00 0.  1.
         13   -1    0    0    0    0 -0.00000000000E+00 -0.00000000000E+00 -0.10000000000E+04  0.10000000000E+04  0.00000000000E+00 0.  1.
    9000005    2    1    2  501    0  0.38860898326E+01  0.95877709821E+01 -0.96648150718E+03  0.10204674433E+04  0.32735343606E+03 0.  0.
         13    1    3    3    0    0  0.85129929605E+02  0.12850754400E+03 -0.70784475997E+03  0.72443460574E+03  0.00000000000E+00 0.  1.
          3    1    3    3  501    0 -0.81243839772E+02 -0.11891977302E+03 -0.25863674721E+03  0.29603283757E+03  0.00000000000E+00 0.  1.
         21    1    1    2  502  501 -0.38860898326E+01 -0.95877709821E+01 -0.24252013783E+01  0.10625848122E+02  0.00000000000E+00 0. -1.
<mgrwt>
<rscale>  1 0.30000000E+03</rscale>
<asrwt>0</asrwt>
<pdfrwt beam="1">  1        1 0.11306675E+00 0.30000000E+03</pdfrwt>
<pdfrwt beam="2">0</pdfrwt>
<totfact> 0.28495540E+01</totfact>
</mgrwt>
</event>
<event>
 6    1  0.1929825E-004  0.3000000E+03  0.7818608E-02  0.1093470E+00
          1   -1    0    0  502    0  0.00000000000E+00  0.00000000000E+00  0.60531034105E+02  0.60531034105E+02  0.00000000000E+00 0.  1.
         13   -1    0    0    0    0 -0.00000000000E+00 -0.00000000000E+00 -0.10000000000E+04  0.10000000000E+04  0.00000000000E+00 0.  1.
    9000005    2    1    2  501    0  0.15986339535E+02 -0.99375778683E+02 -0.89490796021E+03  0.95045473480E+03  0.30392900030E+03 0.  0.
         13    1    3    3    0    0 -0.55212764550E+01  0.10932532618E+03 -0.34125882667E+03  0.35838540459E+03  0.00000000000E+00 0.  1.
          3    1    3    3  501    0  0.21507615990E+02 -0.20870110486E+03 -0.55364913354E+03  0.59206933022E+03  0.00000000000E+00 0.  1.
         21    1    1    2  502  501 -0.15986339535E+02  0.99375778683E+02 -0.44561005686E+02  0.11007629930E+03  0.00000000000E+00 0.  1.
<mgrwt>
<rscale>  1 0.30000000E+03</rscale>
<asrwt>0</asrwt>
<pdfrwt beam="1">  1        1 0.22011332E+00 0.30000000E+03</pdfrwt>
<pdfrwt beam="2">0</pdfrwt>
<totfact> 0.82331949E+00</totfact>
</mgrwt>
</event>
<event>
 6    1  0.1929825E-004  0.3000000E+03  0.7818608E-02  0.1093470E+00
          1   -1    0    0  502    0  0.00000000000E+00  0.00000000000E+00  0.36161009438E+02  0.36161009438E+02  0.00000000000E+00 0.  1.
         13   -1    0    0    0    0 -0.00000000000E+00 -0.00000000000E+00 -0.10000000000E+04  0.10000000000E+04  0.00000000000E+00 0.  1.
    9000005    2    1    2  501    0 -0.20464659779E+02 -0.14687997540E+01 -0.94587062049E+03  0.10088879092E+04  0.35037497483E+03 0.  0.
         13    1    3    3    0    0  0.88964717592E+02 -0.12073205534E+03 -0.22732270454E+03  0.27233538544E+03  0.00000000000E+00 0.  1.
          3    1    3    3  501    0 -0.10942937737E+03  0.11926325559E+03 -0.71854791595E+03  0.73655252378E+03  0.00000000000E+00 0.  1.
         21    1    1    2  502  501  0.20464659779E+02  0.14687997540E+01 -0.17968370069E+02  0.27273100218E+02  0.00000000000E+00 0.  1.
<mgrwt>
<rscale>  1 0.30000000E+03</rscale>
<asrwt>0</asrwt>
<pdfrwt beam="1">  1        1 0.13149486E+00 0.30000000E+03</pdfrwt>
<pdfrwt beam="2">0</pdfrwt>
<totfact> 0.22456165E+01</totfact>
</mgrwt>
</event>
<event>
 6    1  0.1929825E-004  0.3000000E+03  0.7818608E-02  0.1093470E+00
          1   -1    0    0  502    0  0.00000000000E+00  0.00000000000E+00  0.30520859310E+02  0.30520859310E+02  0.00000000000E+00 0.  1.
         13   -1    0    0    0    0 -0.00000000000E+00 -0.00000000000E+00 -0.10000000000E+04  0.10000000000E+04  0.00000000000E+00 0.  1.
    9000005    2    1    2  501    0 -0.63615615469E+01  0.75024733397E+01 -0.96623384063E+03  0.10201628410E+04  0.32715077676E+03 0.  0.
         13    1    3    3    0    0  0.54366566754E+02  0.15640394211E+03 -0.52806765068E+03  0.55341969642E+03  0.00000000000E+00 0.  1.
          3    1    3    3  501    0 -0.60728128301E+02 -0.14890146877E+03 -0.43816618995E+03  0.46674314455E+03  0.00000000000E+00 0.  1.
         21    1    1    2  502  501  0.63615615469E+01 -0.75024733397E+01 -0.32453000587E+01  0.10358018343E+02  0.00000000000E+00 0.  1.
<mgrwt>
<rscale>  1 0.30000000E+03</rscale>
<asrwt>0</asrwt>
<pdfrwt beam="1">  1        1 0.11098518E+00 0.30000000E+03</pdfrwt>
<pdfrwt beam="2">0</pdfrwt>
<totfact> 0.29311762E+01</totfact>
</mgrwt>
</event>
<event>
 6    1  0.1929825E-004  0.3000000E+03  0.7818608E-02  0.1093470E+00
          1   -1    0    0  502    0  0.00000000000E+00  0.00000000000E+00  0.33728933717E+02  0.33728933717E+02  0.00000000000E+00 0.  1.
         13   -1    0    0    0    0 -0.00000000000E+00 -0.00000000000E+00 -0.10000000000E+04  0.10000000000E+04  0.00000000000E+00 0.  1.
    9000005    2    1    2  501    0  0.12868722343E+02 -0.38463607694E+02 -0.89922912080E+03  0.95537285172E+03  0.32012375885E+03 0.  0.
         13    1    3    3    0    0  0.78953588472E+02  0.95694493530E+01 -0.86188288629E+03  0.86554454141E+03  0.00000000000E+00 0.  1.
          1    1    3    3  501    0 -0.66084866129E+02 -0.48033057047E+02 -0.37346234509E+02  0.89828310307E+02  0.00000000000E+00 0.  1.
         21    1    1    2  502  501 -0.12868722343E+02  0.38463607694E+02 -0.67041945487E+02  0.78356081999E+02  0.00000000000E+00 0.  1.
<mgrwt>
<rscale>  1 0.30000000E+03</rscale>
<asrwt>0</asrwt>
<pdfrwt beam="1">  1        1 0.12265093E+00 0.30000000E+03</pdfrwt>
<pdfrwt beam="2">0</pdfrwt>
<totfact> 0.25119015E+01</totfact>
</mgrwt>
</event>
<event>
 6    1  0.1929825E-004  0.3000000E+03  0.7818608E-02  0.1093470E+00
          1   -1    0    0  502    0  0.00000000000E+00  0.00000000000E+00  0.31287446403E+02  0.31287446403E+02  0.00000000000E+00 0.  1.
         13   -1    0    0    0    0 -0.00000000000E+00 -0.00000000000E+00 -0.10000000000E+04  0.10000000000E+04  0.00000000000E+00 0.  1.
    9000005    2    1    2  501    0  0.10487441951E+02  0.11733431400E+02 -0.96098421235E+03  0.10137549877E+04  0.32242961833E+03 0.  0.
         13    1    3    3    0    0  0.92580811036E+02  0.89260552271E+02 -0.83388463801E+03  0.84374299539E+03  0.00000000000E+00 0.  1.
          1    1    3    3  501    0 -0.82093369085E+02 -0.77527120871E+02 -0.12709957434E+03  0.17001199227E+03  0.00000000000E+00 0.  1.
         21    1    1    2  502  501 -0.10487441951E+02 -0.11733431400E+02 -0.77283412497E+01  0.17532458743E+02  0.00000000000E+00 0. -1.
<mgrwt>
<rscale>  1 0.30000000E+03</rscale>
<asrwt>0</asrwt>
<pdfrwt beam="1">  1        1 0.11377277E+00 0.30000000E+03</pdfrwt>
<pdfrwt beam="2">0</pdfrwt>
<totfact> 0.28226049E+01</totfact>
</mgrwt>
</event>
<event>
 6    1  0.1929825E-004  0.3000000E+03  0.7818608E-02  0.1093470E+00
          1   -1    0    0  502    0  0.00000000000E+00  0.00000000000E+00  0.55698269834E+02  0.55698269834E+02  0.00000000000E+00 0.  1.
         13   -1    0    0    0    0 -0.00000000000E+00 -0.00000000000E+00 -0.10000000000E+04  0.10000000000E+04  0.00000000000E+00 0.  1.
    9000005    2    1    2  501    0 -0.46367847669E+02  0.27611005000E+02 -0.94261848121E+03  0.10017058794E+04  0.33462325512E+03 0.  0.
         13    1    3    3    0    0  0.13480969864E+03  0.55509427200E+02 -0.53973972460E+03  0.55908310801E+03  0.00000000000E+00 0.  1.
          3    1    3    3  501    0 -0.18117754631E+03 -0.27898422200E+02 -0.40287875661E+03  0.44262277142E+03  0.00000000000E+00 0.  1.
         21    1    1    2  502  501  0.46367847669E+02 -0.27611005000E+02 -0.16832489554E+01  0.53992390404E+02  0.00000000000E+00 0. -1.
<mgrwt>
<rscale>  1 0.30000000E+03</rscale>
<asrwt>0</asrwt>
<pdfrwt beam="1">  1        1 0.20253959E+00 0.30000000E+03</pdfrwt>
<pdfrwt beam="2">0</pdfrwt>
<totfact> 0.99628095E+00</totfact>
</mgrwt>
</event>
<event>
 6    1  0.1929825E-004  0.3000000E+03  0.7818608E-02  0.1093470E+00
          1   -1    0    0  502    0  0.00000000000E+00  0.00000000000E+00  0.47643246010E+02  0.47643246010E+02  0.00000000000E+00 0.  1.
         13   -1    0    0    0    0 -0.00000000000E+00 -0.00000000000E+00 -0.10000000000E+04  0.10000000000E+04  0.00000000000E+00 0.  1.
    9000005    2    1    2  501    0  0.11700915295E+02 -0.32276876393E+02 -0.94716568094E+03  0.10129206970E+04  0.35736088644E+03 0.  0.
         13    1    3    3    0    0  0.12352791867E+03 -0.12316768923E+03 -0.27634753801E+03  0.32679869664E+03  0.00000000000E+00 0.  1.
          1    1    3    3  501    0 -0.11182700337E+03  0.90890812836E+02 -0.67081814292E+03  0.68612200039E+03  0.00000000000E+00 0.  1.
         21    1    1    2  502  501 -0.11700915295E+02  0.32276876393E+02 -0.51910730542E+01  0.34722548983E+02  0.00000000000E+00 0. -1.
<mgrwt>
<rscale>  1 0.30000000E+03</rscale>
<asrwt>0</asrwt>
<pdfrwt beam="1">  1        1 0.17324853E+00 0.30000000E+03</pdfrwt>
<pdfrwt beam="2">0</pdfrwt>
<totfact> 0.13775411E+01</totfact>
</mgrwt>
</event>
<event>
 6    1  0.1929825E-004  0.3000000E+03  0.7818608E-02  0.1093470E+00
          1   -1    0    0  502    0  0.00000000000E+00  0.00000000000E+00  0.31678182444E+02  0.31678182444E+02  0.00000000000E+00 0.  1.
         13   -1    0    0    0    0 -0.00000000000E+00 -0.00000000000E+00 -0.10000000000E+04  0.10000000000E+04  0.00000000000E+00 0.  1.
    9000005    2    1    2  501    0  0.42932796550E+01  0.23153084738E+02 -0.93825329379E+03  0.99348638091E+03  0.32579356679E+03 0.  0.
         13    1    3    3    0    0 -0.12971475289E+03  0.21864947490E+02 -0.75547516172E+03  0.76684203916E+03  0.00000000000E+00 0.  1.
          3    1    3    3  501    0  0.13400803254E+03  0.12881372478E+01 -0.18277813207E+03  0.22664434175E+03  0.00000000000E+00 0.  1.
         21    1    1    2  502  501 -0.42932796550E+01 -0.23153084738E+02 -0.30068523766E+02  0.38191801536E+02  0.00000000000E+00 0.  1.
<mgrwt>
<rscale>  1 0.30000000E+03</rscale>
<asrwt>0</asrwt>
<pdfrwt beam="1">  1        1 0.11519363E+00 0.30000000E+03</pdfrwt>
<pdfrwt beam="2">0</pdfrwt>
<totfact> 0.27694527E+01</totfact>
</mgrwt>
</event>
<event>
 6    1  0.1929825E-004  0.3000000E+03  0.7818608E-02  0.1093470E+00
          1   -1    0    0  502    0  0.00000000000E+00  0.00000000000E+00  0.33857934023E+02  0.33857934023E+02  0.00000000000E+00 0.  1.
         13   -1    0    0    0    0 -0.00000000000E+00 -0.00000000000E+00 -0.10000000000E+04  0.10000000000E+04  0.00000000000E+00 0.  1.
    9000005    2    1    2  501    0 -0.75818697595E+01 -0.24006484013E+02 -0.94916168811E+03  0.10034913528E+04  0.32473556767E+03 0.  0.
         13    1    3    3    0    0  0.37664468227E+02  0.11322412234E+03 -0.73823729993E+03  0.74781857764E+03  0.00000000000E+00 0.  1.
          3    1    3    3  501    0 -0.45246337986E+02 -0.13723060636E+03 -0.21092438818E+03  0.25567277515E+03  0.00000000000E+00 0.  1.
         21    1    1    2  502  501  0.75818697595E+01  0.24006484013E+02 -0.16980377864E+02  0.30366581238E+02  0.00000000000E+00 0.  1.
<mgrwt>
<rscale>  1 0.30000000E+03</rscale>
<asrwt>0</asrwt>
<pdfrwt beam="1">  1        1 0.12312002E+00 0.30000000E+03</pdfrwt>
<pdfrwt beam="2">0</pdfrwt>
<totfact> 0.24967899E+01</totfact>
</mgrwt>
</event>
<event>
 6    1  0.1929825E-004  0.3000000E+03  0.7818608E-02  0.1093470E+00
          1   -1    0    0  502    0  0.00000000000E+00  0.00000000000E+00  0.42901744063E+02  0.42901744063E+02  0.00000000000E+00 0.  1.
         13   -1    0    0    0    0 -0.00000000000E+00 -0.00000000000E+00 -0.10000000000E+04  0.10000000000E+04  0.00000000000E+00 0.  1.
    9000005    2    1    2  501    0  0.20428330251E+01  0.22118307642E+02 -0.96626553331E+03  0.10188719360E+04  0.32239346840E+03 0.  0.
         13    1    3    3    0    0  0.11622545995E+03 -0.32951446134E+02 -0.80366554657E+03  0.81269457122E+03  0.00000000000E+00 0.  1.
          3    1    3    3  501    0 -0.11418262693E+03  0.55069753775E+02 -0.16259998674E+03  0.20617736481E+03  0.00000000000E+00 0.  1.
         21    1    1    2  502  501 -0.20428330251E+01 -0.22118307642E+02  0.91672773723E+01  0.24029808033E+02  0.00000000000E+00 0.  1.
<mgrwt>
<rscale>  1 0.30000000E+03</rscale>
<asrwt>0</asrwt>
<pdfrwt beam="1">  1        1 0.15600667E+00 0.30000000E+03</pdfrwt>
<pdfrwt beam="2">0</pdfrwt>
<totfact> 0.16754066E+01</totfact>
</mgrwt>
</event>
<event>
 6    1  0.1929825E-004  0.3000000E+03  0.7818608E-02  0.1093470E+00
          1   -1    0    0  502    0  0.00000000000E+00  0.00000000000E+00  0.47824123509E+02  0.47824123509E+02  0.00000000000E+00 0.  1.
         13   -1    0    0    0    0 -0.00000000000E+00 -0.00000000000E+00 -0.10000000000E+04  0.10000000000E+04  0.00000000000E+00 0.  1.
    9000005    2    1    2  501    0  0.25586960180E+02  0.52406705672E+02 -0.90583908226E+03  0.97333752182E+03  0.35134076495E+03 0.  0.
         13    1    3    3    0    0  0.13374190883E+03  0.71878286471E+02 -0.16435541281E+03  0.22375452613E+03  0.00000000000E+00 0.  1.
          3    1    3    3  501    0 -0.10815494865E+03 -0.19471580800E+02 -0.74148366945E+03  0.74958299569E+03  0.00000000000E+00 0.  1.
         21    1    1    2  502  501 -0.25586960180E+02 -0.52406705672E+02 -0.46336794235E+02  0.74486601685E+02  0.00000000000E+00 0. -1.
<mgrwt>
<rscale>  1 0.30000000E+03</rscale>
<asrwt>0</asrwt>
<pdfrwt beam="1">  1        1 0.17390627E+00 0.30000000E+03</pdfrwt>
<pdfrwt beam="2">0</pdfrwt>
<totfact> 0.13674270E+01</totfact>
</mgrwt>
</event>
<event>
 6    1  0.1929825E-004  0.3000000E+03  0.7818608E-02  0.1093470E+00
          1   -1    0    0  502    0  0.00000000000E+00  0.00000000000E+00  0.34889034678E+02  0.34889034678E+02  0.00000000000E+00 0.  1.
         13   -1    0    0    0    0 -0.00000000000E+00 -0.00000000000E+00 -0.10000000000E+04  0.10000000000E+04  0.00000000000E+00 0.  1.
    9000005    2    1    2  501    0 -0.10377043992E+02  0.71370933861E+01 -0.96945206798E+03  0.10215673863E+04  0.32187573912E+03 0.  0.
         13    1    3    3    0    0 -0.10176813450E+03  0.11675183943E+03 -0.30628244196E+03  0.34321520867E+03  0.00000000000E+00 0.  1.
          1    1    3    3  501    0  0.91391090512E+02 -0.10961474605E+03 -0.66316962602E+03  0.67835217760E+03  0.00000000000E+00 0.  1.
         21    1    1    2  502  501  0.10377043992E+02 -0.71370933861E+01  0.43411026579E+01  0.13321648407E+02  0.00000000000E+00 0. -1.
<mgrwt>
<rscale>  1 0.30000000E+03</rscale>
<asrwt>0</asrwt>
<pdfrwt beam="1">  1        1 0.12686948E+00 0.30000000E+03</pdfrwt>
<pdfrwt beam="2">0</pdfrwt>
<totfact> 0.23801036E+01</totfact>
</mgrwt>
</event>
<event>
 6    1  0.1929825E-004  0.3000000E+03  0.7818608E-02  0.1093470E+00
          1   -1    0    0  502    0  0.00000000000E+00  0.00000000000E+00  0.33613354047E+02  0.33613354047E+02  0.00000000000E+00 0.  1.
         13   -1    0    0    0    0 -0.00000000000E+00 -0.00000000000E+00 -0.10000000000E+04  0.10000000000E+04  0.00000000000E+00 0.  1.
    9000005    2    1    2  501    0  0.11310316668E+02 -0.59013064850E+01 -0.96543242734E+03  0.10208204179E+04  0.33143899169E+03 0.  0.
         13    1    3    3    0    0 -0.40309701997E+02 -0.16140504617E+03 -0.53443048431E+03  0.55972529294E+03  0.00000000000E+00 0.  1.
          1    1    3    3  501    0  0.51620018666E+02  0.15550373969E+03 -0.43100194304E+03  0.46109512498E+03  0.00000000000E+00 0.  1.
         21    1    1    2  502  501 -0.11310316668E+02  0.59013064850E+01 -0.95421860993E+00  0.12792936118E+02  0.00000000000E+00 0. -1.
<mgrwt>
<rscale>  1 0.30000000E+03</rscale>
<asrwt>0</asrwt>
<pdfrwt beam="1">  1        1 0.12223064E+00 0.30000000E+03</pdfrwt>
<pdfrwt beam="2">0</pdfrwt>
<totfact> 0.25255426E+01</totfact>
</mgrwt>
</event>
<event>
 6    1  0.1929825E-004  0.3000000E+03  0.7818608E-02  0.1093470E+00
          1   -1    0    0  502    0  0.00000000000E+00  0.00000000000E+00  0.43446933167E+02  0.43446933167E+02  0.00000000000E+00 0.  1.
         13   -1    0    0    0    0 -0.00000000000E+00 -0.00000000000E+00 -0.10000000000E+04  0.10000000000E+04  0.00000000000E+00 0.  1.
    9000005    2    1    2  501    0  0.30910170990E+01 -0.35384889217E+02 -0.95431298363E+03  0.10078567274E+04  0.32218048905E+03 0.  0.
         13    1    3    3    0    0 -0.75891250115E+02 -0.43515078286E+02 -0.51410050857E+02  0.10146939051E+03  0.00000000000E+00 0.  1.
          3    1    3    3  501    0  0.78982267214E+02  0.81301890692E+01 -0.90290293277E+03  0.90638733692E+03  0.00000000000E+00 0.  1.
         21    1    1    2  502  501 -0.30910170990E+01  0.35384889217E+02 -0.22400832013E+01  0.35590205736E+02  0.00000000000E+00 0. -1.
<mgrwt>
<rscale>  1 0.30000000E+03</rscale>
<asrwt>0</asrwt>
<pdfrwt beam="1">  1        1 0.15798918E+00 0.30000000E+03</pdfrwt>
<pdfrwt beam="2">0</pdfrwt>
<totfact> 0.16376139E+01</totfact>
</mgrwt>
</event>
<event>
 6    1  0.1929825E-004  0.3000000E+03  0.7818608E-02  0.1093470E+00
          1   -1    0    0  502    0  0.00000000000E+00  0.00000000000E+00  0.39732587956E+02  0.39732587956E+02  0.00000000000E+00 0.  1.
         13   -1    0    0    0    0 -0.00000000000E+00 -0.00000000000E+00 -0.10000000000E+04  0.10000000000E+04  0.00000000000E+00 0.  1.
    9000005    2    1    2  501    0  0.19521082743E+01  0.68983908220E+02 -0.84919100417E+03  0.90896348340E+03  0.31674384330E+03 0.  0.
         13    1    3    3    0    0  0.96663075611E+02  0.48058297866E+02 -0.81736458883E+02  0.13540383632E+03  0.00000000000E+00 0.  1.
          1    1    3    3  501    0 -0.94710967337E+02  0.20925610353E+02 -0.76745454529E+03  0.77355964708E+03  0.00000000000E+00 0.  1.
         21    1    1    2  502  501 -0.19521082743E+01 -0.68983908220E+02 -0.11107640787E+03  0.13076910455E+03  0.00000000000E+00 0. -1.
<mgrwt>
<rscale>  1 0.30000000E+03</rscale>
<asrwt>0</asrwt>
<pdfrwt beam="1">  1        1 0.14448244E+00 0.30000000E+03</pdfrwt>
<pdfrwt beam="2">0</pdfrwt>
<totfact> 0.19173845E+01</totfact>
</mgrwt>
</event>
<event>
 6    1  0.1929825E-004  0.3000000E+03  0.7818608E-02  0.1093470E+00
          1   -1    0    0  502    0  0.00000000000E+00  0.00000000000E+00  0.56665219315E+02  0.56665219315E+02  0.00000000000E+00 0.  1.
         13   -1    0    0    0    0 -0.00000000000E+00 -0.00000000000E+00 -0.10000000000E+04  0.10000000000E+04  0.00000000000E+00 0.  1.
    9000005    2    1    2  501    0  0.15136680057E+02 -0.61123797994E+01 -0.97461510377E+03  0.10213815279E+04  0.30508874890E+03 0.  0.
         13    1    3    3    0    0  0.15407454631E+03 -0.43525361585E+02 -0.56407966852E+03  0.58636106228E+03  0.00000000000E+00 0.  1.
          1    1    3    3  501    0 -0.13893786625E+03  0.37412981786E+02 -0.41053543525E+03  0.43502046559E+03  0.00000000000E+00 0.  1.
         21    1    1    2  502  501 -0.15136680057E+02  0.61123797994E+01  0.31280323083E+02  0.35283691447E+02  0.00000000000E+00 0.  1.
<mgrwt>
<rscale>  1 0.30000000E+03</rscale>
<asrwt>0</asrwt>
<pdfrwt beam="1">  1        1 0.20605578E+00 0.30000000E+03</pdfrwt>
<pdfrwt beam="2">0</pdfrwt>
<totfact> 0.95877898E+00</totfact>
</mgrwt>
</event>
<event>
 6    1  0.1929825E-004  0.3000000E+03  0.7818608E-02  0.1093470E+00
          1   -1    0    0  502    0  0.00000000000E+00  0.00000000000E+00  0.31021348526E+02  0.31021348526E+02  0.00000000000E+00 0.  1.
         13   -1    0    0    0    0 -0.00000000000E+00 -0.00000000000E+00 -0.10000000000E+04  0.10000000000E+04  0.00000000000E+00 0.  1.
    9000005    2    1    2  501    0 -0.16971903242E+02 -0.52928299855E+01 -0.95532715959E+03  0.10086065592E+04  0.32298784792E+03 0.  0.
         13    1    3    3    0    0 -0.88196926415E+02  0.72071796632E+02 -0.11547283703E+03  0.16219438273E+03  0.00000000000E+00 0.  1.
          3    1    3    3  501    0  0.71225023173E+02 -0.77364626618E+02 -0.83985432257E+03  0.84641217649E+03  0.00000000000E+00 0.  1.
         21    1    1    2  502  501  0.16971903242E+02  0.52928299855E+01 -0.13651491883E+02  0.22414789304E+02  0.00000000000E+00 0.  1.
<mgrwt>
<rscale>  1 0.30000000E+03</rscale>
<asrwt>0</asrwt>
<pdfrwt beam="1">  1        1 0.11280514E+00 0.30000000E+03</pdfrwt>
<pdfrwt beam="2">0</pdfrwt>
<totfact> 0.28596329E+01</totfact>
</mgrwt>
</event>
<event>
 6    1  0.1929825E-004  0.3000000E+03  0.7818608E-02  0.1093470E+00
          1   -1    0    0  502    0  0.00000000000E+00  0.00000000000E+00  0.11404539988E+03  0.11404539988E+03  0.00000000000E+00 0.  1.
         13   -1    0    0    0    0 -0.00000000000E+00 -0.00000000000E+00 -0.10000000000E+04  0.10000000000E+04  0.00000000000E+00 0.  1.
    9000005    2    1    2  501    0 -0.92777737837E+01  0.20143471044E+03 -0.80757156371E+03  0.89769864105E+03  0.33619785837E+03 0.  0.
         13    1    3    3    0    0 -0.23196631811E+02  0.28615364602E+03 -0.48223298617E+03  0.56122245661E+03  0.00000000000E+00 0.  1.
          3    1    3    3  501    0  0.13918858028E+02 -0.84718935580E+02 -0.32533857754E+03  0.33647618444E+03  0.00000000000E+00 0.  1.
         21    1    1    2  502  501  0.92777737837E+01 -0.20143471044E+03 -0.78383036413E+02  0.21634675883E+03  0.00000000000E+00 0.  1.
<mgrwt>
<rscale>  1 0.30000000E+03</rscale>
<asrwt>0</asrwt>
<pdfrwt beam="1">  1        1 0.41471142E+00 0.30000000E+03</pdfrwt>
<pdfrwt beam="2">0</pdfrwt>
<totfact> 0.86364499E-01</totfact>
</mgrwt>
</event>
<event>
 6    1  0.1929825E-004  0.3000000E+03  0.7818608E-02  0.1093470E+00
          1   -1    0    0  502    0  0.00000000000E+00  0.00000000000E+00  0.47732283119E+02  0.47732283119E+02  0.00000000000E+00 0.  1.
         13   -1    0    0    0    0 -0.00000000000E+00 -0.00000000000E+00 -0.10000000000E+04  0.10000000000E+04  0.00000000000E+00 0.  1.
    9000005    2    1    2  501    0  0.27736369789E+02  0.97228634551E+02 -0.69438425406E+03  0.77073662614E+03  0.31881458720E+03 0.  0.
         13    1    3    3    0    0 -0.42320194070E+01  0.20324253406E+03 -0.56489332821E+03  0.60035815135E+03  0.00000000000E+00 0.  1.
          3    1    3    3  501    0  0.31968389196E+02 -0.10601389950E+03 -0.12949092585E+03  0.17037847479E+03  0.00000000000E+00 0.  1.
         21    1    1    2  502  501 -0.27736369789E+02 -0.97228634551E+02 -0.25788346282E+03  0.27699565697E+03  0.00000000000E+00 0.  1.
<mgrwt>
<rscale>  1 0.30000000E+03</rscale>
<asrwt>0</asrwt>
<pdfrwt beam="1">  1        1 0.17357230E+00 0.30000000E+03</pdfrwt>
<pdfrwt beam="2">0</pdfrwt>
<totfact> 0.13725525E+01</totfact>
</mgrwt>
</event>
<event>
 6    1  0.1929825E-004  0.3000000E+03  0.7818608E-02  0.1093470E+00
          1   -1    0    0  502    0  0.00000000000E+00  0.00000000000E+00  0.35017094496E+02  0.35017094496E+02  0.00000000000E+00 0.  1.
         13   -1    0    0    0    0 -0.00000000000E+00 -0.00000000000E+00 -0.10000000000E+04  0.10000000000E+04  0.00000000000E+00 0.  1.
    9000005    2    1    2  501    0  0.39054567165E+01  0.10645323077E+02 -0.96956977026E+03  0.10227853806E+04  0.32541637934E+03 0.  0.
         13    1    3    3    0    0  0.97057284793E+01 -0.13063536548E+03 -0.19178900755E+03  0.23225594352E+03  0.00000000000E+00 0.  1.
          3    1    3    3  501    0 -0.58002717628E+01  0.14128068856E+03 -0.77778076271E+03  0.79052943712E+03  0.00000000000E+00 0.  1.
         21    1    1    2  502  501 -0.39054567165E+01 -0.10645323077E+02  0.45868647601E+01  0.12231713858E+02  0.00000000000E+00 0.  1.
<mgrwt>
<rscale>  1 0.30000000E+03</rscale>
<asrwt>0</asrwt>
<pdfrwt beam="1">  1        1 0.12733516E+00 0.30000000E+03</pdfrwt>
<pdfrwt beam="2">0</pdfrwt>
<totfact> 0.23661011E+01</totfact>
</mgrwt>
</event>
<event>
 6    1  0.1929825E-004  0.3000000E+03  0.7818608E-02  0.1093470E+00
          1   -1    0    0  502    0  0.00000000000E+00  0.00000000000E+00  0.41506993725E+02  0.41506993725E+02  0.00000000000E+00 0.  1.
         13   -1    0    0    0    0 -0.00000000000E+00 -0.00000000000E+00 -0.10000000000E+04  0.10000000000E+04  0.00000000000E+00 0.  1.
    9000005    2    1    2  501    0 -0.33923148999E+02  0.13471771509E+02 -0.95114114752E+03  0.10042736956E+04  0.32025599825E+03 0.  0.
         13    1    3    3    0    0 -0.10468776471E+03  0.53922561298E+02 -0.11645406293E+03  0.16561618119E+03  0.00000000000E+00 0.  1.
          1    1    3    3  501    0  0.70764615713E+02 -0.40450789789E+02 -0.83468708459E+03  0.83865751437E+03  0.00000000000E+00 0.  1.
         21    1    1    2  502  501  0.33923148999E+02 -0.13471771509E+02 -0.73518587583E+01  0.37233298173E+02  0.00000000000E+00 0.  1.
<mgrwt>
<rscale>  1 0.30000000E+03</rscale>
<asrwt>0</asrwt>
<pdfrwt beam="1">  1        1 0.15093484E+00 0.30000000E+03</pdfrwt>
<pdfrwt beam="2">0</pdfrwt>
<totfact> 0.17769644E+01</totfact>
</mgrwt>
</event>
<event>
 6    1  0.1929825E-004  0.3000000E+03  0.7818608E-02  0.1093470E+00
          1   -1    0    0  502    0  0.00000000000E+00  0.00000000000E+00  0.52134273816E+02  0.52134273816E+02  0.00000000000E+00 0.  1.
         13   -1    0    0    0    0 -0.00000000000E+00 -0.00000000000E+00 -0.10000000000E+04  0.10000000000E+04  0.00000000000E+00 0.  1.
    9000005    2    1    2  501    0 -0.33605348290E+02  0.14514928372E+00 -0.95622677037E+03  0.10175041199E+04  0.34614398318E+03 0.  0.
         13    1    3    3    0    0 -0.12082201292E+02 -0.40230865175E+02  0.15445183921E+02  0.44755511472E+02  0.00000000000E+00 0.  1.
          1    1    3    3  501    0 -0.21523146998E+02  0.40376014459E+02 -0.97167195429E+03  0.97274860840E+03  0.00000000000E+00 0.  1.
         21    1    1    2  502  501  0.33605348290E+02 -0.14514928372E+00  0.83610441844E+01  0.34630153940E+02  0.00000000000E+00 0.  1.
<mgrwt>
<rscale>  1 0.30000000E+03</rscale>
<asrwt>0</asrwt>
<pdfrwt beam="1">  1        1 0.18957958E+00 0.30000000E+03</pdfrwt>
<pdfrwt beam="2">0</pdfrwt>
<totfact> 0.11487243E+01</totfact>
</mgrwt>
</event>
<event>
 6    1  0.1929825E-004  0.3000000E+03  0.7818608E-02  0.1093470E+00
          1   -1    0    0  502    0  0.00000000000E+00  0.00000000000E+00  0.29951317701E+02  0.29951317701E+02  0.00000000000E+00 0.  1.
         13   -1    0    0    0    0 -0.00000000000E+00 -0.00000000000E+00 -0.10000000000E+04  0.10000000000E+04  0.00000000000E+00 0.  1.
    9000005    2    1    2  501    0  0.81558559060E+01  0.18543579662E+01 -0.94500747407E+03  0.10035502053E+04  0.33764468274E+03 0.  0.
         13    1    3    3    0    0  0.62540644342E+02  0.56135359099E+02 -0.36205990301E+02  0.91506199077E+02  0.00000000000E+00 0.  1.
          3    1    3    3  501    0 -0.54384788436E+02 -0.54281001133E+02 -0.90880148377E+03  0.91204400618E+03  0.00000000000E+00 0.  1.
         21    1    1    2  502  501 -0.81558559060E+01 -0.18543579662E+01 -0.25041208226E+02  0.26401112447E+02  0.00000000000E+00 0.  1.
<mgrwt>
<rscale>  1 0.30000000E+03</rscale>
<asrwt>0</asrwt>
<pdfrwt beam="1">  1        1 0.10891411E+00 0.30000000E+03</pdfrwt>
<pdfrwt beam="2">0</pdfrwt>
<totfact> 0.30157139E+01</totfact>
</mgrwt>
</event>
<event>
 6    1  0.1929825E-004  0.3000000E+03  0.7818608E-02  0.1093470E+00
          1   -1    0    0  502    0  0.00000000000E+00  0.00000000000E+00  0.34504140302E+02  0.34504140302E+02  0.00000000000E+00 0.  1.
         13   -1    0    0    0    0 -0.00000000000E+00 -0.00000000000E+00 -0.10000000000E+04  0.10000000000E+04  0.00000000000E+00 0.  1.
    9000005    2    1    2  501    0 -0.14060729263E+02  0.26613898948E+02 -0.93569746167E+03  0.99214911404E+03  0.32851806798E+03 0.  0.
         13    1    3    3    0    0  0.52396754307E+02 -0.87959150175E+02 -0.78445150512E+03  0.79110454167E+03  0.00000000000E+00 0.  1.
          1    1    3    3  501    0 -0.66457483570E+02  0.11457304912E+03 -0.15124595655E+03  0.20104457237E+03  0.00000000000E+00 0.  1.
         21    1    1    2  502  501  0.14060729263E+02 -0.26613898948E+02 -0.29798398030E+02  0.42355026263E+02  0.00000000000E+00 0.  1.
<mgrwt>
<rscale>  1 0.30000000E+03</rscale>
<asrwt>0</asrwt>
<pdfrwt beam="1">  1        1 0.12546987E+00 0.30000000E+03</pdfrwt>
<pdfrwt beam="2">0</pdfrwt>
<totfact> 0.24228316E+01</totfact>
</mgrwt>
</event>
<event>
 6    1  0.1929825E-004  0.3000000E+03  0.7818608E-02  0.1093470E+00
          1   -1    0    0  502    0  0.00000000000E+00  0.00000000000E+00  0.49965794973E+02  0.49965794973E+02  0.00000000000E+00 0.  1.
         13   -1    0    0    0    0 -0.00000000000E+00 -0.00000000000E+00 -0.10000000000E+04  0.10000000000E+04  0.00000000000E+00 0.  1.
    9000005    2    1    2  501    0  0.46693718173E+02 -0.68215199218E+00 -0.93452835243E+03  0.10007601031E+04  0.35496024257E+03 0.  0.
         13    1    3    3    0    0 -0.11117046670E+03  0.11599543091E+03 -0.45898452894E+03  0.48629272096E+03  0.00000000000E+00 0.  1.
          1    1    3    3  501    0  0.15786418487E+03 -0.11667758291E+03 -0.47554382350E+03  0.51446738214E+03  0.00000000000E+00 0.  1.
         21    1    1    2  502  501 -0.46693718173E+02  0.68215199218E+00 -0.15505852595E+02  0.49205691874E+02  0.00000000000E+00 0.  1.
<mgrwt>
<rscale>  1 0.30000000E+03</rscale>
<asrwt>0</asrwt>
<pdfrwt beam="1">  1        1 0.18169418E+00 0.30000000E+03</pdfrwt>
<pdfrwt beam="2">0</pdfrwt>
<totfact> 0.12535886E+01</totfact>
</mgrwt>
</event>
<event>
 6    1  0.1929825E-004  0.3000000E+03  0.7818608E-02  0.1093470E+00
          1   -1    0    0  502    0  0.00000000000E+00  0.00000000000E+00  0.43520425667E+02  0.43520425667E+02  0.00000000000E+00 0.  1.
         13   -1    0    0    0    0 -0.00000000000E+00 -0.00000000000E+00 -0.10000000000E+04  0.10000000000E+04  0.00000000000E+00 0.  1.
    9000005    2    1    2  501    0  0.22350819925E+02  0.38925440482E+01 -0.96138001058E+03  0.10203099684E+04  0.34097829235E+03 0.  0.
         13    1    3    3    0    0  0.12334896701E+03 -0.43030832860E+02 -0.85950469274E+03  0.86937617697E+03  0.00000000000E+00 0.  1.
          3    1    3    3  501    0 -0.10099814708E+03  0.46923376909E+02 -0.10187531783E+03  0.15093379144E+03  0.00000000000E+00 0.  1.
         21    1    1    2  502  501 -0.22350819925E+02 -0.38925440482E+01  0.49004362442E+01  0.23210457253E+02  0.00000000000E+00 0.  1.
<mgrwt>
<rscale>  1 0.30000000E+03</rscale>
<asrwt>0</asrwt>
<pdfrwt beam="1">  1        1 0.15825643E+00 0.30000000E+03</pdfrwt>
<pdfrwt beam="2">0</pdfrwt>
<totfact> 0.16325969E+01</totfact>
</mgrwt>
</event>
<event>
 6    1  0.1929825E-004  0.3000000E+03  0.7818608E-02  0.1093470E+00
          1   -1    0    0  502    0  0.00000000000E+00  0.00000000000E+00  0.67863196950E+02  0.67863196950E+02  0.00000000000E+00 0.  1.
         13   -1    0    0    0    0 -0.00000000000E+00 -0.00000000000E+00 -0.10000000000E+04  0.10000000000E+04  0.00000000000E+00 0.  1.
    9000005    2    1    2  501    0  0.49681392248E+02  0.11927807523E+03 -0.84447023262E+03  0.91171926483E+03  0.31844394188E+03 0.  0.
         13    1    3    3    0    0 -0.13277021023E+02  0.18944325517E+02  0.25090652764E+02  0.34127812890E+02  0.00000000000E+00 0.  1.
          3    1    3    3  501    0  0.62958413271E+02  0.10033374971E+03 -0.86956088538E+03  0.87759145194E+03  0.00000000000E+00 0.  1.
         21    1    1    2  502  501 -0.49681392248E+02 -0.11927807523E+03 -0.87666570430E+02  0.15614393212E+03  0.00000000000E+00 0.  1.
<mgrwt>
<rscale>  1 0.30000000E+03</rscale>
<asrwt>0</asrwt>
<pdfrwt beam="1">  1        1 0.24677578E+00 0.30000000E+03</pdfrwt>
<pdfrwt beam="2">0</pdfrwt>
<totfact> 0.61760831E+00</totfact>
</mgrwt>
</event>
<event>
 6    1  0.1929825E-004  0.3000000E+03  0.7818608E-02  0.1093470E+00
          1   -1    0    0  502    0  0.00000000000E+00  0.00000000000E+00  0.30248108199E+02  0.30248108199E+02  0.00000000000E+00 0.  1.
         13   -1    0    0    0    0 -0.00000000000E+00 -0.00000000000E+00 -0.10000000000E+04  0.10000000000E+04  0.00000000000E+00 0.  1.
    9000005    2    1    2  501    0  0.11008077310E+02 -0.41756286278E+00 -0.96230585597E+03  0.10169516585E+04  0.32868946314E+03 0.  0.
         13    1    3    3    0    0 -0.72761723729E+01  0.67601331488E+02 -0.94087697047E+03  0.94333045973E+03  0.00000000000E+00 0.  1.
          3    1    3    3  501    0  0.18284249683E+02 -0.68018894351E+02 -0.21428885504E+02  0.73621198776E+02  0.00000000000E+00 0.  1.
         21    1    1    2  502  501 -0.11008077310E+02  0.41756286278E+00 -0.74460358304E+01  0.13296449691E+02  0.00000000000E+00 0.  1.
<mgrwt>
<rscale>  1 0.30000000E+03</rscale>
<asrwt>0</asrwt>
<pdfrwt beam="1">  1        1 0.10999335E+00 0.30000000E+03</pdfrwt>
<pdfrwt beam="2">0</pdfrwt>
<totfact> 0.29712352E+01</totfact>
</mgrwt>
</event>
<event>
 6    1  0.1929825E-004  0.3000000E+03  0.7818608E-02  0.1093470E+00
          1   -1    0    0  502    0  0.00000000000E+00  0.00000000000E+00  0.37078587827E+02  0.37078587827E+02  0.00000000000E+00 0.  1.
         13   -1    0    0    0    0 -0.00000000000E+00 -0.00000000000E+00 -0.10000000000E+04  0.10000000000E+04  0.00000000000E+00 0.  1.
    9000005    2    1    2  501    0  0.18912240141E+02  0.20111885143E+01 -0.95851149009E+03  0.10175551373E+04  0.34104613056E+03 0.  0.
         13    1    3    3    0    0 -0.12111563740E+03  0.50509074022E+02 -0.16750036120E+03  0.21278283573E+03  0.00000000000E+00 0.  1.
          1    1    3    3  501    0  0.14002787754E+03 -0.48497885508E+02 -0.79101112890E+03  0.80477230160E+03  0.00000000000E+00 0.  1.
         21    1    1    2  502  501 -0.18912240141E+02 -0.20111885143E+01 -0.44099220780E+01  0.19523450492E+02  0.00000000000E+00 0. -1.
<mgrwt>
<rscale>  1 0.30000000E+03</rscale>
<asrwt>0</asrwt>
<pdfrwt beam="1">  1        1 0.13483151E+00 0.30000000E+03</pdfrwt>
<pdfrwt beam="2">0</pdfrwt>
<totfact> 0.21547111E+01</totfact>
</mgrwt>
</event>
<event>
 6    1  0.1929825E-004  0.3000000E+03  0.7818608E-02  0.1093470E+00
          1   -1    0    0  502    0  0.00000000000E+00  0.00000000000E+00  0.30082477044E+02  0.30082477044E+02  0.00000000000E+00 0.  1.
         13   -1    0    0    0    0 -0.00000000000E+00 -0.00000000000E+00 -0.10000000000E+04  0.10000000000E+04  0.00000000000E+00 0.  1.
    9000005    2    1    2  501    0  0.71354039601E-01 -0.10364520588E+02 -0.96738474917E+03  0.10194127385E+04  0.32134350783E+03 0.  0.
         13    1    3    3    0    0 -0.47491180791E+02  0.47491573040E+02 -0.93567090546E+03  0.93807830435E+03  0.00000000000E+00 0.  1.
          1    1    3    3  501    0  0.47562534830E+02 -0.57856093628E+02 -0.31713843714E+02  0.81334434113E+02  0.00000000000E+00 0.  1.
         21    1    1    2  502  501 -0.71354039601E-01  0.10364520588E+02 -0.25327737839E+01  0.10669738585E+02  0.00000000000E+00 0. -1.
<mgrwt>
<rscale>  1 0.30000000E+03</rscale>
<asrwt>0</asrwt>
<pdfrwt beam="1">  1        1 0.10939106E+00 0.30000000E+03</pdfrwt>
<pdfrwt beam="2">0</pdfrwt>
<totfact> 0.29959416E+01</totfact>
</mgrwt>
</event>
<event>
 6    1  0.1929825E-004  0.3000000E+03  0.7818608E-02  0.1093470E+00
          3   -1    0    0  502    0  0.00000000000E+00  0.00000000000E+00  0.31482679794E+02  0.31482679794E+02  0.00000000000E+00 0.  1.
         13   -1    0    0    0    0 -0.00000000000E+00 -0.00000000000E+00 -0.10000000000E+04  0.10000000000E+04  0.00000000000E+00 0.  1.
    9000005    2    1    2  501    0 -0.20343045475E+02 -0.47792434382E+01 -0.94207589495E+03  0.99778060810E+03  0.32805863711E+03 0.  0.
         13    1    3    3    0    0 -0.16537423775E+03 -0.50967933060E+02 -0.42849027946E+03  0.46211501632E+03  0.00000000000E+00 0.  1.
          1    1    3    3  501    0  0.14503119228E+03  0.46188689622E+02 -0.51358561549E+03  0.53566559178E+03  0.00000000000E+00 0.  1.
         21    1    1    2  502  501  0.20343045475E+02  0.47792434382E+01 -0.26441425255E+02  0.33702071695E+02  0.00000000000E+00 0. -1.
<mgrwt>
<rscale>  1 0.30000000E+03</rscale>
<asrwt>0</asrwt>
<pdfrwt beam="1">  1        3 0.11448271E+00 0.30000000E+03</pdfrwt>
<pdfrwt beam="2">0</pdfrwt>
<totfact> 0.26782904E+00</totfact>
</mgrwt>
</event>
<event>
 6    1  0.1929825E-004  0.3000000E+03  0.7818608E-02  0.1093470E+00
          1   -1    0    0  502    0  0.00000000000E+00  0.00000000000E+00  0.40093824782E+02  0.40093824782E+02  0.00000000000E+00 0.  1.
         13   -1    0    0    0    0 -0.00000000000E+00 -0.00000000000E+00 -0.10000000000E+04  0.10000000000E+04  0.00000000000E+00 0.  1.
    9000005    2    1    2  501    0 -0.13895249291E+02 -0.11399271513E+02 -0.96719051212E+03  0.10207009676E+04  0.32565312414E+03 0.  0.
         13    1    3    3    0    0 -0.13885196802E+03  0.38976034983E+02 -0.23129265929E+03  0.27257163199E+03  0.00000000000E+00 0.  1.
          3    1    3    3  501    0  0.12495671873E+03 -0.50375306496E+02 -0.73589785284E+03  0.74812933566E+03  0.00000000000E+00 0.  1.
         21    1    1    2  502  501  0.13895249291E+02  0.11399271513E+02  0.72843369050E+01  0.19392857139E+02  0.00000000000E+00 0.  1.
<mgrwt>
<rscale>  1 0.30000000E+03</rscale>
<asrwt>0</asrwt>
<pdfrwt beam="1">  1        1 0.14579603E+00 0.30000000E+03</pdfrwt>
<pdfrwt beam="2">0</pdfrwt>
<totfact> 0.18877009E+01</totfact>
</mgrwt>
</event>
<event>
 6    1  0.1929825E-004  0.3000000E+03  0.7818608E-02  0.1093470E+00
          1   -1    0    0  502    0  0.00000000000E+00  0.00000000000E+00  0.52403426865E+02  0.52403426865E+02  0.00000000000E+00 0.  1.
         13   -1    0    0    0    0 -0.00000000000E+00 -0.00000000000E+00 -0.10000000000E+04  0.10000000000E+04  0.00000000000E+00 0.  1.
    9000005    2    1    2  501    0  0.14033811370E+02  0.28067897087E+01 -0.97179940703E+03  0.10242857616E+04  0.32336111090E+03 0.  0.
         13    1    3    3    0    0 -0.29807316949E+02  0.15262654612E+03 -0.62356912427E+03  0.64266771466E+03  0.00000000000E+00 0.  1.
          3    1    3    3  501    0  0.43841128318E+02 -0.14981975641E+03 -0.34823028276E+03  0.38161804697E+03  0.00000000000E+00 0.  1.
         21    1    1    2  502  501 -0.14033811370E+02 -0.28067897087E+01  0.24202833892E+02  0.28117665238E+02  0.00000000000E+00 0.  1.
<mgrwt>
<rscale>  1 0.30000000E+03</rscale>
<asrwt>0</asrwt>
<pdfrwt beam="1">  1        1 0.19055832E+00 0.30000000E+03</pdfrwt>
<pdfrwt beam="2">0</pdfrwt>
<totfact> 0.11363678E+01</totfact>
</mgrwt>
</event>
<event>
 6    1  0.1929825E-004  0.3000000E+03  0.7818608E-02  0.1093470E+00
          1   -1    0    0  502    0  0.00000000000E+00  0.00000000000E+00  0.33211383522E+02  0.33211383522E+02  0.00000000000E+00 0.  1.
         13   -1    0    0    0    0 -0.00000000000E+00 -0.00000000000E+00 -0.10000000000E+04  0.10000000000E+04  0.00000000000E+00 0.  1.
    9000005    2    1    2  501    0 -0.10362802943E+02  0.31940167036E+01 -0.94205525653E+03  0.10062053005E+04  0.35336017165E+03 0.  0.
         13    1    3    3    0    0  0.12331706941E+03  0.17248030340E+02 -0.80376567111E+03  0.81335345835E+03  0.00000000000E+00 0.  1.
          3    1    3    3  501    0 -0.13367987236E+03 -0.14054013637E+02 -0.13828958543E+03  0.19285184212E+03  0.00000000000E+00 0.  1.
         21    1    1    2  502  501  0.10362802943E+02 -0.31940167036E+01 -0.24733359945E+02  0.27006083050E+02  0.00000000000E+00 0.  1.
<mgrwt>
<rscale>  1 0.30000000E+03</rscale>
<asrwt>0</asrwt>
<pdfrwt beam="1">  1        1 0.12076892E+00 0.30000000E+03</pdfrwt>
<pdfrwt beam="2">0</pdfrwt>
<totfact> 0.25737513E+01</totfact>
</mgrwt>
</event>
<event>
 6    1  0.1929825E-004  0.3000000E+03  0.7818608E-02  0.1093470E+00
          1   -1    0    0  502    0  0.00000000000E+00  0.00000000000E+00  0.59232277807E+02  0.59232277807E+02  0.00000000000E+00 0.  1.
         13   -1    0    0    0    0 -0.00000000000E+00 -0.00000000000E+00 -0.10000000000E+04  0.10000000000E+04  0.00000000000E+00 0.  1.
    9000005    2    1    2  501    0  0.14300299057E+02 -0.33972379180E+00 -0.97141744112E+03  0.10254089244E+04  0.32803506422E+03 0.  0.
         13    1    3    3    0    0 -0.10784287613E+03  0.97246338328E+02 -0.26785363847E+03  0.30468427576E+03  0.00000000000E+00 0.  1.
          3    1    3    3  501    0  0.12214317518E+03 -0.97586062120E+02 -0.70356380265E+03  0.72072464864E+03  0.00000000000E+00 0.  1.
         21    1    1    2  502  501 -0.14300299057E+02  0.33972379180E+00  0.30649718929E+02  0.33823353408E+02  0.00000000000E+00 0. -1.
<mgrwt>
<rscale>  1 0.30000000E+03</rscale>
<asrwt>0</asrwt>
<pdfrwt beam="1">  1        1 0.21539056E+00 0.30000000E+03</pdfrwt>
<pdfrwt beam="2">0</pdfrwt>
<totfact> 0.86642546E+00</totfact>
</mgrwt>
</event>
<event>
 6    1  0.1929825E-004  0.3000000E+03  0.7818608E-02  0.1093470E+00
          1   -1    0    0  502    0  0.00000000000E+00  0.00000000000E+00  0.36220349077E+02  0.36220349077E+02  0.00000000000E+00 0.  1.
         13   -1    0    0    0    0 -0.00000000000E+00 -0.00000000000E+00 -0.10000000000E+04  0.10000000000E+04  0.00000000000E+00 0.  1.
    9000005    2    1    2  501    0  0.32806586031E+02 -0.34784552481E+02 -0.84119816591E+03  0.90464353635E+03  0.32936201414E+03 0.  0.
         13    1    3    3    0    0  0.99400146838E+02  0.44267590551E+02 -0.77342730755E+03  0.78104405051E+03  0.00000000000E+00 0.  1.
          3    1    3    3  501    0 -0.66593560807E+02 -0.79052143032E+02 -0.67770858353E+02  0.12359948584E+03  0.00000000000E+00 0.  1.
         21    1    1    2  502  501 -0.32806586031E+02  0.34784552481E+02 -0.12258148502E+03  0.13157681273E+03  0.00000000000E+00 0.  1.
<mgrwt>
<rscale>  1 0.30000000E+03</rscale>
<asrwt>0</asrwt>
<pdfrwt beam="1">  1        1 0.13171064E+00 0.30000000E+03</pdfrwt>
<pdfrwt beam="2">0</pdfrwt>
<totfact> 0.22395865E+01</totfact>
</mgrwt>
</event>
<event>
 6    1  0.1929825E-004  0.3000000E+03  0.7818608E-02  0.1093470E+00
          1   -1    0    0  502    0  0.00000000000E+00  0.00000000000E+00  0.11747730036E+03  0.11747730036E+03  0.00000000000E+00 0.  1.
         13   -1    0    0    0    0 -0.00000000000E+00 -0.00000000000E+00 -0.10000000000E+04  0.10000000000E+04  0.00000000000E+00 0.  1.
    9000005    2    1    2  501    0  0.13109587385E+03  0.21071178340E+03 -0.69616808685E+03  0.80713293436E+03  0.32438863232E+03 0.  0.
         13    1    3    3    0    0  0.22302564405E+03  0.11614006434E+03 -0.31057182959E+03  0.39960457178E+03  0.00000000000E+00 0.  1.
          3    1    3    3  501    0 -0.91929770206E+02  0.94571719054E+02 -0.38559625726E+03  0.40752836258E+03  0.00000000000E+00 0.  1.
         21    1    1    2  502  501 -0.13109587385E+03 -0.21071178340E+03 -0.18635461279E+03  0.31034436601E+03  0.00000000000E+00 0.  1.
<mgrwt>
<rscale>  1 0.30000000E+03</rscale>
<asrwt>0</asrwt>
<pdfrwt beam="1">  1        1 0.42719108E+00 0.30000000E+03</pdfrwt>
<pdfrwt beam="2">0</pdfrwt>
<totfact> 0.72351526E-01</totfact>
</mgrwt>
</event>
<event>
 6    1  0.1929825E-004  0.3000000E+03  0.7818608E-02  0.1093470E+00
          1   -1    0    0  502    0  0.00000000000E+00  0.00000000000E+00  0.36763715382E+02  0.36763715382E+02  0.00000000000E+00 0.  1.
         13   -1    0    0    0    0 -0.00000000000E+00 -0.00000000000E+00 -0.10000000000E+04  0.10000000000E+04  0.00000000000E+00 0.  1.
    9000005    2    1    2  501    0 -0.22953562546E+02  0.20798341842E+02 -0.93710687862E+03  0.99623985927E+03  0.33669736882E+03 0.  0.
         13    1    3    3    0    0 -0.16885512009E+03  0.38819599725E+02 -0.66222929453E+03  0.68451928493E+03  0.00000000000E+00 0.  1.
          3    1    3    3  501    0  0.14590155754E+03 -0.18021257883E+02 -0.27487758410E+03  0.31172057434E+03  0.00000000000E+00 0.  1.
         21    1    1    2  502  501  0.22953562546E+02 -0.20798341842E+02 -0.26129405994E+02  0.40523856116E+02  0.00000000000E+00 0. -1.
<mgrwt>
<rscale>  1 0.30000000E+03</rscale>
<asrwt>0</asrwt>
<pdfrwt beam="1">  1        1 0.13368652E+00 0.30000000E+03</pdfrwt>
<pdfrwt beam="2">0</pdfrwt>
<totfact> 0.21853485E+01</totfact>
</mgrwt>
</event>
<event>
 6    1  0.1929825E-004  0.3000000E+03  0.7818608E-02  0.1093470E+00
          1   -1    0    0  502    0  0.00000000000E+00  0.00000000000E+00  0.49526264363E+02  0.49526264363E+02  0.00000000000E+00 0.  1.
         13   -1    0    0    0    0 -0.00000000000E+00 -0.00000000000E+00 -0.10000000000E+04  0.10000000000E+04  0.00000000000E+00 0.  1.
    9000005    2    1    2  501    0  0.71554602787E+02 -0.23060231270E+02 -0.89730774954E+03  0.95744772438E+03  0.32541221874E+03 0.  0.
         13    1    3    3    0    0  0.15117832787E+03 -0.94390118009E+02 -0.28691157856E+03  0.33776121019E+03  0.00000000000E+00 0.  1.
          3    1    3    3  501    0 -0.79623725080E+02  0.71329886740E+02 -0.61039617098E+03  0.61968651420E+03  0.00000000000E+00 0.  1.
         21    1    1    2  502  501 -0.71554602787E+02  0.23060231270E+02 -0.53165986102E+02  0.92078539978E+02  0.00000000000E+00 0. -1.
<mgrwt>
<rscale>  1 0.30000000E+03</rscale>
<asrwt>0</asrwt>
<pdfrwt beam="1">  1        1 0.18009589E+00 0.30000000E+03</pdfrwt>
<pdfrwt beam="2">0</pdfrwt>
<totfact> 0.12760816E+01</totfact>
</mgrwt>
</event>
<event>
 6    1  0.1929825E-004  0.3000000E+03  0.7818608E-02  0.1093470E+00
          1   -1    0    0  502    0  0.00000000000E+00  0.00000000000E+00  0.42568078096E+02  0.42568078096E+02  0.00000000000E+00 0.  1.
         13   -1    0    0    0    0 -0.00000000000E+00 -0.00000000000E+00 -0.10000000000E+04  0.10000000000E+04  0.00000000000E+00 0.  1.
    9000005    2    1    2  501    0  0.11961758683E+02  0.41911611905E+01 -0.95776263654E+03  0.10298890058E+04  0.37841967014E+03 0.  0.
         13    1    3    3    0    0  0.37639552643E+02  0.16919687824E+03 -0.71176005643E+03  0.73256173628E+03  0.00000000000E+00 0.  1.
          3    1    3    3  501    0 -0.25677793960E+02 -0.16500571705E+03 -0.24600258010E+03  0.29732726949E+03  0.00000000000E+00 0.  1.
         21    1    1    2  502  501 -0.11961758683E+02 -0.41911611905E+01  0.33071463311E+00  0.12679072327E+02  0.00000000000E+00 0. -1.
<mgrwt>
<rscale>  1 0.30000000E+03</rscale>
<asrwt>0</asrwt>
<pdfrwt beam="1">  1        1 0.15479334E+00 0.30000000E+03</pdfrwt>
<pdfrwt beam="2">0</pdfrwt>
<totfact> 0.16990495E+01</totfact>
</mgrwt>
</event>
<event>
 6    1  0.1929825E-004  0.3000000E+03  0.7818608E-02  0.1093470E+00
          1   -1    0    0  502    0  0.00000000000E+00  0.00000000000E+00  0.41398502805E+02  0.41398502805E+02  0.00000000000E+00 0.  1.
         13   -1    0    0    0    0 -0.00000000000E+00 -0.00000000000E+00 -0.10000000000E+04  0.10000000000E+04  0.00000000000E+00 0.  1.
    9000005    2    1    2  501    0  0.78425008430E+01 -0.73625237109E+01 -0.97338569578E+03  0.10231150649E+04  0.31491111703E+03 0.  0.
         13    1    3    3    0    0  0.14157406548E+03 -0.69326598529E+02 -0.63023060935E+03  0.64964606844E+03  0.00000000000E+00 0.  1.
          1    1    3    3  501    0 -0.13373156463E+03  0.61964074818E+02 -0.34315508644E+03  0.37346899643E+03  0.00000000000E+00 0.  1.
         21    1    1    2  502  501 -0.78425008430E+01  0.73625237109E+01  0.14784198589E+02  0.18283437937E+02  0.00000000000E+00 0. -1.
<mgrwt>
<rscale>  1 0.30000000E+03</rscale>
<asrwt>0</asrwt>
<pdfrwt beam="1">  1        1 0.15054033E+00 0.30000000E+03</pdfrwt>
<pdfrwt beam="2">0</pdfrwt>
<totfact> 0.17851747E+01</totfact>
</mgrwt>
</event>
<event>
 6    1  0.1929825E-004  0.3000000E+03  0.7818608E-02  0.1093470E+00
          1   -1    0    0  502    0  0.00000000000E+00  0.00000000000E+00  0.47112337327E+02  0.47112337327E+02  0.00000000000E+00 0.  1.
         13   -1    0    0    0    0 -0.00000000000E+00 -0.00000000000E+00 -0.10000000000E+04  0.10000000000E+04  0.00000000000E+00 0.  1.
    9000005    2    1    2  501    0  0.14775083958E+02 -0.65323932349E+00 -0.96639786607E+03  0.10270809763E+04  0.34749354894E+03 0.  0.
         13    1    3    3    0    0 -0.99815114980E+02 -0.13639591079E+03 -0.51292922386E+03  0.54005859899E+03  0.00000000000E+00 0.  1.
          3    1    3    3  501    0  0.11459019894E+03  0.13574267147E+03 -0.45346864222E+03  0.48702237733E+03  0.00000000000E+00 0.  1.
         21    1    1    2  502  501 -0.14775083958E+02  0.65323932349E+00  0.13510203400E+02  0.20031360999E+02  0.00000000000E+00 0.  1.
<mgrwt>
<rscale>  1 0.30000000E+03</rscale>
<asrwt>0</asrwt>
<pdfrwt beam="1">  1        1 0.17131795E+00 0.30000000E+03</pdfrwt>
<pdfrwt beam="2">0</pdfrwt>
<totfact> 0.14077040E+01</totfact>
</mgrwt>
</event>
<event>
 6    1  0.1929825E-004  0.3000000E+03  0.7818608E-02  0.1093470E+00
          1   -1    0    0  502    0  0.00000000000E+00  0.00000000000E+00  0.31876355588E+02  0.31876355588E+02  0.00000000000E+00 0.  1.
         13   -1    0    0    0    0 -0.00000000000E+00 -0.00000000000E+00 -0.10000000000E+04  0.10000000000E+04  0.00000000000E+00 0.  1.
    9000005    2    1    2  501    0  0.57652283444E+01 -0.94901546311E+01 -0.92910396642E+03  0.99130744923E+03  0.34544605596E+03 0.  0.
         13    1    3    3    0    0  0.46563407640E+02 -0.79239467914E+02 -0.42899873650E+02  0.10142703469E+03  0.00000000000E+00 0.  1.
          1    1    3    3  501    0 -0.40798179295E+02  0.69749313283E+02 -0.88620409277E+03  0.88988041454E+03  0.00000000000E+00 0.  1.
         21    1    1    2  502  501 -0.57652283444E+01  0.94901546311E+01 -0.39019677988E+02  0.40568906358E+02  0.00000000000E+00 0. -1.
<mgrwt>
<rscale>  1 0.30000000E+03</rscale>
<asrwt>0</asrwt>
<pdfrwt beam="1">  1        1 0.11591426E+00 0.30000000E+03</pdfrwt>
<pdfrwt beam="2">0</pdfrwt>
<totfact> 0.27430308E+01</totfact>
</mgrwt>
</event>
<event>
 6    1  0.1929825E-004  0.3000000E+03  0.7818608E-02  0.1093470E+00
          1   -1    0    0  502    0  0.00000000000E+00  0.00000000000E+00  0.45366356319E+02  0.45366356319E+02  0.00000000000E+00 0.  1.
         13   -1    0    0    0    0 -0.00000000000E+00 -0.00000000000E+00 -0.10000000000E+04  0.10000000000E+04  0.00000000000E+00 0.  1.
    9000005    2    1    2  501    0  0.22664288608E+02  0.33407910231E+02 -0.94920858257E+03  0.10046332036E+04  0.32659023571E+03 0.  0.
         13    1    3    3    0    0  0.17265112022E+03  0.44081460718E+02 -0.48654215319E+03  0.51814558892E+03  0.00000000000E+00 0.  1.
          3    1    3    3  501    0 -0.14998683161E+03 -0.10673550487E+02 -0.46266642938E+03  0.48648761465E+03  0.00000000000E+00 0.  1.
         21    1    1    2  502  501 -0.22664288608E+02 -0.33407910231E+02 -0.54250611104E+01  0.40733152740E+02  0.00000000000E+00 0. -1.
<mgrwt>
<rscale>  1 0.30000000E+03</rscale>
<asrwt>0</asrwt>
<pdfrwt beam="1">  1        1 0.16496892E+00 0.30000000E+03</pdfrwt>
<pdfrwt beam="2">0</pdfrwt>
<totfact> 0.15122638E+01</totfact>
</mgrwt>
</event>
<event>
 6    1  0.1929825E-004  0.3000000E+03  0.7818608E-02  0.1093470E+00
          1   -1    0    0  502    0  0.00000000000E+00  0.00000000000E+00  0.42664538469E+02  0.42664538469E+02  0.00000000000E+00 0.  1.
         13   -1    0    0    0    0 -0.00000000000E+00 -0.00000000000E+00 -0.10000000000E+04  0.10000000000E+04  0.00000000000E+00 0.  1.
    9000005    2    1    2  501    0 -0.38336381479E+02 -0.25320660307E+02 -0.94279061120E+03  0.99447359892E+03  0.31306994171E+03 0.  0.
         13    1    3    3    0    0 -0.27838756885E+02  0.11657982340E+03 -0.72148247882E+03  0.73137050724E+03  0.00000000000E+00 0.  1.
          1    1    3    3  501    0 -0.10497624595E+02 -0.14190048370E+03 -0.22130813238E+03  0.26310309169E+03  0.00000000000E+00 0.  1.
         21    1    1    2  502  501  0.38336381479E+02  0.25320660307E+02 -0.14544850329E+02  0.48190939547E+02  0.00000000000E+00 0.  1.
<mgrwt>
<rscale>  1 0.30000000E+03</rscale>
<asrwt>0</asrwt>
<pdfrwt beam="1">  1        1 0.15514410E+00 0.30000000E+03</pdfrwt>
<pdfrwt beam="2">0</pdfrwt>
<totfact> 0.16921736E+01</totfact>
</mgrwt>
</event>
<event>
 6    1  0.1929825E-004  0.3000000E+03  0.7818608E-02  0.1093470E+00
          1   -1    0    0  502    0  0.00000000000E+00  0.00000000000E+00  0.31618977376E+02  0.31618977376E+02  0.00000000000E+00 0.  1.
         13   -1    0    0    0    0 -0.00000000000E+00 -0.00000000000E+00 -0.10000000000E+04  0.10000000000E+04  0.00000000000E+00 0.  1.
    9000005    2    1    2  501    0  0.53146869437E+00  0.99450528176E+01 -0.96544950999E+03  0.10212372482E+04  0.33276654614E+03 0.  0.
         13    1    3    3    0    0  0.13436867051E+03  0.10172278958E+03 -0.54901890179E+03  0.57430324747E+03  0.00000000000E+00 0.  1.
          3    1    3    3  501    0 -0.13383720182E+03 -0.91777736765E+02 -0.41643060819E+03  0.44693400072E+03  0.00000000000E+00 0.  1.
         21    1    1    2  502  501 -0.53146869437E+00 -0.99450528176E+01 -0.29315126382E+01  0.10381729185E+02  0.00000000000E+00 0. -1.
<mgrwt>
<rscale>  1 0.30000000E+03</rscale>
<asrwt>0</asrwt>
<pdfrwt beam="1">  1        1 0.11497834E+00 0.30000000E+03</pdfrwt>
<pdfrwt beam="2">0</pdfrwt>
<totfact> 0.27774154E+01</totfact>
</mgrwt>
</event>
<event>
 6    1  0.1929825E-004  0.3000000E+03  0.7818608E-02  0.1093470E+00
          1   -1    0    0  502    0  0.00000000000E+00  0.00000000000E+00  0.20659703625E+02  0.20659703625E+02  0.00000000000E+00 0.  1.
         13   -1    0    0    0    0 -0.00000000000E+00 -0.00000000000E+00 -0.10000000000E+04  0.10000000000E+04  0.00000000000E+00 0.  1.
    9000005    2    1    2  501    0 -0.12055123312E+02  0.14131793255E+02 -0.92758452811E+03  0.96567158557E+03  0.26788714192E+03 0.  0.
         13    1    3    3    0    0 -0.39929754898E+02  0.13528011801E+03 -0.41856920575E+03  0.44169590858E+03  0.00000000000E+00 0.  1.
          1    1    3    3  501    0  0.27874631586E+02 -0.12114832476E+03 -0.50901532236E+03  0.52397567698E+03  0.00000000000E+00 0.  1.
         21    1    1    2  502  501  0.12055123312E+02 -0.14131793255E+02 -0.51755768268E+02  0.54988118059E+02  0.00000000000E+00 0. -1.
<mgrwt>
<rscale>  1 0.30000000E+03</rscale>
<asrwt>0</asrwt>
<pdfrwt beam="1">  1        1 0.75126353E-01 0.30000000E+03</pdfrwt>
<pdfrwt beam="2">0</pdfrwt>
<totfact> 0.51207130E+01</totfact>
</mgrwt>
</event>
<event>
 6    1  0.1929825E-004  0.3000000E+03  0.7818608E-02  0.1093470E+00
          1   -1    0    0  502    0  0.00000000000E+00  0.00000000000E+00  0.35440975672E+02  0.35440975672E+02  0.00000000000E+00 0.  1.
         13   -1    0    0    0    0 -0.00000000000E+00 -0.00000000000E+00 -0.10000000000E+04  0.10000000000E+04  0.00000000000E+00 0.  1.
    9000005    2    1    2  501    0 -0.35103148601E+02  0.23230514745E+02 -0.89393065406E+03  0.95322020857E+03  0.32824512775E+03 0.  0.
         13    1    3    3    0    0  0.46486306166E+02  0.14918053977E+03 -0.63502852994E+03  0.65397021641E+03  0.00000000000E+00 0.  1.
          1    1    3    3  501    0 -0.81589454768E+02 -0.12595002503E+03 -0.25890212412E+03  0.29924999216E+03  0.00000000000E+00 0.  1.
         21    1    1    2  502  501  0.35103148601E+02 -0.23230514745E+02 -0.70628370266E+02  0.82220767106E+02  0.00000000000E+00 0. -1.
<mgrwt>
<rscale>  1 0.30000000E+03</rscale>
<asrwt>0</asrwt>
<pdfrwt beam="1">  1        1 0.12887655E+00 0.30000000E+03</pdfrwt>
<pdfrwt beam="2">0</pdfrwt>
<totfact> 0.23205008E+01</totfact>
</mgrwt>
</event>
<event>
 6    1  0.1929825E-004  0.3000000E+03  0.7818608E-02  0.1093470E+00
          1   -1    0    0  502    0  0.00000000000E+00  0.00000000000E+00  0.31976979042E+02  0.31976979042E+02  0.00000000000E+00 0.  1.
         13   -1    0    0    0    0 -0.00000000000E+00 -0.00000000000E+00 -0.10000000000E+04  0.10000000000E+04  0.00000000000E+00 0.  1.
    9000005    2    1    2  501    0 -0.82932886712E+00  0.13387459597E+02 -0.94140393438E+03  0.10021694694E+04  0.34339826131E+03 0.  0.
         13    1    3    3    0    0  0.65731708443E+02 -0.35109727800E+02 -0.91151845637E+03  0.91455959171E+03  0.00000000000E+00 0.  1.
          1    1    3    3  501    0 -0.66561037311E+02  0.48497187397E+02 -0.29885478009E+02  0.87609877691E+02  0.00000000000E+00 0.  1.
         21    1    1    2  502  501  0.82932886712E+00 -0.13387459597E+02 -0.26619086576E+02  0.29807509641E+02  0.00000000000E+00 0.  1.
<mgrwt>
<rscale>  1 0.30000000E+03</rscale>
<asrwt>0</asrwt>
<pdfrwt beam="1">  1        1 0.11628017E+00 0.30000000E+03</pdfrwt>
<pdfrwt beam="2">0</pdfrwt>
<totfact> 0.27297492E+01</totfact>
</mgrwt>
</event>
<event>
 6    1  0.1929825E-004  0.3000000E+03  0.7818608E-02  0.1093470E+00
          1   -1    0    0  502    0  0.00000000000E+00  0.00000000000E+00  0.31247937788E+02  0.31247937788E+02  0.00000000000E+00 0.  1.
         13   -1    0    0    0    0 -0.00000000000E+00 -0.00000000000E+00 -0.10000000000E+04  0.10000000000E+04  0.00000000000E+00 0.  1.
    9000005    2    1    2  501    0  0.20381504696E+02 -0.22187423928E+02 -0.92484491518E+03  0.97799828920E+03  0.31659887718E+03 0.  0.
         13    1    3    3    0    0  0.84002215019E+02 -0.46519059462E+02 -0.66142467589E+02  0.11659854647E+03  0.00000000000E+00 0.  1.
          1    1    3    3  501    0 -0.63620710323E+02  0.24331635535E+02 -0.85870244759E+03  0.86139974273E+03  0.00000000000E+00 0.  1.
         21    1    1    2  502  501 -0.20381504696E+02  0.22187423928E+02 -0.43907147031E+02  0.53249648587E+02  0.00000000000E+00 0.  1.
<mgrwt>
<rscale>  1 0.30000000E+03</rscale>
<asrwt>0</asrwt>
<pdfrwt beam="1">  1        1 0.11362910E+00 0.30000000E+03</pdfrwt>
<pdfrwt beam="2">0</pdfrwt>
<totfact> 0.28280593E+01</totfact>
</mgrwt>
</event>
<event>
 6    1  0.1929825E-004  0.3000000E+03  0.7818608E-02  0.1093470E+00
          1   -1    0    0  502    0  0.00000000000E+00  0.00000000000E+00  0.30439864650E+02  0.30439864650E+02  0.00000000000E+00 0.  1.
         13   -1    0    0    0    0 -0.00000000000E+00 -0.00000000000E+00 -0.10000000000E+04  0.10000000000E+04  0.00000000000E+00 0.  1.
    9000005    2    1    2  501    0 -0.55313887729E+01  0.17587131987E+02 -0.89827165534E+03  0.95680596718E+03  0.32900727741E+03 0.  0.
         13    1    3    3    0    0  0.11503586900E+03  0.72136391817E+02 -0.73106973418E+03  0.74357236797E+03  0.00000000000E+00 0.  1.
          3    1    3    3  501    0 -0.12056725777E+03 -0.54549259830E+02 -0.16720192116E+03  0.21323359921E+03  0.00000000000E+00 0.  1.
         21    1    1    2  502  501  0.55313887729E+01 -0.17587131987E+02 -0.71288480014E+02  0.73633897465E+02  0.00000000000E+00 0. -1.
<mgrwt>
<rscale>  1 0.30000000E+03</rscale>
<asrwt>0</asrwt>
<pdfrwt beam="1">  1        1 0.11069065E+00 0.30000000E+03</pdfrwt>
<pdfrwt beam="2">0</pdfrwt>
<totfact> 0.29429916E+01</totfact>
</mgrwt>
</event>
<event>
 6    1  0.1929825E-004  0.3000000E+03  0.7818608E-02  0.1093470E+00
          1   -1    0    0  502    0  0.00000000000E+00  0.00000000000E+00  0.35642382667E+02  0.35642382667E+02  0.00000000000E+00 0.  1.
         13   -1    0    0    0    0 -0.00000000000E+00 -0.00000000000E+00 -0.10000000000E+04  0.10000000000E+04  0.00000000000E+00 0.  1.
    9000005    2    1    2  501    0 -0.25112809160E+02  0.24026143080E+02 -0.93365457887E+03  0.98926797910E+03  0.32516511666E+03 0.  0.
         13    1    3    3    0    0 -0.60188923675E+02 -0.95694102457E+02 -0.11535761738E+03  0.16151609104E+03  0.00000000000E+00 0.  1.
          1    1    3    3  501    0  0.35076114515E+02  0.11972024554E+03 -0.81829696149E+03  0.82775188806E+03  0.00000000000E+00 0.  1.
         21    1    1    2  502  501  0.25112809160E+02 -0.24026143080E+02 -0.30703038466E+02  0.46374403568E+02  0.00000000000E+00 0. -1.
<mgrwt>
<rscale>  1 0.30000000E+03</rscale>
<asrwt>0</asrwt>
<pdfrwt beam="1">  1        1 0.12960894E+00 0.30000000E+03</pdfrwt>
<pdfrwt beam="2">0</pdfrwt>
<totfact> 0.22992313E+01</totfact>
</mgrwt>
</event>
<event>
 6    1  0.1929825E-004  0.3000000E+03  0.7818608E-02  0.1093470E+00
          1   -1    0    0  502    0  0.00000000000E+00  0.00000000000E+00  0.36000415341E+02  0.36000415341E+02  0.00000000000E+00 0.  1.
         13   -1    0    0    0    0 -0.00000000000E+00 -0.00000000000E+00 -0.10000000000E+04  0.10000000000E+04  0.00000000000E+00 0.  1.
    9000005    2    1    2  501    0  0.13757103145E+02  0.22042478928E+01 -0.95494045806E+03  0.10193816196E+04  0.35641758014E+03 0.  0.
         13    1    3    3    0    0 -0.10908247760E+03 -0.31497896745E+02 -0.89380413868E+02  0.14449900623E+03  0.00000000000E+00 0.  1.
          1    1    3    3  501    0  0.12283958075E+03  0.33702144638E+02 -0.86556004419E+03  0.87488261341E+03  0.00000000000E+00 0.  1.
         21    1    1    2  502  501 -0.13757103145E+02 -0.22042478928E+01 -0.90591266033E+01  0.16618795700E+02  0.00000000000E+00 0. -1.
<mgrwt>
<rscale>  1 0.30000000E+03</rscale>
<asrwt>0</asrwt>
<pdfrwt beam="1">  1        1 0.13091088E+00 0.30000000E+03</pdfrwt>
<pdfrwt beam="2">0</pdfrwt>
<totfact> 0.22620425E+01</totfact>
</mgrwt>
</event>
<event>
 6    1  0.1929825E-004  0.3000000E+03  0.7818608E-02  0.1093470E+00
          1   -1    0    0  502    0  0.00000000000E+00  0.00000000000E+00  0.34911353242E+02  0.34911353242E+02  0.00000000000E+00 0.  1.
         13   -1    0    0    0    0 -0.00000000000E+00 -0.00000000000E+00 -0.10000000000E+04  0.10000000000E+04  0.00000000000E+00 0.  1.
    9000005    2    1    2  501    0  0.18534489919E+02  0.19455594066E+02 -0.95546882516E+03  0.10063703577E+04  0.31486278537E+03 0.  0.
         13    1    3    3    0    0  0.68077218538E+02 -0.12551042474E+03 -0.63916719533E+03  0.65492142887E+03  0.00000000000E+00 0.  1.
          3    1    3    3  501    0 -0.49542728619E+02  0.14496601881E+03 -0.31630162983E+03  0.35144892887E+03  0.00000000000E+00 0.  1.
         21    1    1    2  502  501 -0.18534489919E+02 -0.19455594066E+02 -0.96198215935E+01  0.28540995506E+02  0.00000000000E+00 0.  1.
<mgrwt>
<rscale>  1 0.30000000E+03</rscale>
<asrwt>0</asrwt>
<pdfrwt beam="1">  1        1 0.12695064E+00 0.30000000E+03</pdfrwt>
<pdfrwt beam="2">0</pdfrwt>
<totfact> 0.23776556E+01</totfact>
</mgrwt>
</event>
<event>
 6    1  0.1929825E-004  0.3000000E+03  0.7818608E-02  0.1093470E+00
          1   -1    0    0  502    0  0.00000000000E+00  0.00000000000E+00  0.28525500499E+02  0.28525500499E+02  0.00000000000E+00 0.  1.
         13   -1    0    0    0    0 -0.00000000000E+00 -0.00000000000E+00 -0.10000000000E+04  0.10000000000E+04  0.00000000000E+00 0.  1.
    9000005    2    1    2  501    0  0.92900605226E+00  0.11592382929E+02 -0.94334894439E+03  0.99809043447E+03  0.32579447217E+03 0.  0.
         13    1    3    3    0    0  0.31337588287E+02 -0.42285915458E+02  0.82925709829E-01  0.52632214113E+02  0.00000000000E+00 0.  1.
          1    1    3    3  501    0 -0.30408582235E+02  0.53878298387E+02 -0.94343187010E+03  0.94545822035E+03  0.00000000000E+00 0.  1.
         21    1    1    2  502  501 -0.92900605226E+00 -0.11592382929E+02 -0.28125555108E+02  0.30435066032E+02  0.00000000000E+00 0. -1.
<mgrwt>
<rscale>  1 0.30000000E+03</rscale>
<asrwt>0</asrwt>
<pdfrwt beam="1">  1        1 0.10372931E+00 0.30000000E+03</pdfrwt>
<pdfrwt beam="2">0</pdfrwt>
<totfact> 0.32432783E+01</totfact>
</mgrwt>
</event>
<event>
 6    1  0.1929825E-004  0.3000000E+03  0.7818608E-02  0.1093470E+00
          1   -1    0    0  502    0  0.00000000000E+00  0.00000000000E+00  0.23817960559E+02  0.23817960559E+02  0.00000000000E+00 0.  1.
         13   -1    0    0    0    0 -0.00000000000E+00 -0.00000000000E+00 -0.10000000000E+04  0.10000000000E+04  0.00000000000E+00 0.  1.
    9000005    2    1    2  501    0 -0.10791796256E+02 -0.20070805901E+01 -0.92177231121E+03  0.96831201704E+03  0.29638400329E+03 0.  0.
         13    1    3    3    0    0 -0.40479724158E+02 -0.14488890988E+03 -0.44939419242E+03  0.47390562822E+03  0.00000000000E+00 0.  1.
          1    1    3    3  501    0  0.29687927902E+02  0.14288182929E+03 -0.47237811879E+03  0.49440638883E+03  0.00000000000E+00 0.  1.
         21    1    1    2  502  501  0.10791796256E+02  0.20070805901E+01 -0.54409728234E+02  0.55505943515E+02  0.00000000000E+00 0.  1.
<mgrwt>
<rscale>  1 0.30000000E+03</rscale>
<asrwt>0</asrwt>
<pdfrwt beam="1">  1        1 0.86610948E-01 0.30000000E+03</pdfrwt>
<pdfrwt beam="2">0</pdfrwt>
<totfact> 0.42048103E+01</totfact>
</mgrwt>
</event>
<event>
 6    1  0.1929825E-004  0.3000000E+03  0.7818608E-02  0.1093470E+00
          3   -1    0    0  502    0  0.00000000000E+00  0.00000000000E+00  0.26865662703E+02  0.26865662703E+02  0.00000000000E+00 0.  1.
         13   -1    0    0    0    0 -0.00000000000E+00 -0.00000000000E+00 -0.10000000000E+04  0.10000000000E+04  0.00000000000E+00 0.  1.
    9000005    2    1    2  501    0 -0.37866771729E+01 -0.93434672411E+01 -0.96069830042E+03  0.10108564679E+04  0.31430548041E+03 0.  0.
         13    1    3    3    0    0 -0.96443479442E+01  0.86714620418E+02 -0.88264299310E+03  0.88694480781E+03  0.00000000000E+00 0.  1.
          3    1    3    3  501    0  0.58576707714E+01 -0.96058087659E+02 -0.78055307325E+02  0.12391166012E+03  0.00000000000E+00 0.  1.
         21    1    1    2  502  501  0.37866771729E+01  0.93434672411E+01 -0.12436036876E+02  0.16009194773E+02  0.00000000000E+00 0. -1.
<mgrwt>
<rscale>  1 0.30000000E+03</rscale>
<asrwt>0</asrwt>
<pdfrwt beam="1">  1        3 0.97693525E-01 0.30000000E+03</pdfrwt>
<pdfrwt beam="2">0</pdfrwt>
<totfact> 0.41616190E+00</totfact>
</mgrwt>
</event>
<event>
 6    1  0.1929825E-004  0.3000000E+03  0.7818608E-02  0.1093470E+00
          1   -1    0    0  502    0  0.00000000000E+00  0.00000000000E+00  0.60783558840E+02  0.60783558840E+02  0.00000000000E+00 0.  1.
         13   -1    0    0    0    0 -0.00000000000E+00 -0.00000000000E+00 -0.10000000000E+04  0.10000000000E+04  0.00000000000E+00 0.  1.
    9000005    2    1    2  501    0  0.41729363735E+02  0.17195702765E+02 -0.95765655276E+03  0.10120283570E+04  0.32412696636E+03 0.  0.
         13    1    3    3    0    0 -0.11376572306E+03 -0.58308885254E+02 -0.22051733561E+03  0.25489303864E+03  0.00000000000E+00 0.  1.
          3    1    3    3  501    0  0.15549508680E+03  0.75504588019E+02 -0.73713921716E+03  0.75713531835E+03  0.00000000000E+00 0.  1.
         21    1    1    2  502  501 -0.41729363735E+02 -0.17195702765E+02  0.18440111601E+02  0.48755201847E+02  0.00000000000E+00 0.  1.
<mgrwt>
<rscale>  1 0.30000000E+03</rscale>
<asrwt>0</asrwt>
<pdfrwt beam="1">  1        1 0.22103159E+00 0.30000000E+03</pdfrwt>
<pdfrwt beam="2">0</pdfrwt>
<totfact> 0.81520019E+00</totfact>
</mgrwt>
</event>
<event>
 6    1  0.1929825E-004  0.3000000E+03  0.7818608E-02  0.1093470E+00
          1   -1    0    0  502    0  0.00000000000E+00  0.00000000000E+00  0.51147251001E+02  0.51147251001E+02  0.00000000000E+00 0.  1.
         13   -1    0    0    0    0 -0.00000000000E+00 -0.00000000000E+00 -0.10000000000E+04  0.10000000000E+04  0.00000000000E+00 0.  1.
    9000005    2    1    2  501    0 -0.26591503153E+02  0.43739350931E+02 -0.94346505124E+03  0.99967622860E+03  0.32650577371E+03 0.  0.
         13    1    3    3    0    0 -0.17671023624E+03  0.19545480895E+02 -0.53963289982E+03  0.56816564485E+03  0.00000000000E+00 0.  1.
          1    1    3    3  501    0  0.15011873309E+03  0.24193870037E+02 -0.40383215141E+03  0.43151058375E+03  0.00000000000E+00 0.  1.
         21    1    1    2  502  501  0.26591503153E+02 -0.43739350931E+02 -0.53876977630E+01  0.51471022401E+02  0.00000000000E+00 0.  1.
<mgrwt>
<rscale>  1 0.30000000E+03</rscale>
<asrwt>0</asrwt>
<pdfrwt beam="1">  1        1 0.18599040E+00 0.30000000E+03</pdfrwt>
<pdfrwt beam="2">0</pdfrwt>
<totfact> 0.11952581E+01</totfact>
</mgrwt>
</event>
<event>
 6    1  0.1929825E-004  0.3000000E+03  0.7818608E-02  0.1093470E+00
          1   -1    0    0  502    0  0.00000000000E+00  0.00000000000E+00  0.29475899534E+02  0.29475899534E+02  0.00000000000E+00 0.  1.
         13   -1    0    0    0    0 -0.00000000000E+00 -0.00000000000E+00 -0.10000000000E+04  0.10000000000E+04  0.00000000000E+00 0.  1.
    9000005    2    1    2  501    0 -0.11651334342E+02  0.13527082292E+02 -0.93179160560E+03  0.98682684672E+03  0.32445784564E+03 0.  0.
         13    1    3    3    0    0  0.11955641158E+03  0.86553309960E+02 -0.26495649640E+03  0.30329384432E+03  0.00000000000E+00 0.  1.
          3    1    3    3  501    0 -0.13120774592E+03 -0.73026227668E+02 -0.66683510920E+03  0.68353300240E+03  0.00000000000E+00 0.  1.
         21    1    1    2  502  501  0.11651334342E+02 -0.13527082292E+02 -0.38732494864E+02  0.42649052811E+02  0.00000000000E+00 0. -1.
<mgrwt>
<rscale>  1 0.30000000E+03</rscale>
<asrwt>0</asrwt>
<pdfrwt beam="1">  1        1 0.10718532E+00 0.30000000E+03</pdfrwt>
<pdfrwt beam="2">0</pdfrwt>
<totfact> 0.30889664E+01</totfact>
</mgrwt>
</event>
<event>
 6    1  0.1929825E-004  0.3000000E+03  0.7818608E-02  0.1093470E+00
          1   -1    0    0  502    0  0.00000000000E+00  0.00000000000E+00  0.36891013206E+02  0.36891013206E+02  0.00000000000E+00 0.  1.
         13   -1    0    0    0    0 -0.00000000000E+00 -0.00000000000E+00 -0.10000000000E+04  0.10000000000E+04  0.00000000000E+00 0.  1.
    9000005    2    1    2  501    0  0.45354325753E+02 -0.67059498784E+01 -0.92439553559E+03  0.97688504740E+03  0.31256248173E+03 0.  0.
         13    1    3    3    0    0 -0.91232274700E+02  0.59506846693E+02 -0.68372005228E+03  0.69234204165E+03  0.00000000000E+00 0.  1.
          1    1    3    3  501    0  0.13658660045E+03 -0.66212796572E+02 -0.24067548331E+03  0.28454300575E+03  0.00000000000E+00 0.  1.
         21    1    1    2  502  501 -0.45354325753E+02  0.67059498784E+01 -0.38713451200E+02  0.60005965804E+02  0.00000000000E+00 0. -1.
<mgrwt>
<rscale>  1 0.30000000E+03</rscale>
<asrwt>0</asrwt>
<pdfrwt beam="1">  1        1 0.13414942E+00 0.30000000E+03</pdfrwt>
<pdfrwt beam="2">0</pdfrwt>
<totfact> 0.21728931E+01</totfact>
</mgrwt>
</event>
<event>
 6    1  0.1929825E-004  0.3000000E+03  0.7818608E-02  0.1093470E+00
          1   -1    0    0  502    0  0.00000000000E+00  0.00000000000E+00  0.46782423651E+02  0.46782423651E+02  0.00000000000E+00 0.  1.
         13   -1    0    0    0    0 -0.00000000000E+00 -0.00000000000E+00 -0.10000000000E+04  0.10000000000E+04  0.00000000000E+00 0.  1.
    9000005    2    1    2  501    0 -0.12572008538E+02 -0.64596752366E+01 -0.97235344698E+03  0.10229924184E+04  0.31755704930E+03 0.  0.
         13    1    3    3    0    0 -0.68225088476E+02 -0.98688201791E+01 -0.23988422229E+02  0.72989730170E+02  0.00000000000E+00 0.  1.
          1    1    3    3  501    0  0.55653079939E+02  0.34091449425E+01 -0.94836502475E+03  0.95000268828E+03  0.00000000000E+00 0.  1.
         21    1    1    2  502  501  0.12572008538E+02  0.64596752366E+01  0.19135870627E+02  0.23790005201E+02  0.00000000000E+00 0. -1.
<mgrwt>
<rscale>  1 0.30000000E+03</rscale>
<asrwt>0</asrwt>
<pdfrwt beam="1">  1        1 0.17011826E+00 0.30000000E+03</pdfrwt>
<pdfrwt beam="2">0</pdfrwt>
<totfact> 0.14268192E+01</totfact>
</mgrwt>
</event>
<event>
 6    1  0.1929825E-004  0.3000000E+03  0.7818608E-02  0.1093470E+00
          1   -1    0    0  502    0  0.00000000000E+00  0.00000000000E+00  0.60279726583E+02  0.60279726583E+02  0.00000000000E+00 0.  1.
         13   -1    0    0    0    0 -0.00000000000E+00 -0.00000000000E+00 -0.10000000000E+04  0.10000000000E+04  0.00000000000E+00 0.  1.
    9000005    2    1    2  501    0  0.20297085992E+02 -0.30942415726E+02 -0.96057794342E+03  0.10178009414E+04  0.33442393183E+03 0.  0.
         13    1    3    3    0    0  0.14856472124E+03 -0.45423374843E+02 -0.78300944318E+03  0.79827222643E+03  0.00000000000E+00 0.  1.
          3    1    3    3  501    0 -0.12826763525E+03  0.14480959116E+02 -0.17756850024E+03  0.21952871500E+03  0.00000000000E+00 0.  1.
         21    1    1    2  502  501 -0.20297085992E+02  0.30942415726E+02  0.20857670005E+02  0.42478785161E+02  0.00000000000E+00 0.  1.
<mgrwt>
<rscale>  1 0.30000000E+03</rscale>
<asrwt>0</asrwt>
<pdfrwt beam="1">  1        1 0.21919947E+00 0.30000000E+03</pdfrwt>
<pdfrwt beam="2">0</pdfrwt>
<totfact> 0.83148285E+00</totfact>
</mgrwt>
</event>
<event>
 6    1  0.1929825E-004  0.3000000E+03  0.7818608E-02  0.1093470E+00
          1   -1    0    0  502    0  0.00000000000E+00  0.00000000000E+00  0.45557825203E+02  0.45557825203E+02  0.00000000000E+00 0.  1.
         13   -1    0    0    0    0 -0.00000000000E+00 -0.00000000000E+00 -0.10000000000E+04  0.10000000000E+04  0.00000000000E+00 0.  1.
    9000005    2    1    2  501    0 -0.26950207682E+02 -0.17817812616E+02 -0.95866056118E+03  0.10129758835E+04  0.32564747945E+03 0.  0.
         13    1    3    3    0    0 -0.55691622980E+02  0.91694988702E+02 -0.84765003888E+03  0.85441214659E+03  0.00000000000E+00 0.  1.
          3    1    3    3  501    0  0.28741415297E+02 -0.10951280132E+03 -0.11101052231E+03  0.15856373693E+03  0.00000000000E+00 0.  1.
         21    1    1    2  502  501  0.26950207682E+02  0.17817812616E+02  0.42183863879E+01  0.32581941689E+02  0.00000000000E+00 0.  1.
<mgrwt>
<rscale>  1 0.30000000E+03</rscale>
<asrwt>0</asrwt>
<pdfrwt beam="1">  1        1 0.16566517E+00 0.30000000E+03</pdfrwt>
<pdfrwt beam="2">0</pdfrwt>
<totfact> 0.15003776E+01</totfact>
</mgrwt>
</event>
<event>
 6    1  0.1929825E-004  0.3000000E+03  0.7818608E-02  0.1093470E+00
          1   -1    0    0  502    0  0.00000000000E+00  0.00000000000E+00  0.37654069101E+02  0.37654069101E+02  0.00000000000E+00 0.  1.
         13   -1    0    0    0    0 -0.00000000000E+00 -0.00000000000E+00 -0.10000000000E+04  0.10000000000E+04  0.00000000000E+00 0.  1.
    9000005    2    1    2  501    0 -0.32104383259E+02  0.33976916844E+02 -0.95264608686E+03  0.98991300421E+03  0.26496804863E+03 0.  0.
         13    1    3    3    0    0 -0.34812546104E+02  0.39649659468E+02 -0.18750617471E+02  0.55996379505E+02  0.00000000000E+00 0.  1.
          3    1    3    3  501    0  0.27081628449E+01 -0.56727426237E+01 -0.93389546939E+03  0.93391662470E+03  0.00000000000E+00 0.  1.
         21    1    1    2  502  501  0.32104383259E+02 -0.33976916844E+02 -0.96998440418E+01  0.47741064893E+02  0.00000000000E+00 0. -1.
<mgrwt>
<rscale>  1 0.30000000E+03</rscale>
<asrwt>0</asrwt>
<pdfrwt beam="1">  1        1 0.13692418E+00 0.30000000E+03</pdfrwt>
<pdfrwt beam="2">0</pdfrwt>
<totfact> 0.21001772E+01</totfact>
</mgrwt>
</event>
<event>
 6    1  0.1929825E-004  0.3000000E+03  0.7818608E-02  0.1093470E+00
          1   -1    0    0  502    0  0.00000000000E+00  0.00000000000E+00  0.29983035278E+02  0.29983035278E+02  0.00000000000E+00 0.  1.
         13   -1    0    0    0    0 -0.00000000000E+00 -0.00000000000E+00 -0.10000000000E+04  0.10000000000E+04  0.00000000000E+00 0.  1.
    9000005    2    1    2  501    0  0.90523013046E+01  0.49632081904E+01 -0.96395750084E+03  0.10180124590E+04  0.32715245010E+03 0.  0.
         13    1    3    3    0    0 -0.12467998383E+03  0.32078025457E+01 -0.78367240067E+03  0.79353501494E+03  0.00000000000E+00 0.  1.
          1    1    3    3  501    0  0.13373228514E+03  0.17554056447E+01 -0.18028510018E+03  0.22447744404E+03  0.00000000000E+00 0.  1.
         21    1    1    2  502  501 -0.90523013046E+01 -0.49632081904E+01 -0.60594638794E+01  0.11970576300E+02  0.00000000000E+00 0. -1.
<mgrwt>
<rscale>  1 0.30000000E+03</rscale>
<asrwt>0</asrwt>
<pdfrwt beam="1">  1        1 0.10902945E+00 0.30000000E+03</pdfrwt>
<pdfrwt beam="2">0</pdfrwt>
<totfact> 0.30109154E+01</totfact>
</mgrwt>
</event>
<event>
 6    1  0.1929825E-004  0.3000000E+03  0.7818608E-02  0.1093470E+00
          1   -1    0    0  502    0  0.00000000000E+00  0.00000000000E+00  0.31942775907E+02  0.31942775907E+02  0.00000000000E+00 0.  1.
         13   -1    0    0    0    0 -0.00000000000E+00 -0.00000000000E+00 -0.10000000000E+04  0.10000000000E+04  0.00000000000E+00 0.  1.
    9000005    2    1    2  501    0 -0.47887019375E+01  0.11077570772E+02 -0.96583125875E+03  0.10196708909E+04  0.32673086951E+03 0.  0.
         13    1    3    3    0    0 -0.10192677933E+03 -0.12114625518E+03 -0.38967634698E+03  0.42061043602E+03  0.00000000000E+00 0.  1.
          3    1    3    3  501    0  0.97138077394E+02  0.13222382595E+03 -0.57615491176E+03  0.59906045486E+03  0.00000000000E+00 0.  1.
         21    1    1    2  502  501  0.47887019375E+01 -0.11077570772E+02 -0.22259653477E+01  0.12271885029E+02  0.00000000000E+00 0.  1.
<mgrwt>
<rscale>  1 0.30000000E+03</rscale>
<asrwt>0</asrwt>
<pdfrwt beam="1">  1        1 0.11615579E+00 0.30000000E+03</pdfrwt>
<pdfrwt beam="2">0</pdfrwt>
<totfact> 0.27342537E+01</totfact>
</mgrwt>
</event>
<event>
 6    1  0.1929825E-004  0.3000000E+03  0.7818608E-02  0.1093470E+00
          1   -1    0    0  502    0  0.00000000000E+00  0.00000000000E+00  0.38751928581E+02  0.38751928581E+02  0.00000000000E+00 0.  1.
         13   -1    0    0    0    0 -0.00000000000E+00 -0.00000000000E+00 -0.10000000000E+04  0.10000000000E+04  0.00000000000E+00 0.  1.
    9000005    2    1    2  501    0 -0.20252432245E+01  0.26769831955E+02 -0.95562593415E+03  0.10113232221E+04  0.32989848132E+03 0.  0.
         13    1    3    3    0    0  0.36404635854E+02 -0.11317702587E+03 -0.75160952068E+03  0.76095414334E+03  0.00000000000E+00 0.  1.
          3    1    3    3  501    0 -0.38429879078E+02  0.13994685782E+03 -0.20401641347E+03  0.25036907873E+03  0.00000000000E+00 0.  1.
         21    1    1    2  502  501  0.20252432245E+01 -0.26769831955E+02 -0.56221372674E+01  0.27428706504E+02  0.00000000000E+00 0.  1.
<mgrwt>
<rscale>  1 0.30000000E+03</rscale>
<asrwt>0</asrwt>
<pdfrwt beam="1">  1        1 0.14091640E+00 0.30000000E+03</pdfrwt>
<pdfrwt beam="2">0</pdfrwt>
<totfact> 0.20009938E+01</totfact>
</mgrwt>
</event>
<event>
 6    1  0.1929825E-004  0.3000000E+03  0.7818608E-02  0.1093470E+00
          1   -1    0    0  502    0  0.00000000000E+00  0.00000000000E+00  0.31989474933E+02  0.31989474933E+02  0.00000000000E+00 0.  1.
         13   -1    0    0    0    0 -0.00000000000E+00 -0.00000000000E+00 -0.10000000000E+04  0.10000000000E+04  0.00000000000E+00 0.  1.
    9000005    2    1    2  501    0 -0.10152685830E+01 -0.12095261278E+02 -0.93351338989E+03  0.99541928965E+03  0.34534763211E+03 0.  0.
         13    1    3    3    0    0 -0.28426745176E+02  0.16439898354E+03 -0.43819286472E+03  0.46887961389E+03  0.00000000000E+00 0.  1.
          1    1    3    3  501    0  0.27411476593E+02 -0.17649424482E+03 -0.49532052516E+03  0.52653967576E+03  0.00000000000E+00 0.  1.
         21    1    1    2  502  501  0.10152685830E+01  0.12095261278E+02 -0.34497135181E+02  0.36570185279E+02  0.00000000000E+00 0. -1.
<mgrwt>
<rscale>  1 0.30000000E+03</rscale>
<asrwt>0</asrwt>
<pdfrwt beam="1">  1        1 0.11632561E+00 0.30000000E+03</pdfrwt>
<pdfrwt beam="2">0</pdfrwt>
<totfact> 0.27281061E+01</totfact>
</mgrwt>
</event>
<event>
 6    1  0.1929825E-004  0.3000000E+03  0.7818608E-02  0.1093470E+00
          1   -1    0    0  502    0  0.00000000000E+00  0.00000000000E+00  0.33550348640E+02  0.33550348640E+02  0.00000000000E+00 0.  1.
         13   -1    0    0    0    0 -0.00000000000E+00 -0.00000000000E+00 -0.10000000000E+04  0.10000000000E+04  0.00000000000E+00 0.  1.
    9000005    2    1    2  501    0 -0.52921431151E+01 -0.39582922866E+02 -0.84833730000E+03  0.90886938736E+03  0.32368591899E+03 0.  0.
         13    1    3    3    0    0  0.28929145708E+02 -0.40792684980E+02 -0.86796221155E+03  0.86940171342E+03  0.00000000000E+00 0.  1.
          3    1    3    3  501    0 -0.34221288823E+02  0.12097621134E+01  0.19624911550E+02  0.39467673942E+02  0.00000000000E+00 0.  1.
         21    1    1    2  502  501  0.52921431151E+01  0.39582922866E+02 -0.11811235136E+03  0.12468096128E+03  0.00000000000E+00 0.  1.
<mgrwt>
<rscale>  1 0.30000000E+03</rscale>
<asrwt>0</asrwt>
<pdfrwt beam="1">  1        1 0.12200153E+00 0.30000000E+03</pdfrwt>
<pdfrwt beam="2">0</pdfrwt>
<totfact> 0.25330197E+01</totfact>
</mgrwt>
</event>
<event>
 6    1  0.1929825E-004  0.3000000E+03  0.7818608E-02  0.1093470E+00
          1   -1    0    0  502    0  0.00000000000E+00  0.00000000000E+00  0.29011437798E+02  0.29011437798E+02  0.00000000000E+00 0.  1.
         13   -1    0    0    0    0 -0.00000000000E+00 -0.00000000000E+00 -0.10000000000E+04  0.10000000000E+04  0.00000000000E+00 0.  1.
    9000005    2    1    2  501    0 -0.65534011046E+01 -0.71020306008E+01 -0.93785452635E+03  0.99449694466E+03  0.33069574300E+03 0.  0.
         13    1    3    3    0    0 -0.13450152641E+03  0.68382361913E+02 -0.26049863692E+03  0.30104210314E+03  0.00000000000E+00 0.  1.
          3    1    3    3  501    0  0.12794812530E+03 -0.75484392514E+02 -0.67735588943E+03  0.69345484152E+03  0.00000000000E+00 0.  1.
         21    1    1    2  502  501  0.65534011046E+01  0.71020306008E+01 -0.33134035854E+02  0.34514493139E+02  0.00000000000E+00 0.  1.
<mgrwt>
<rscale>  1 0.30000000E+03</rscale>
<asrwt>0</asrwt>
<pdfrwt beam="1">  1        1 0.10549636E+00 0.30000000E+03</pdfrwt>
<pdfrwt beam="2">0</pdfrwt>
<totfact> 0.31630220E+01</totfact>
</mgrwt>
</event>
<event>
 6    1  0.1929825E-004  0.3000000E+03  0.7818608E-02  0.1093470E+00
          1   -1    0    0  502    0  0.00000000000E+00  0.00000000000E+00  0.10136685235E+03  0.10136685235E+03  0.00000000000E+00 0.  1.
         13   -1    0    0    0    0 -0.00000000000E+00 -0.00000000000E+00 -0.10000000000E+04  0.10000000000E+04  0.00000000000E+00 0.  1.
    9000005    2    1    2  501    0  0.20408847680E+02  0.31348424803E+00 -0.96872042847E+03  0.10283679053E+04  0.34453542752E+03 0.  0.
         13    1    3    3    0    0 -0.13791799924E+02 -0.96728472439E+02 -0.89850184384E+03  0.90379874669E+03  0.00000000000E+00 0.  1.
          1    1    3    3  501    0  0.34200647604E+02  0.97041956687E+02 -0.70218584622E+02  0.12456915862E+03  0.00000000000E+00 0.  1.
         21    1    1    2  502  501 -0.20408847680E+02 -0.31348424803E+00  0.70087280818E+02  0.72998947036E+02  0.00000000000E+00 0.  1.
<mgrwt>
<rscale>  1 0.30000000E+03</rscale>
<asrwt>0</asrwt>
<pdfrwt beam="1">  1        1 0.36860751E+00 0.30000000E+03</pdfrwt>
<pdfrwt beam="2">0</pdfrwt>
<totfact> 0.15705009E+00</totfact>
</mgrwt>
</event>
<event>
 6    1  0.1929825E-004  0.3000000E+03  0.7818608E-02  0.1093470E+00
          1   -1    0    0  502    0  0.00000000000E+00  0.00000000000E+00  0.29943929603E+02  0.29943929603E+02  0.00000000000E+00 0.  1.
         13   -1    0    0    0    0 -0.00000000000E+00 -0.00000000000E+00 -0.10000000000E+04  0.10000000000E+04  0.00000000000E+00 0.  1.
    9000005    2    1    2  501    0  0.11630861630E+02  0.87092216075E+01 -0.93653133954E+03  0.99340579799E+03  0.33098791827E+03 0.  0.
         13    1    3    3    0    0  0.14293094437E+03  0.67022124040E+02 -0.69213878504E+03  0.70991359878E+03  0.00000000000E+00 0.  1.
          1    1    3    3  501    0 -0.13130008274E+03 -0.58312902432E+02 -0.24439255450E+03  0.28349219921E+03  0.00000000000E+00 0.  1.
         21    1    1    2  502  501 -0.11630861630E+02 -0.87092216075E+01 -0.33524730854E+02  0.36538131618E+02  0.00000000000E+00 0.  1.
<mgrwt>
<rscale>  1 0.30000000E+03</rscale>
<asrwt>0</asrwt>
<pdfrwt beam="1">  1        1 0.10888725E+00 0.30000000E+03</pdfrwt>
<pdfrwt beam="2">0</pdfrwt>
<totfact> 0.30168332E+01</totfact>
</mgrwt>
</event>
<event>
 6    1  0.1929825E-004  0.3000000E+03  0.7818608E-02  0.1093470E+00
          1   -1    0    0  502    0  0.00000000000E+00  0.00000000000E+00  0.34379329668E+02  0.34379329668E+02  0.00000000000E+00 0.  1.
         13   -1    0    0    0    0 -0.00000000000E+00 -0.00000000000E+00 -0.10000000000E+04  0.10000000000E+04  0.00000000000E+00 0.  1.
    9000005    2    1    2  501    0 -0.40232774378E+02 -0.21082036892E+02 -0.86025444133E+03  0.91963975225E+03  0.32192614318E+03 0.  0.
         13    1    3    3    0    0 -0.92521589942E+02 -0.15242111150E+03 -0.39491710736E+03  0.43330354432E+03  0.00000000000E+00 0.  1.
          1    1    3    3  501    0  0.52288815564E+02  0.13133907460E+03 -0.46533733398E+03  0.48633620793E+03  0.00000000000E+00 0.  1.
         21    1    1    2  502  501  0.40232774378E+02  0.21082036892E+02 -0.10536622900E+03  0.11473957742E+03  0.00000000000E+00 0. -1.
<mgrwt>
<rscale>  1 0.30000000E+03</rscale>
<asrwt>0</asrwt>
<pdfrwt beam="1">  1        1 0.12501601E+00 0.30000000E+03</pdfrwt>
<pdfrwt beam="2">0</pdfrwt>
<totfact> 0.24368964E+01</totfact>
</mgrwt>
</event>
<event>
 6    1  0.1929825E-004  0.3000000E+03  0.7818608E-02  0.1093470E+00
          1   -1    0    0  502    0  0.00000000000E+00  0.00000000000E+00  0.53137055350E+02  0.53137055350E+02  0.00000000000E+00 0.  1.
         13   -1    0    0    0    0 -0.00000000000E+00 -0.00000000000E+00 -0.10000000000E+04  0.10000000000E+04  0.00000000000E+00 0.  1.
    9000005    2    1    2  501    0 -0.21563455453E+01  0.84911702283E+02 -0.86327330230E+03  0.93396543407E+03  0.34617335333E+03 0.  0.
         13    1    3    3    0    0  0.11788671504E+03  0.39185905317E+02 -0.75734523888E+03  0.76746636644E+03  0.00000000000E+00 0.  1.
          1    1    3    3  501    0 -0.12004306058E+03  0.45725796966E+02 -0.10592806342E+03  0.16649906763E+03  0.00000000000E+00 0.  1.
         21    1    1    2  502  501  0.21563455453E+01 -0.84911702283E+02 -0.83589642351E+02  0.11917162128E+03  0.00000000000E+00 0.  1.
<mgrwt>
<rscale>  1 0.30000000E+03</rscale>
<asrwt>0</asrwt>
<pdfrwt beam="1">  1        1 0.19322606E+00 0.30000000E+03</pdfrwt>
<pdfrwt beam="2">0</pdfrwt>
<totfact> 0.11034078E+01</totfact>
</mgrwt>
</event>
<event>
 6    1  0.1929825E-004  0.3000000E+03  0.7818608E-02  0.1093470E+00
          1   -1    0    0  502    0  0.00000000000E+00  0.00000000000E+00  0.28286217702E+02  0.28286217702E+02  0.00000000000E+00 0.  1.
         13   -1    0    0    0    0 -0.00000000000E+00 -0.00000000000E+00 -0.10000000000E+04  0.10000000000E+04  0.00000000000E+00 0.  1.
    9000005    2    1    2  501    0  0.26460796327E+01 -0.15065463930E+02 -0.94475504697E+03  0.99729035748E+03  0.31904856745E+03 0.  0.
         13    1    3    3    0    0 -0.98491440922E+02 -0.33487264983E+02 -0.93567071703E+02  0.13991696737E+03  0.00000000000E+00 0.  1.
          1    1    3    3  501    0  0.10113752055E+03  0.18421801053E+02 -0.85118797527E+03  0.85737339011E+03  0.00000000000E+00 0.  1.
         21    1    1    2  502  501 -0.26460796327E+01  0.15065463930E+02 -0.26958735324E+02  0.30995860226E+02  0.00000000000E+00 0.  1.
<mgrwt>
<rscale>  1 0.30000000E+03</rscale>
<asrwt>0</asrwt>
<pdfrwt beam="1">  1        1 0.10285919E+00 0.30000000E+03</pdfrwt>
<pdfrwt beam="2">0</pdfrwt>
<totfact> 0.32838879E+01</totfact>
</mgrwt>
</event>
<event>
 6    1  0.1929825E-004  0.3000000E+03  0.7818608E-02  0.1093470E+00
          1   -1    0    0  502    0  0.00000000000E+00  0.00000000000E+00  0.28426922540E+02  0.28426922540E+02  0.00000000000E+00 0.  1.
         13   -1    0    0    0    0 -0.00000000000E+00 -0.00000000000E+00 -0.10000000000E+04  0.10000000000E+04  0.00000000000E+00 0.  1.
    9000005    2    1    2  501    0  0.10242288975E+01  0.96150945298E+01 -0.96532535741E+03  0.10169146207E+04  0.31963854752E+03 0.  0.
         13    1    3    3    0    0  0.12720229950E+03  0.31216772950E+02 -0.78452335953E+03  0.79538155219E+03  0.00000000000E+00 0.  1.
          3    1    3    3  501    0 -0.12617807060E+03 -0.21601678420E+02 -0.18080199788E+03  0.22153306852E+03  0.00000000000E+00 0.  1.
         21    1    1    2  502  501 -0.10242288975E+01 -0.96150945298E+01 -0.62477200468E+01  0.11512301830E+02  0.00000000000E+00 0. -1.
<mgrwt>
<rscale>  1 0.30000000E+03</rscale>
<asrwt>0</asrwt>
<pdfrwt beam="1">  1        1 0.10337085E+00 0.30000000E+03</pdfrwt>
<pdfrwt beam="2">0</pdfrwt>
<totfact> 0.32599193E+01</totfact>
</mgrwt>
</event>
<event>
 6    1  0.1929825E-004  0.3000000E+03  0.7818608E-02  0.1093470E+00
          1   -1    0    0  502    0  0.00000000000E+00  0.00000000000E+00  0.66371036408E+02  0.66371036408E+02  0.00000000000E+00 0.  1.
         13   -1    0    0    0    0 -0.00000000000E+00 -0.00000000000E+00 -0.10000000000E+04  0.10000000000E+04  0.00000000000E+00 0.  1.
    9000005    2    1    2  501    0 -0.11361235031E+03 -0.66238892888E+01 -0.87364887569E+03  0.93772713645E+03  0.32112019929E+03 0.  0.
         13    1    3    3    0    0 -0.50182848062E+02 -0.14617578691E+03 -0.63915295420E+03  0.65757294483E+03  0.00000000000E+00 0.  1.
          3    1    3    3  501    0 -0.63429502244E+02  0.13955189762E+03 -0.23449592150E+03  0.28015419162E+03  0.00000000000E+00 0.  1.
         21    1    1    2  502  501  0.11361235031E+03  0.66238892888E+01 -0.59980087901E+02  0.12864389996E+03  0.00000000000E+00 0.  1.
<mgrwt>
<rscale>  1 0.30000000E+03</rscale>
<asrwt>0</asrwt>
<pdfrwt beam="1">  1        1 0.24134973E+00 0.30000000E+03</pdfrwt>
<pdfrwt beam="2">0</pdfrwt>
<totfact> 0.65477530E+00</totfact>
</mgrwt>
</event>
<event>
 6    1  0.1929825E-004  0.3000000E+03  0.7818608E-02  0.1093470E+00
          1   -1    0    0  502    0  0.00000000000E+00  0.00000000000E+00  0.40747622311E+02  0.40747622311E+02  0.00000000000E+00 0.  1.
         13   -1    0    0    0    0 -0.00000000000E+00 -0.00000000000E+00 -0.10000000000E+04  0.10000000000E+04  0.00000000000E+00 0.  1.
    9000005    2    1    2  501    0 -0.38555969046E+01  0.11108024916E+02 -0.97115824072E+03  0.10240143196E+04  0.32452849551E+03 0.  0.
         13    1    3    3    0    0 -0.62659043117E+02 -0.14459851109E+03 -0.43854332491E+03  0.46599906965E+03  0.00000000000E+00 0.  1.
          3    1    3    3  501    0  0.58803446212E+02  0.15570653600E+03 -0.53261491581E+03  0.55801524996E+03  0.00000000000E+00 0.  1.
         21    1    1    2  502  501  0.38555969046E+01 -0.11108024916E+02  0.11905863028E+02  0.16733302707E+02  0.00000000000E+00 0.  1.
<mgrwt>
<rscale>  1 0.30000000E+03</rscale>
<asrwt>0</asrwt>
<pdfrwt beam="1">  1        1 0.14817348E+00 0.30000000E+03</pdfrwt>
<pdfrwt beam="2">0</pdfrwt>
<totfact> 0.18354296E+01</totfact>
</mgrwt>
</event>
<event>
 6    1  0.1929825E-004  0.3000000E+03  0.7818608E-02  0.1093470E+00
          1   -1    0    0  502    0  0.00000000000E+00  0.00000000000E+00  0.32026280041E+02  0.32026280041E+02  0.00000000000E+00 0.  1.
         13   -1    0    0    0    0 -0.00000000000E+00 -0.00000000000E+00 -0.10000000000E+04  0.10000000000E+04  0.00000000000E+00 0.  1.
    9000005    2    1    2  501    0 -0.16551170381E+02 -0.19221255590E+02 -0.92684323912E+03  0.98370325901E+03  0.32861879736E+03 0.  0.
         13    1    3    3    0    0  0.12885178276E+03  0.80724574724E+02 -0.38909686377E+03  0.41775065324E+03  0.00000000000E+00 0.  1.
          1    1    3    3  501    0 -0.14540295314E+03 -0.99945830314E+02 -0.53774637535E+03  0.56595260577E+03  0.00000000000E+00 0.  1.
         21    1    1    2  502  501  0.16551170381E+02  0.19221255590E+02 -0.41130480837E+02  0.48323021028E+02  0.00000000000E+00 0.  1.
<mgrwt>
<rscale>  1 0.30000000E+03</rscale>
<asrwt>0</asrwt>
<pdfrwt beam="1">  1        1 0.11645945E+00 0.30000000E+03</pdfrwt>
<pdfrwt beam="2">0</pdfrwt>
<totfact> 0.27232744E+01</totfact>
</mgrwt>
</event>
<event>
 6    1  0.1929825E-004  0.3000000E+03  0.7818608E-02  0.1093470E+00
          1   -1    0    0  502    0  0.00000000000E+00  0.00000000000E+00  0.34828136751E+02  0.34828136751E+02  0.00000000000E+00 0.  1.
         13   -1    0    0    0    0 -0.00000000000E+00 -0.00000000000E+00 -0.10000000000E+04  0.10000000000E+04  0.00000000000E+00 0.  1.
    9000005    2    1    2  501    0  0.11287475887E+02  0.35344066870E+01 -0.96094976537E+03  0.10222692653E+04  0.34852560880E+03 0.  0.
         13    1    3    3    0    0  0.11001378468E+03  0.14042356032E+03 -0.44533518476E+03  0.47973454732E+03  0.00000000000E+00 0.  1.
          3    1    3    3  501    0 -0.98726308795E+02 -0.13688915363E+03 -0.51561458061E+03  0.54253471794E+03  0.00000000000E+00 0.  1.
         21    1    1    2  502  501 -0.11287475887E+02 -0.35344066870E+01 -0.42220978779E+01  0.12558871487E+02  0.00000000000E+00 0. -1.
<mgrwt>
<rscale>  1 0.30000000E+03</rscale>
<asrwt>0</asrwt>
<pdfrwt beam="1">  1        1 0.12664804E+00 0.30000000E+03</pdfrwt>
<pdfrwt beam="2">0</pdfrwt>
<totfact> 0.23867996E+01</totfact>
</mgrwt>
</event>
<event>
 6    1  0.1929825E-004  0.3000000E+03  0.7818608E-02  0.1093470E+00
          1   -1    0    0  502    0  0.00000000000E+00  0.00000000000E+00  0.18776766086E+02  0.18776766086E+02  0.00000000000E+00 0.  1.
         13   -1    0    0    0    0 -0.00000000000E+00 -0.00000000000E+00 -0.10000000000E+04  0.10000000000E+04  0.00000000000E+00 0.  1.
    9000005    2    1    2  501    0 -0.10985576004E+02  0.12546981381E+02 -0.96216275110E+03  0.99345066045E+03  0.24679737743E+03 0.  0.
         13    1    3    3    0    0  0.45874855811E+02  0.67752500393E+01 -0.21605562707E+02  0.51158642952E+02  0.00000000000E+00 0.  1.
          1    1    3    3  501    0 -0.56860431815E+02  0.57717313415E+01 -0.94055718840E+03  0.94229201749E+03  0.00000000000E+00 0.  1.
         21    1    1    2  502  501  0.10985576004E+02 -0.12546981381E+02 -0.19060482810E+02  0.25326105639E+02  0.00000000000E+00 0.  1.
<mgrwt>
<rscale>  1 0.30000000E+03</rscale>
<asrwt>0</asrwt>
<pdfrwt beam="1">  1        1 0.68279293E-01 0.30000000E+03</pdfrwt>
<pdfrwt beam="2">0</pdfrwt>
<totfact> 0.58318085E+01</totfact>
</mgrwt>
</event>
<event>
 6    1  0.1929825E-004  0.3000000E+03  0.7818608E-02  0.1093470E+00
          1   -1    0    0  502    0  0.00000000000E+00  0.00000000000E+00  0.62818653158E+02  0.62818653158E+02  0.00000000000E+00 0.  1.
         13   -1    0    0    0    0 -0.00000000000E+00 -0.00000000000E+00 -0.10000000000E+04  0.10000000000E+04  0.00000000000E+00 0.  1.
    9000005    2    1    2  501    0  0.31715200019E+02  0.26999694864E+02 -0.96482796491E+03  0.10128269246E+04  0.30527125618E+03 0.  0.
         13    1    3    3    0    0  0.12267161650E+03 -0.10505383881E+02 -0.15940230949E+03  0.20141446039E+03  0.00000000000E+00 0.  1.
          3    1    3    3  501    0 -0.90956416478E+02  0.37505078745E+02 -0.80542565543E+03  0.81141246419E+03  0.00000000000E+00 0.  1.
         21    1    1    2  502  501 -0.31715200019E+02 -0.26999694864E+02  0.27646618072E+02  0.49991728574E+02  0.00000000000E+00 0. -1.
<mgrwt>
<rscale>  1 0.30000000E+03</rscale>
<asrwt>0</asrwt>
<pdfrwt beam="1">  1        1 0.22843195E+00 0.30000000E+03</pdfrwt>
<pdfrwt beam="2">0</pdfrwt>
<totfact> 0.75265863E+00</totfact>
</mgrwt>
</event>
<event>
 6    1  0.1929825E-004  0.3000000E+03  0.7818608E-02  0.1093470E+00
          3   -1    0    0  502    0  0.00000000000E+00  0.00000000000E+00  0.71035488309E+01  0.71035488309E+01  0.00000000000E+00 0.  1.
         13   -1    0    0    0    0 -0.00000000000E+00 -0.00000000000E+00 -0.10000000000E+04  0.10000000000E+04  0.00000000000E+00 0.  1.
    9000005    2    1    2  501    0 -0.68258074563E+01 -0.45960005591E+01 -0.94993620484E+03  0.96336229104E+03  0.16006372375E+03 0.  0.
         13    1    3    3    0    0 -0.22373684815E+02  0.37855938598E+02 -0.87314188856E+03  0.87424848380E+03  0.00000000000E+00 0.  1.
          1    1    3    3  501    0  0.15547877359E+02 -0.42451939157E+02 -0.76794316278E+02  0.89113807242E+02  0.00000000000E+00 0.  1.
         21    1    1    2  502  501  0.68258074563E+01  0.45960005591E+01 -0.42960246330E+02  0.43741257793E+02  0.00000000000E+00 0.  1.
<mgrwt>
<rscale>  1 0.30000000E+03</rscale>
<asrwt>0</asrwt>
<pdfrwt beam="1">  1        3 0.25831141E-01 0.30000000E+03</pdfrwt>
<pdfrwt beam="2">0</pdfrwt>
<totfact> 0.62063787E+01</totfact>
</mgrwt>
</event>
<event>
 6    1  0.1929825E-004  0.3000000E+03  0.7818608E-02  0.1093470E+00
          1   -1    0    0  502    0  0.00000000000E+00  0.00000000000E+00  0.29217571377E+02  0.29217571377E+02  0.00000000000E+00 0.  1.
         13   -1    0    0    0    0 -0.00000000000E+00 -0.00000000000E+00 -0.10000000000E+04  0.10000000000E+04  0.00000000000E+00 0.  1.
    9000005    2    1    2  501    0  0.10919390279E+02 -0.10309132367E+02 -0.96550208346E+03  0.10132992379E+04  0.30717350335E+03 0.  0.
         13    1    3    3    0    0  0.13486381158E+02  0.12727274524E+03 -0.21439095517E+03  0.24968723599E+03  0.00000000000E+00 0.  1.
          1    1    3    3  501    0 -0.25669908788E+01 -0.13758187761E+03 -0.75111112828E+03  0.76361200195E+03  0.00000000000E+00 0.  1.
         21    1    1    2  502  501 -0.10919390279E+02  0.10309132367E+02 -0.52803451673E+01  0.15918333434E+02  0.00000000000E+00 0.  1.
<mgrwt>
<rscale>  1 0.30000000E+03</rscale>
<asrwt>0</asrwt>
<pdfrwt beam="1">  1        1 0.10624594E+00 0.30000000E+03</pdfrwt>
<pdfrwt beam="2">0</pdfrwt>
<totfact> 0.31298432E+01</totfact>
</mgrwt>
</event>
<event>
 6    1  0.1929825E-004  0.3000000E+03  0.7818608E-02  0.1093470E+00
          1   -1    0    0  502    0  0.00000000000E+00  0.00000000000E+00  0.56265519070E+02  0.56265519070E+02  0.00000000000E+00 0.  1.
         13   -1    0    0    0    0 -0.00000000000E+00 -0.00000000000E+00 -0.10000000000E+04  0.10000000000E+04  0.00000000000E+00 0.  1.
    9000005    2    1    2  501    0 -0.47969332485E+02 -0.43060575752E+02 -0.94035363580E+03  0.99171553722E+03  0.30834960087E+03 0.  0.
         13    1    3    3    0    0 -0.40805362718E+02  0.89522415173E+02 -0.76736052569E+03  0.77364172382E+03  0.00000000000E+00 0.  1.
          1    1    3    3  501    0 -0.71639697673E+01 -0.13258299092E+03 -0.17299311011E+03  0.21807381340E+03  0.00000000000E+00 0.  1.
         21    1    1    2  502  501  0.47969332485E+02  0.43060575752E+02 -0.33808451307E+01  0.64549981851E+02  0.00000000000E+00 0.  1.
<mgrwt>
<rscale>  1 0.30000000E+03</rscale>
<asrwt>0</asrwt>
<pdfrwt beam="1">  1        1 0.20460232E+00 0.30000000E+03</pdfrwt>
<pdfrwt beam="2">0</pdfrwt>
<totfact> 0.97409291E+00</totfact>
</mgrwt>
</event>
<event>
 6    1  0.1929825E-004  0.3000000E+03  0.7818608E-02  0.1093470E+00
          1   -1    0    0  502    0  0.00000000000E+00  0.00000000000E+00  0.28845062333E+02  0.28845062333E+02  0.00000000000E+00 0.  1.
         13   -1    0    0    0    0 -0.00000000000E+00 -0.00000000000E+00 -0.10000000000E+04  0.10000000000E+04  0.00000000000E+00 0.  1.
    9000005    2    1    2  501    0 -0.12437170878E+02 -0.19371978300E+02 -0.95729698087E+03  0.10019750097E+04  0.29496856390E+03 0.  0.
         13    1    3    3    0    0 -0.27690158999E+02 -0.67044326955E+02 -0.94836040226E+03  0.95113045334E+03  0.00000000000E+00 0.  1.
          1    1    3    3  501    0  0.15252988121E+02  0.47672348656E+02 -0.89365786021E+01  0.50844556347E+02  0.00000000000E+00 0.  1.
         21    1    1    2  502  501  0.12437170878E+02  0.19371978300E+02 -0.13857956801E+02  0.26870052649E+02  0.00000000000E+00 0.  1.
<mgrwt>
<rscale>  1 0.30000000E+03</rscale>
<asrwt>0</asrwt>
<pdfrwt beam="1">  1        1 0.10489136E+00 0.30000000E+03</pdfrwt>
<pdfrwt beam="2">0</pdfrwt>
<totfact> 0.31901731E+01</totfact>
</mgrwt>
</event>
<event>
 6    1  0.1929825E-004  0.3000000E+03  0.7818608E-02  0.1093470E+00
          1   -1    0    0  502    0  0.00000000000E+00  0.00000000000E+00  0.30507431612E+02  0.30507431612E+02  0.00000000000E+00 0.  1.
         13   -1    0    0    0    0 -0.00000000000E+00 -0.00000000000E+00 -0.10000000000E+04  0.10000000000E+04  0.00000000000E+00 0.  1.
    9000005    2    1    2  501    0 -0.48375611881E+01  0.12430250789E+02 -0.96018211209E+03  0.10142409714E+04  0.32643092142E+03 0.  0.
         13    1    3    3    0    0  0.60627776081E+02  0.25056285196E+02 -0.94314908726E+03  0.94542781081E+03  0.00000000000E+00 0.  1.
          3    1    3    3  501    0 -0.65465337269E+02 -0.12626034407E+02 -0.17033024832E+02  0.68813160540E+02  0.00000000000E+00 0.  1.
         21    1    1    2  502  501  0.48375611881E+01 -0.12430250789E+02 -0.93104562970E+01  0.16266460260E+02  0.00000000000E+00 0. -1.
<mgrwt>
<rscale>  1 0.30000000E+03</rscale>
<asrwt>0</asrwt>
<pdfrwt beam="1">  1        1 0.11093635E+00 0.30000000E+03</pdfrwt>
<pdfrwt beam="2">0</pdfrwt>
<totfact> 0.29331304E+01</totfact>
</mgrwt>
</event>
<event>
 6    1  0.1929825E-004  0.3000000E+03  0.7818608E-02  0.1093470E+00
          1   -1    0    0  502    0  0.00000000000E+00  0.00000000000E+00  0.48002476802E+02  0.48002476802E+02  0.00000000000E+00 0.  1.
         13   -1    0    0    0    0 -0.00000000000E+00 -0.00000000000E+00 -0.10000000000E+04  0.10000000000E+04  0.00000000000E+00 0.  1.
    9000005    2    1    2  501    0 -0.27207317205E+02  0.87748970936E+01 -0.96597797717E+03  0.10161796859E+04  0.31415038547E+03 0.  0.
         13    1    3    3    0    0 -0.42295335542E+02  0.14685107068E+03 -0.69585003411E+03  0.71243343713E+03  0.00000000000E+00 0.  1.
          3    1    3    3  501    0  0.15088018336E+02 -0.13807617358E+03 -0.27012794307E+03  0.30374624876E+03  0.00000000000E+00 0.  1.
         21    1    1    2  502  501  0.27207317205E+02 -0.87748970936E+01  0.13980453975E+02  0.31822790919E+02  0.00000000000E+00 0.  1.
<mgrwt>
<rscale>  1 0.30000000E+03</rscale>
<asrwt>0</asrwt>
<pdfrwt beam="1">  1        1 0.17455483E+00 0.30000000E+03</pdfrwt>
<pdfrwt beam="2">0</pdfrwt>
<totfact> 0.13575321E+01</totfact>
</mgrwt>
</event>
<event>
 6    1  0.1929825E-004  0.3000000E+03  0.7818608E-02  0.1093470E+00
          1   -1    0    0  502    0  0.00000000000E+00  0.00000000000E+00  0.50305264457E+02  0.50305264457E+02  0.00000000000E+00 0.  1.
         13   -1    0    0    0    0 -0.00000000000E+00 -0.00000000000E+00 -0.10000000000E+04  0.10000000000E+04  0.00000000000E+00 0.  1.
    9000005    2    1    2  501    0 -0.89804122700E+01 -0.64392186710E+02 -0.91052142464E+03  0.97440039109E+03  0.34085166262E+03 0.  0.
         13    1    3    3    0    0  0.59336902259E+02 -0.10596236988E+03 -0.92966006249E+02  0.15294302900E+03  0.00000000000E+00 0.  1.
          1    1    3    3  501    0 -0.68317314529E+02  0.41570183172E+02 -0.81755541840E+03  0.82145736210E+03  0.00000000000E+00 0.  1.
         21    1    1    2  502  501  0.89804122700E+01  0.64392186710E+02 -0.39173310898E+02  0.75904873365E+02  0.00000000000E+00 0. -1.
<mgrwt>
<rscale>  1 0.30000000E+03</rscale>
<asrwt>0</asrwt>
<pdfrwt beam="1">  1        1 0.18292862E+00 0.30000000E+03</pdfrwt>
<pdfrwt beam="2">0</pdfrwt>
<totfact> 0.12365143E+01</totfact>
</mgrwt>
</event>
<event>
 6    1  0.1929825E-004  0.3000000E+03  0.7818608E-02  0.1093470E+00
          1   -1    0    0  502    0  0.00000000000E+00  0.00000000000E+00  0.35755256445E+02  0.35755256445E+02  0.00000000000E+00 0.  1.
         13   -1    0    0    0    0 -0.00000000000E+00 -0.00000000000E+00 -0.10000000000E+04  0.10000000000E+04  0.00000000000E+00 0.  1.
    9000005    2    1    2  501    0  0.11737969469E+02  0.93262454361E+01 -0.96888372796E+03  0.10200619790E+04  0.31869421688E+03 0.  0.
         13    1    3    3    0    0  0.10328896532E+03 -0.41994982163E+01 -0.92231304234E+02  0.13853829659E+03  0.00000000000E+00 0.  1.
          3    1    3    3  501    0 -0.91550995852E+02  0.13525743652E+02 -0.87665242373E+03  0.88152368239E+03  0.00000000000E+00 0.  1.
         21    1    1    2  502  501 -0.11737969469E+02 -0.93262454361E+01  0.46389844071E+01  0.15693277463E+02  0.00000000000E+00 0.  1.
<mgrwt>
<rscale>  1 0.30000000E+03</rscale>
<asrwt>0</asrwt>
<pdfrwt beam="1">  1        1 0.13001939E+00 0.30000000E+03</pdfrwt>
<pdfrwt beam="2">0</pdfrwt>
<totfact> 0.22874219E+01</totfact>
</mgrwt>
</event>
<event>
 6    1  0.1929825E-004  0.3000000E+03  0.7818608E-02  0.1093470E+00
          1   -1    0    0  502    0  0.00000000000E+00  0.00000000000E+00  0.54301178849E+02  0.54301178849E+02  0.00000000000E+00 0.  1.
         13   -1    0    0    0    0 -0.00000000000E+00 -0.00000000000E+00 -0.10000000000E+04  0.10000000000E+04  0.00000000000E+00 0.  1.
    9000005    2    1    2  501    0  0.50451459878E+02  0.25298810008E+01 -0.94927957810E+03  0.10036595762E+04  0.32194576769E+03 0.  0.
         13    1    3    3    0    0  0.24871213410E+02 -0.86149381659E+02 -0.88880528483E+03  0.89331692448E+03  0.00000000000E+00 0.  1.
          3    1    3    3  501    0  0.25580246468E+02  0.88679262660E+02 -0.60474293269E+02  0.11034265169E+03  0.00000000000E+00 0.  1.
         21    1    1    2  502  501 -0.50451459878E+02 -0.25298810008E+01  0.35807569499E+01  0.50641602680E+02  0.00000000000E+00 0.  1.
<mgrwt>
<rscale>  1 0.30000000E+03</rscale>
<asrwt>0</asrwt>
<pdfrwt beam="1">  1        1 0.19745925E+00 0.30000000E+03</pdfrwt>
<pdfrwt beam="2">0</pdfrwt>
<totfact> 0.10532492E+01</totfact>
</mgrwt>
</event>
<event>
 6    1  0.1929825E-004  0.3000000E+03  0.7818608E-02  0.1093470E+00
          1   -1    0    0  502    0  0.00000000000E+00  0.00000000000E+00  0.27633751124E+02  0.27633751124E+02  0.00000000000E+00 0.  1.
         13   -1    0    0    0    0 -0.00000000000E+00 -0.00000000000E+00 -0.10000000000E+04  0.10000000000E+04  0.00000000000E+00 0.  1.
    9000005    2    1    2  501    0  0.11994530698E+02  0.84266600599E+00 -0.96381760226E+03  0.10128805070E+04  0.31118800140E+03 0.  0.
         13    1    3    3    0    0  0.52801887032E+02 -0.26920322878E+02 -0.12865833775E+02  0.60648765336E+02  0.00000000000E+00 0.  1.
          3    1    3    3  501    0 -0.40807356335E+02  0.27762988884E+02 -0.95095176849E+03  0.95223174169E+03  0.00000000000E+00 0.  1.
         21    1    1    2  502  501 -0.11994530698E+02 -0.84266600599E+00 -0.85486466131E+01  0.14753244103E+02  0.00000000000E+00 0.  1.
<mgrwt>
<rscale>  1 0.30000000E+03</rscale>
<asrwt>0</asrwt>
<pdfrwt beam="1">  1        1 0.10048658E+00 0.30000000E+03</pdfrwt>
<pdfrwt beam="2">0</pdfrwt>
<totfact> 0.33984717E+01</totfact>
</mgrwt>
</event>
<event>
 6    1  0.1929825E-004  0.3000000E+03  0.7818608E-02  0.1093470E+00
          1   -1    0    0  502    0  0.00000000000E+00  0.00000000000E+00  0.32432936697E+02  0.32432936697E+02  0.00000000000E+00 0.  1.
         13   -1    0    0    0    0 -0.00000000000E+00 -0.00000000000E+00 -0.10000000000E+04  0.10000000000E+04  0.00000000000E+00 0.  1.
    9000005    2    1    2  501    0 -0.71303612144E+01 -0.71872521622E+01 -0.97360945798E+03  0.10206427213E+04  0.30609424907E+03 0.  0.
         13    1    3    3    0    0  0.66073562216E+00 -0.14467760524E+03 -0.29954397982E+03  0.33265393711E+03  0.00000000000E+00 0.  1.
          1    1    3    3  501    0 -0.77910968366E+01  0.13749035308E+03 -0.67406547816E+03  0.68798878423E+03  0.00000000000E+00 0.  1.
         21    1    1    2  502  501  0.71303612144E+01  0.71872521622E+01  0.60423946773E+01  0.11790215355E+02  0.00000000000E+00 0.  1.
<mgrwt>
<rscale>  1 0.30000000E+03</rscale>
<asrwt>0</asrwt>
<pdfrwt beam="1">  1        1 0.11793820E+00 0.30000000E+03</pdfrwt>
<pdfrwt beam="2">0</pdfrwt>
<totfact> 0.26706660E+01</totfact>
</mgrwt>
</event>
<event>
 6    1  0.1929825E-004  0.3000000E+03  0.7818608E-02  0.1093470E+00
          1   -1    0    0  502    0  0.00000000000E+00  0.00000000000E+00  0.32754495664E+02  0.32754495664E+02  0.00000000000E+00 0.  1.
         13   -1    0    0    0    0 -0.00000000000E+00 -0.00000000000E+00 -0.10000000000E+04  0.10000000000E+04  0.00000000000E+00 0.  1.
    9000005    2    1    2  501    0  0.18581640834E+02  0.19695281210E+02 -0.90650166703E+03  0.96624889252E+03  0.33340436185E+03 0.  0.
         13    1    3    3    0    0  0.70363938887E+01 -0.15405746943E+03 -0.33471967839E+03  0.36853829900E+03  0.00000000000E+00 0.  1.
          3    1    3    3  501    0  0.11545246945E+02  0.17375275064E+03 -0.57178198863E+03  0.59771059352E+03  0.00000000000E+00 0.  1.
         21    1    1    2  502  501 -0.18581640834E+02 -0.19695281210E+02 -0.60743837311E+02  0.66505603142E+02  0.00000000000E+00 0.  1.
<mgrwt>
<rscale>  1 0.30000000E+03</rscale>
<asrwt>0</asrwt>
<pdfrwt beam="1">  1        1 0.11910751E+00 0.30000000E+03</pdfrwt>
<pdfrwt beam="2">0</pdfrwt>
<totfact> 0.26300457E+01</totfact>
</mgrwt>
</event>
<event>
 6    1  0.1929825E-004  0.3000000E+03  0.7818608E-02  0.1093470E+00
          1   -1    0    0  502    0  0.00000000000E+00  0.00000000000E+00  0.39224929467E+02  0.39224929467E+02  0.00000000000E+00 0.  1.
         13   -1    0    0    0    0 -0.00000000000E+00 -0.00000000000E+00 -0.10000000000E+04  0.10000000000E+04  0.00000000000E+00 0.  1.
    9000005    2    1    2  501    0  0.13318400349E+02  0.25794847257E+02 -0.95857950939E+03  0.10101117980E+04  0.31718829548E+03 0.  0.
         13    1    3    3    0    0 -0.11759043509E+03 -0.63543634927E+02 -0.64560899124E+03  0.65929983584E+03  0.00000000000E+00 0.  1.
          1    1    3    3  501    0  0.13090883544E+03  0.89338482184E+02 -0.31297051814E+03  0.35081196220E+03  0.00000000000E+00 0.  1.
         21    1    1    2  502  501 -0.13318400349E+02 -0.25794847257E+02 -0.21955611473E+01  0.29113131429E+02  0.00000000000E+00 0.  1.
<mgrwt>
<rscale>  1 0.30000000E+03</rscale>
<asrwt>0</asrwt>
<pdfrwt beam="1">  1        1 0.14263641E+00 0.30000000E+03</pdfrwt>
<pdfrwt beam="2">0</pdfrwt>
<totfact> 0.19601023E+01</totfact>
</mgrwt>
</event>
<event>
 6    1  0.1929825E-004  0.3000000E+03  0.7818608E-02  0.1093470E+00
          1   -1    0    0  502    0  0.00000000000E+00  0.00000000000E+00  0.37201651041E+02  0.37201651041E+02  0.00000000000E+00 0.  1.
         13   -1    0    0    0    0 -0.00000000000E+00 -0.00000000000E+00 -0.10000000000E+04  0.10000000000E+04  0.00000000000E+00 0.  1.
    9000005    2    1    2  501    0  0.13690578806E+02 -0.98110106369E+01 -0.96666657338E+03  0.10199201280E+04  0.32482166733E+03 0.  0.
         13    1    3    3    0    0  0.14670617431E+03  0.15679842161E+02 -0.75023725158E+03  0.76460741082E+03  0.00000000000E+00 0.  1.
          1    1    3    3  501    0 -0.13301559551E+03 -0.25490852798E+02 -0.21642932180E+03  0.25531271719E+03  0.00000000000E+00 0.  1.
         21    1    1    2  502  501 -0.13690578806E+02  0.98110106369E+01  0.38682244232E+01  0.17281523022E+02  0.00000000000E+00 0. -1.
<mgrwt>
<rscale>  1 0.30000000E+03</rscale>
<asrwt>0</asrwt>
<pdfrwt beam="1">  1        1 0.13527902E+00 0.30000000E+03</pdfrwt>
<pdfrwt beam="2">0</pdfrwt>
<totfact> 0.21428921E+01</totfact>
</mgrwt>
</event>
<event>
 6    1  0.1929825E-004  0.3000000E+03  0.7818608E-02  0.1093470E+00
          1   -1    0    0  502    0  0.00000000000E+00  0.00000000000E+00  0.28272231309E+02  0.28272231309E+02  0.00000000000E+00 0.  1.
         13   -1    0    0    0    0 -0.00000000000E+00 -0.00000000000E+00 -0.10000000000E+04  0.10000000000E+04  0.00000000000E+00 0.  1.
    9000005    2    1    2  501    0  0.84451286659E+01  0.15610505004E+02 -0.93611266980E+03  0.98847972782E+03  0.31697039876E+03 0.  0.
         13    1    3    3    0    0  0.33139084140E+02  0.97166207725E+02 -0.88108143035E+03  0.88704225251E+03  0.00000000000E+00 0.  1.
          1    1    3    3  501    0 -0.24693955474E+02 -0.81555702722E+02 -0.55031239449E+02  0.10143747532E+03  0.00000000000E+00 0.  1.
         21    1    1    2  502  501 -0.84451286659E+01 -0.15610505004E+02 -0.35615098889E+02  0.39792503484E+02  0.00000000000E+00 0.  1.
<mgrwt>
<rscale>  1 0.30000000E+03</rscale>
<asrwt>0</asrwt>
<pdfrwt beam="1">  1        1 0.10280833E+00 0.30000000E+03</pdfrwt>
<pdfrwt beam="2">0</pdfrwt>
<totfact> 0.32862845E+01</totfact>
</mgrwt>
</event>
<event>
 6    1  0.1929825E-004  0.3000000E+03  0.7818608E-02  0.1093470E+00
          1   -1    0    0  502    0  0.00000000000E+00  0.00000000000E+00  0.29719794287E+02  0.29719794287E+02  0.00000000000E+00 0.  1.
         13   -1    0    0    0    0 -0.00000000000E+00 -0.00000000000E+00 -0.10000000000E+04  0.10000000000E+04  0.00000000000E+00 0.  1.
    9000005    2    1    2  501    0  0.10554987441E+02 -0.86166086465E+00 -0.96422684534E+03  0.10175217046E+04  0.32481511650E+03 0.  0.
         13    1    3    3    0    0  0.15658139573E+03 -0.46100692717E+02 -0.61515887471E+03  0.63644595096E+03  0.00000000000E+00 0.  1.
          1    1    3    3  501    0 -0.14602640829E+03  0.45239031852E+02 -0.34906797064E+03  0.38107575368E+03  0.00000000000E+00 0.  1.
         21    1    1    2  502  501 -0.10554987441E+02  0.86166086465E+00 -0.60533603678E+01  0.12198089648E+02  0.00000000000E+00 0.  1.
<mgrwt>
<rscale>  1 0.30000000E+03</rscale>
<asrwt>0</asrwt>
<pdfrwt beam="1">  1        1 0.10807221E+00 0.30000000E+03</pdfrwt>
<pdfrwt beam="2">0</pdfrwt>
<totfact> 0.30510730E+01</totfact>
</mgrwt>
</event>
<event>
 6    1  0.1929825E-004  0.3000000E+03  0.7818608E-02  0.1093470E+00
          1   -1    0    0  502    0  0.00000000000E+00  0.00000000000E+00  0.85974879971E+02  0.85974879971E+02  0.00000000000E+00 0.  1.
         13   -1    0    0    0    0 -0.00000000000E+00 -0.00000000000E+00 -0.10000000000E+04  0.10000000000E+04  0.00000000000E+00 0.  1.
    9000005    2    1    2  501    0  0.51100764611E+02 -0.33829689683E+02 -0.95594345060E+03  0.10117260922E+04  0.32558573193E+03 0.  0.
         13    1    3    3    0    0 -0.69514654207E+02 -0.91947895792E+02 -0.12487743035E+03  0.16994433000E+03  0.00000000000E+00 0.  1.
          3    1    3    3  501    0  0.12061541882E+03  0.58118206109E+02 -0.83106602026E+03  0.84178176219E+03  0.00000000000E+00 0.  1.
         21    1    1    2  502  501 -0.51100764611E+02  0.33829689683E+02  0.41918330574E+02  0.74248787775E+02  0.00000000000E+00 0.  1.
<mgrwt>
<rscale>  1 0.30000000E+03</rscale>
<asrwt>0</asrwt>
<pdfrwt beam="1">  1        1 0.31263659E+00 0.30000000E+03</pdfrwt>
<pdfrwt beam="2">0</pdfrwt>
<totfact> 0.30231845E+00</totfact>
</mgrwt>
</event>
<event>
 6    1  0.1929825E-004  0.3000000E+03  0.7818608E-02  0.1093470E+00
          1   -1    0    0  502    0  0.00000000000E+00  0.00000000000E+00  0.38196401276E+02  0.38196401276E+02  0.00000000000E+00 0.  1.
         13   -1    0    0    0    0 -0.00000000000E+00 -0.00000000000E+00 -0.10000000000E+04  0.10000000000E+04  0.00000000000E+00 0.  1.
    9000005    2    1    2  501    0 -0.18728964748E+02  0.18781687933E+02 -0.96628064679E+03  0.10112971470E+04  0.29718698693E+03 0.  0.
         13    1    3    3    0    0  0.10192541363E+03 -0.73023443792E+02 -0.63092306937E+03  0.64326132540E+03  0.00000000000E+00 0.  1.
          3    1    3    3  501    0 -0.12065437838E+03  0.91805131725E+02 -0.33535757742E+03  0.36803582158E+03  0.00000000000E+00 0.  1.
         21    1    1    2  502  501  0.18728964748E+02 -0.18781687933E+02  0.44770480704E+01  0.26899254294E+02  0.00000000000E+00 0.  1.
<mgrwt>
<rscale>  1 0.30000000E+03</rscale>
<asrwt>0</asrwt>
<pdfrwt beam="1">  1        1 0.13889630E+00 0.30000000E+03</pdfrwt>
<pdfrwt beam="2">0</pdfrwt>
<totfact> 0.20504156E+01</totfact>
</mgrwt>
</event>
<event>
 6    1  0.1929825E-004  0.3000000E+03  0.7818608E-02  0.1093470E+00
          1   -1    0    0  502    0  0.00000000000E+00  0.00000000000E+00  0.29645878657E+02  0.29645878657E+02  0.00000000000E+00 0.  1.
         13   -1    0    0    0    0 -0.00000000000E+00 -0.00000000000E+00 -0.10000000000E+04  0.10000000000E+04  0.00000000000E+00 0.  1.
    9000005    2    1    2  501    0  0.11900502019E+02 -0.15070863580E+02 -0.92540886593E+03  0.98077023174E+03  0.32428371136E+03 0.  0.
         13    1    3    3    0    0  0.13731166244E+03  0.87513311081E+02 -0.46311468065E+03  0.49090557105E+03  0.00000000000E+00 0.  1.
          1    1    3    3  501    0 -0.12541116042E+03 -0.10258417466E+03 -0.46229418528E+03  0.48986466069E+03  0.00000000000E+00 0.  1.
         21    1    1    2  502  501 -0.11900502019E+02  0.15070863580E+02 -0.44945255411E+02  0.48875646915E+02  0.00000000000E+00 0. -1.
<mgrwt>
<rscale>  1 0.30000000E+03</rscale>
<asrwt>0</asrwt>
<pdfrwt beam="1">  1        1 0.10780342E+00 0.30000000E+03</pdfrwt>
<pdfrwt beam="2">0</pdfrwt>
<totfact> 0.30624865E+01</totfact>
</mgrwt>
</event>
<event>
 6    1  0.1929825E-004  0.3000000E+03  0.7818608E-02  0.1093470E+00
          1   -1    0    0  502    0  0.00000000000E+00  0.00000000000E+00  0.31982451122E+02  0.31982451122E+02  0.00000000000E+00 0.  1.
         13   -1    0    0    0    0 -0.00000000000E+00 -0.00000000000E+00 -0.10000000000E+04  0.10000000000E+04  0.00000000000E+00 0.  1.
    9000005    2    1    2  501    0  0.75110434488E+01  0.29608282659E+02 -0.92380565159E+03  0.97824458703E+03  0.32033189657E+03 0.  0.
         13    1    3    3    0    0 -0.60682970576E+02  0.38666547680E+02 -0.24057245914E+02  0.75870125270E+02  0.00000000000E+00 0.  1.
          1    1    3    3  501    0  0.68194014025E+02 -0.90582650210E+01 -0.89974840568E+03  0.90237446176E+03  0.00000000000E+00 0.  1.
         21    1    1    2  502  501 -0.75110434488E+01 -0.29608282659E+02 -0.44211897288E+02  0.53737864095E+02  0.00000000000E+00 0.  1.
<mgrwt>
<rscale>  1 0.30000000E+03</rscale>
<asrwt>0</asrwt>
<pdfrwt beam="1">  1        1 0.11630007E+00 0.30000000E+03</pdfrwt>
<pdfrwt beam="2">0</pdfrwt>
<totfact> 0.27290295E+01</totfact>
</mgrwt>
</event>
<event>
 6    1  0.1929825E-004  0.3000000E+03  0.7818608E-02  0.1093470E+00
          1   -1    0    0  502    0  0.00000000000E+00  0.00000000000E+00  0.52765443945E+02  0.52765443945E+02  0.00000000000E+00 0.  1.
         13   -1    0    0    0    0 -0.00000000000E+00 -0.00000000000E+00 -0.10000000000E+04  0.10000000000E+04  0.00000000000E+00 0.  1.
    9000005    2    1    2  501    0 -0.99192723627E+01  0.20413843008E+02 -0.96820284736E+03  0.10218658292E+04  0.32600291767E+03 0.  0.
         13    1    3    3    0    0  0.11113472245E+02 -0.94322008750E+02 -0.85178501794E+03  0.85706351421E+03  0.00000000000E+00 0.  1.
          3    1    3    3  501    0 -0.21032744608E+02  0.11473585176E+03 -0.11641782942E+03  0.16480231500E+03  0.00000000000E+00 0.  1.
         21    1    1    2  502  501  0.99192723627E+01 -0.20413843008E+02  0.20968291301E+02  0.30899614734E+02  0.00000000000E+00 0. -1.
<mgrwt>
<rscale>  1 0.30000000E+03</rscale>
<asrwt>0</asrwt>
<pdfrwt beam="1">  1        1 0.19187475E+00 0.30000000E+03</pdfrwt>
<pdfrwt beam="2">0</pdfrwt>
<totfact> 0.11199719E+01</totfact>
</mgrwt>
</event>
<event>
 6    1  0.1929825E-004  0.3000000E+03  0.7818608E-02  0.1093470E+00
          1   -1    0    0  502    0  0.00000000000E+00  0.00000000000E+00  0.24039727595E+02  0.24039727595E+02  0.00000000000E+00 0.  1.
         13   -1    0    0    0    0 -0.00000000000E+00 -0.00000000000E+00 -0.10000000000E+04  0.10000000000E+04  0.00000000000E+00 0.  1.
    9000005    2    1    2  501    0 -0.14191653873E+02  0.54412904818E+01 -0.95577758808E+03  0.99877411008E+03  0.28949596614E+03 0.  0.
         13    1    3    3    0    0 -0.10502605359E+03 -0.94396217508E+02 -0.33598247553E+03  0.36445211164E+03  0.00000000000E+00 0.  1.
          3    1    3    3  501    0  0.90834399715E+02  0.99837507990E+02 -0.61979511255E+03  0.63432199844E+03  0.00000000000E+00 0.  1.
         21    1    1    2  502  501  0.14191653873E+02 -0.54412904818E+01 -0.20182684325E+02  0.25265617513E+02  0.00000000000E+00 0.  1.
<mgrwt>
<rscale>  1 0.30000000E+03</rscale>
<asrwt>0</asrwt>
<pdfrwt beam="1">  1        1 0.87417376E-01 0.30000000E+03</pdfrwt>
<pdfrwt beam="2">0</pdfrwt>
<totfact> 0.41503834E+01</totfact>
</mgrwt>
</event>
<event>
 6    1  0.1929825E-004  0.3000000E+03  0.7818608E-02  0.1093470E+00
          1   -1    0    0  502    0  0.00000000000E+00  0.00000000000E+00  0.41638389980E+02  0.41638389980E+02  0.00000000000E+00 0.  1.
         13   -1    0    0    0    0 -0.00000000000E+00 -0.00000000000E+00 -0.10000000000E+04  0.10000000000E+04  0.00000000000E+00 0.  1.
    9000005    2    1    2  501    0  0.33923708917E+02  0.39111460059E+02 -0.92598641030E+03  0.98057548887E+03  0.31842885075E+03 0.  0.
         13    1    3    3    0    0 -0.60707794140E+02 -0.64179738542E+02 -0.75214551938E+03  0.75731589012E+03  0.00000000000E+00 0.  1.
          3    1    3    3  501    0  0.94631503058E+02  0.10329119860E+03 -0.17384089092E+03  0.22325959875E+03  0.00000000000E+00 0.  1.
         21    1    1    2  502  501 -0.33923708917E+02 -0.39111460059E+02 -0.32375199725E+02  0.61062901109E+02  0.00000000000E+00 0.  1.
<mgrwt>
<rscale>  1 0.30000000E+03</rscale>
<asrwt>0</asrwt>
<pdfrwt beam="1">  1        1 0.15141265E+00 0.30000000E+03</pdfrwt>
<pdfrwt beam="2">0</pdfrwt>
<totfact> 0.17670830E+01</totfact>
</mgrwt>
</event>
<event>
 6    1  0.1929825E-004  0.3000000E+03  0.7818608E-02  0.1093470E+00
          1   -1    0    0  502    0  0.00000000000E+00  0.00000000000E+00  0.13638617386E+03  0.13638617386E+03  0.00000000000E+00 0.  1.
         13   -1    0    0    0    0 -0.00000000000E+00 -0.00000000000E+00 -0.10000000000E+04  0.10000000000E+04  0.00000000000E+00 0.  1.
    9000005    2    1    2  501    0 -0.88902488087E+01  0.50717614681E+02 -0.96547980478E+03  0.10222459506E+04  0.33194008061E+03 0.  0.
         13    1    3    3    0    0  0.98572017190E+02 -0.20661921797E+02 -0.83345481621E+02  0.13072806467E+03  0.00000000000E+00 0.  1.
          1    1    3    3  501    0 -0.10746226600E+03  0.71379536478E+02 -0.88213432316E+03  0.89151788593E+03  0.00000000000E+00 0.  1.
         21    1    1    2  502  501  0.88902488087E+01 -0.50717614681E+02  0.10186597864E+03  0.11414022326E+03  0.00000000000E+00 0.  1.
<mgrwt>
<rscale>  1 0.30000000E+03</rscale>
<asrwt>0</asrwt>
<pdfrwt beam="1">  1        1 0.49595077E+00 0.30000000E+03</pdfrwt>
<pdfrwt beam="2">0</pdfrwt>
<totfact> 0.24456847E-01</totfact>
</mgrwt>
</event>
<event>
 6    1  0.1929825E-004  0.3000000E+03  0.7818608E-02  0.1093470E+00
          1   -1    0    0  502    0  0.00000000000E+00  0.00000000000E+00  0.35760149134E+02  0.35760149134E+02  0.00000000000E+00 0.  1.
         13   -1    0    0    0    0 -0.00000000000E+00 -0.00000000000E+00 -0.10000000000E+04  0.10000000000E+04  0.00000000000E+00 0.  1.
    9000005    2    1    2  501    0  0.60155820566E+01  0.76991699779E+01 -0.96128784317E+03  0.10255533477E+04  0.35719726641E+03 0.  0.
         13    1    3    3    0    0  0.45477617440E+01 -0.45523817501E+02 -0.97044977640E+03  0.97152759540E+03  0.00000000000E+00 0.  1.
          1    1    3    3  501    0  0.14678203126E+01  0.53222987479E+02  0.91619332322E+01  0.54025752315E+02  0.00000000000E+00 0.  1.
         21    1    1    2  502  501 -0.60155820566E+01 -0.76991699779E+01 -0.29520076963E+01  0.10206801422E+02  0.00000000000E+00 0. -1.
<mgrwt>
<rscale>  1 0.30000000E+03</rscale>
<asrwt>0</asrwt>
<pdfrwt beam="1">  1        1 0.13003718E+00 0.30000000E+03</pdfrwt>
<pdfrwt beam="2">0</pdfrwt>
<totfact> 0.22869117E+01</totfact>
</mgrwt>
</event>
<event>
 6    1  0.1929825E-004  0.3000000E+03  0.7818608E-02  0.1093470E+00
          1   -1    0    0  502    0  0.00000000000E+00  0.00000000000E+00  0.35341947761E+02  0.35341947761E+02  0.00000000000E+00 0.  1.
         13   -1    0    0    0    0 -0.00000000000E+00 -0.00000000000E+00 -0.10000000000E+04  0.10000000000E+04  0.00000000000E+00 0.  1.
    9000005    2    1    2  501    0 -0.18140835605E+02  0.82131662425E+01 -0.92740187313E+03  0.99309778961E+03  0.35464410248E+03 0.  0.
         13    1    3    3    0    0  0.10628849948E+03 -0.12884945494E+03 -0.50517208032E+03  0.53206978668E+03  0.00000000000E+00 0.  1.
          3    1    3    3  501    0 -0.12442933508E+03  0.13706262118E+03 -0.42222979280E+03  0.46102800293E+03  0.00000000000E+00 0.  1.
         21    1    1    2  502  501  0.18140835605E+02 -0.82131662425E+01 -0.37256179110E+02  0.42244158153E+02  0.00000000000E+00 0.  1.
<mgrwt>
<rscale>  1 0.30000000E+03</rscale>
<asrwt>0</asrwt>
<pdfrwt beam="1">  1        1 0.12851644E+00 0.30000000E+03</pdfrwt>
<pdfrwt beam="2">0</pdfrwt>
<totfact> 0.23310519E+01</totfact>
</mgrwt>
</event>
<event>
 6    1  0.1929825E-004  0.3000000E+03  0.7818608E-02  0.1093470E+00
          1   -1    0    0  502    0  0.00000000000E+00  0.00000000000E+00  0.84111638929E+02  0.84111638929E+02  0.00000000000E+00 0.  1.
         13   -1    0    0    0    0 -0.00000000000E+00 -0.00000000000E+00 -0.10000000000E+04  0.10000000000E+04  0.00000000000E+00 0.  1.
    9000005    2    1    2  501    0 -0.12963884353E+03  0.13406836427E+02 -0.86303243582E+03  0.94347123987E+03  0.35822761222E+03 0.  0.
         13    1    3    3    0    0 -0.20998053303E+03 -0.10168579559E+03 -0.62515002387E+03  0.66726634683E+03  0.00000000000E+00 0.  1.
          1    1    3    3  501    0  0.80341689495E+02  0.11509263202E+03 -0.23788241196E+03  0.27620489303E+03  0.00000000000E+00 0.  1.
         21    1    1    2  502  501  0.12963884353E+03 -0.13406836427E+02 -0.52855925247E+02  0.14064039906E+03  0.00000000000E+00 0.  1.
<mgrwt>
<rscale>  1 0.30000000E+03</rscale>
<asrwt>0</asrwt>
<pdfrwt beam="1">  1        1 0.30586115E+00 0.30000000E+03</pdfrwt>
<pdfrwt beam="2">0</pdfrwt>
<totfact> 0.32582664E+00</totfact>
</mgrwt>
</event>
<event>
 6    1  0.1929825E-004  0.3000000E+03  0.7818608E-02  0.1093470E+00
          1   -1    0    0  502    0  0.00000000000E+00  0.00000000000E+00  0.28500212123E+02  0.28500212123E+02  0.00000000000E+00 0.  1.
         13   -1    0    0    0    0 -0.00000000000E+00 -0.00000000000E+00 -0.10000000000E+04  0.10000000000E+04  0.00000000000E+00 0.  1.
    9000005    2    1    2  501    0 -0.22300567261E+02 -0.95353236432E+01 -0.90585626458E+03  0.95851943013E+03  0.31240308604E+03 0.  0.
         13    1    3    3    0    0 -0.37624926672E+02  0.21250335712E+02 -0.92023254163E+03  0.92124651563E+03  0.00000000000E+00 0.  1.
          3    1    3    3  501    0  0.15324359411E+02 -0.30785659356E+02  0.14376277058E+02  0.37272914500E+02  0.00000000000E+00 0.  1.
         21    1    1    2  502  501  0.22300567261E+02  0.95353236432E+01 -0.65643523302E+02  0.69980781995E+02  0.00000000000E+00 0. -1.
<mgrwt>
<rscale>  1 0.30000000E+03</rscale>
<asrwt>0</asrwt>
<pdfrwt beam="1">  1        1 0.10363735E+00 0.30000000E+03</pdfrwt>
<pdfrwt beam="2">0</pdfrwt>
<totfact> 0.32475354E+01</totfact>
</mgrwt>
</event>
<event>
 6    1  0.1929825E-004  0.3000000E+03  0.7818608E-02  0.1093470E+00
          1   -1    0    0  502    0  0.00000000000E+00  0.00000000000E+00  0.30986999590E+02  0.30986999590E+02  0.00000000000E+00 0.  1.
         13   -1    0    0    0    0 -0.00000000000E+00 -0.00000000000E+00 -0.10000000000E+04  0.10000000000E+04  0.00000000000E+00 0.  1.
    9000005    2    1    2  501    0  0.66183046560E+01  0.77237621928E+01 -0.96870347251E+03  0.10208108379E+04  0.32181499450E+03 0.  0.
         13    1    3    3    0    0  0.94127457979E+02 -0.60382874838E+02 -0.85392347673E+03  0.86121505678E+03  0.00000000000E+00 0.  1.
          1    1    3    3  501    0 -0.87509153323E+02  0.68106637031E+02 -0.11477999578E+03  0.15959578113E+03  0.00000000000E+00 0.  1.
         21    1    1    2  502  501 -0.66183046560E+01 -0.77237621928E+01 -0.30952789803E+00  0.10176161676E+02  0.00000000000E+00 0. -1.
<mgrwt>
<rscale>  1 0.30000000E+03</rscale>
<asrwt>0</asrwt>
<pdfrwt beam="1">  1        1 0.11268024E+00 0.30000000E+03</pdfrwt>
<pdfrwt beam="2">0</pdfrwt>
<totfact> 0.28644631E+01</totfact>
</mgrwt>
</event>
<event>
 6    1  0.1929825E-004  0.3000000E+03  0.7818608E-02  0.1093470E+00
          1   -1    0    0  502    0  0.00000000000E+00  0.00000000000E+00  0.29911216790E+02  0.29911216790E+02  0.00000000000E+00 0.  1.
         13   -1    0    0    0    0 -0.00000000000E+00 -0.00000000000E+00 -0.10000000000E+04  0.10000000000E+04  0.00000000000E+00 0.  1.
    9000005    2    1    2  501    0  0.45641246909E+01 -0.94947621039E+01 -0.96655701029E+03  0.10188001790E+04  0.32188564551E+03 0.  0.
         13    1    3    3    0    0  0.19276215885E+02  0.15373500815E+03 -0.54189058579E+03  0.56360574181E+03  0.00000000000E+00 0.  1.
          3    1    3    3  501    0 -0.14712091194E+02 -0.16322977025E+03 -0.42466642449E+03  0.45519443715E+03  0.00000000000E+00 0.  1.
         21    1    1    2  502  501 -0.45641246909E+01  0.94947621039E+01 -0.35317729245E+01  0.11111037827E+02  0.00000000000E+00 0.  1.
<mgrwt>
<rscale>  1 0.30000000E+03</rscale>
<asrwt>0</asrwt>
<pdfrwt beam="1">  1        1 0.10876829E+00 0.30000000E+03</pdfrwt>
<pdfrwt beam="2">0</pdfrwt>
<totfact> 0.30217962E+01</totfact>
</mgrwt>
</event>
<event>
 6    1  0.1929825E-004  0.3000000E+03  0.7818608E-02  0.1093470E+00
          1   -1    0    0  502    0  0.00000000000E+00  0.00000000000E+00  0.33880943779E+02  0.33880943779E+02  0.00000000000E+00 0.  1.
         13   -1    0    0    0    0 -0.00000000000E+00 -0.00000000000E+00 -0.10000000000E+04  0.10000000000E+04  0.00000000000E+00 0.  1.
    9000005    2    1    2  501    0 -0.12796616141E+02 -0.53139284810E-01 -0.96925718401E+03  0.10207050546E+04  0.31971168827E+03 0.  0.
         13    1    3    3    0    0 -0.97273240023E+02  0.12792162645E+03 -0.39787597637E+03  0.42910525319E+03  0.00000000000E+00 0.  1.
          3    1    3    3  501    0  0.84476623882E+02 -0.12797476573E+03 -0.57138120763E+03  0.59159980146E+03  0.00000000000E+00 0.  1.
         21    1    1    2  502  501  0.12796616141E+02  0.53139284810E-01  0.31381277875E+01  0.13175889133E+02  0.00000000000E+00 0.  1.
<mgrwt>
<rscale>  1 0.30000000E+03</rscale>
<asrwt>0</asrwt>
<pdfrwt beam="1">  1        1 0.12320369E+00 0.30000000E+03</pdfrwt>
<pdfrwt beam="2">0</pdfrwt>
<totfact> 0.24941069E+01</totfact>
</mgrwt>
</event>
<event>
 6    1  0.1929825E-004  0.3000000E+03  0.7818608E-02  0.1093470E+00
          1   -1    0    0  502    0  0.00000000000E+00  0.00000000000E+00  0.26890940415E+02  0.26890940415E+02  0.00000000000E+00 0.  1.
         13   -1    0    0    0    0 -0.00000000000E+00 -0.00000000000E+00 -0.10000000000E+04  0.10000000000E+04  0.00000000000E+00 0.  1.
    9000005    2    1    2  501    0 -0.31365545619E+01 -0.68438394171E+01 -0.95351678698E+03  0.10059020563E+04  0.32029362718E+03 0.  0.
         13    1    3    3    0    0  0.13552538099E+03  0.23051761236E+02 -0.71740412774E+03  0.73045683999E+03  0.00000000000E+00 0.  1.
          3    1    3    3  501    0 -0.13866193555E+03 -0.29895600653E+02 -0.23611265924E+03  0.27544521627E+03  0.00000000000E+00 0.  1.
         21    1    1    2  502  501  0.31365545619E+01  0.68438394171E+01 -0.19592272604E+02  0.20988884160E+02  0.00000000000E+00 0. -1.
<mgrwt>
<rscale>  1 0.30000000E+03</rscale>
<asrwt>0</asrwt>
<pdfrwt beam="1">  1        1 0.97785444E-01 0.30000000E+03</pdfrwt>
<pdfrwt beam="2">0</pdfrwt>
<totfact> 0.35362224E+01</totfact>
</mgrwt>
</event>
<event>
 6    1  0.1929825E-004  0.3000000E+03  0.7818608E-02  0.1093470E+00
          3   -1    0    0  502    0  0.00000000000E+00  0.00000000000E+00  0.26136822095E+02  0.26136822095E+02  0.00000000000E+00 0.  1.
         13   -1    0    0    0    0 -0.00000000000E+00 -0.00000000000E+00 -0.10000000000E+04  0.10000000000E+04  0.00000000000E+00 0.  1.
    9000005    2    1    2  501    0  0.60594145338E+01 -0.73914716401E+01 -0.94353001174E+03  0.99433349952E+03  0.31362218488E+03 0.  0.
         13    1    3    3    0    0  0.15221591456E+02  0.97929258523E+02 -0.88733465818E+02  0.13302430033E+03  0.00000000000E+00 0.  1.
          1    1    3    3  501    0 -0.91621769222E+01 -0.10532073016E+03 -0.85479654592E+03  0.86130919919E+03  0.00000000000E+00 0.  1.
         21    1    1    2  502  501 -0.60594145338E+01  0.73914716401E+01 -0.30333166162E+02  0.31803322577E+02  0.00000000000E+00 0. -1.
<mgrwt>
<rscale>  1 0.30000000E+03</rscale>
<asrwt>0</asrwt>
<pdfrwt beam="1">  1        3 0.95043190E-01 0.30000000E+03</pdfrwt>
<pdfrwt beam="2">0</pdfrwt>
<totfact> 0.44624461E+00</totfact>
</mgrwt>
</event>
<event>
 6    1  0.1929825E-004  0.3000000E+03  0.7818608E-02  0.1093470E+00
          1   -1    0    0  502    0  0.00000000000E+00  0.00000000000E+00  0.27768017639E+02  0.27768017639E+02  0.00000000000E+00 0.  1.
         13   -1    0    0    0    0 -0.00000000000E+00 -0.00000000000E+00 -0.10000000000E+04  0.10000000000E+04  0.00000000000E+00 0.  1.
    9000005    2    1    2  501    0  0.53911561028E+01 -0.10901598965E+02 -0.95435443479E+03  0.10061458963E+04  0.31841681490E+03 0.  0.
         13    1    3    3    0    0  0.34280174261E+02 -0.14990228583E+03 -0.30641685546E+03  0.34283686347E+03  0.00000000000E+00 0.  1.
          1    1    3    3  501    0 -0.28889018158E+02  0.13900068687E+03 -0.64793757933E+03  0.66330903283E+03  0.00000000000E+00 0.  1.
         21    1    1    2  502  501 -0.53911561028E+01  0.10901598965E+02 -0.17877547569E+02  0.21622121339E+02  0.00000000000E+00 0. -1.
<mgrwt>
<rscale>  1 0.30000000E+03</rscale>
<asrwt>0</asrwt>
<pdfrwt beam="1">  1        1 0.10097482E+00 0.30000000E+03</pdfrwt>
<pdfrwt beam="2">0</pdfrwt>
<totfact> 0.33744183E+01</totfact>
</mgrwt>
</event>
<event>
 6    1  0.1929825E-004  0.3000000E+03  0.7818608E-02  0.1093470E+00
          3   -1    0    0  502    0  0.00000000000E+00  0.00000000000E+00  0.30755020031E+02  0.30755020031E+02  0.00000000000E+00 0.  1.
         13   -1    0    0    0    0 -0.00000000000E+00 -0.00000000000E+00 -0.10000000000E+04  0.10000000000E+04  0.00000000000E+00 0.  1.
    9000005    2    1    2  501    0 -0.17965286509E+02  0.11832827283E+01 -0.95831022780E+03  0.10096903462E+04  0.31747748091E+03 0.  0.
         13    1    3    3    0    0 -0.10719859610E+03 -0.10708767650E+03 -0.69507050238E+03  0.71139462519E+03  0.00000000000E+00 0.  1.
          1    1    3    3  501    0  0.89233309593E+02  0.10827095923E+03 -0.26323972542E+03  0.29829572104E+03  0.00000000000E+00 0.  1.
         21    1    1    2  502  501  0.17965286509E+02 -0.11832827283E+01 -0.10934752170E+02  0.21064673802E+02  0.00000000000E+00 0.  1.
<mgrwt>
<rscale>  1 0.30000000E+03</rscale>
<asrwt>0</asrwt>
<pdfrwt beam="1">  1        3 0.11183667E+00 0.30000000E+03</pdfrwt>
<pdfrwt beam="2">0</pdfrwt>
<totfact> 0.28717143E+00</totfact>
</mgrwt>
</event>
<event>
 6    1  0.1929825E-004  0.3000000E+03  0.7818608E-02  0.1093470E+00
          1   -1    0    0  502    0  0.00000000000E+00  0.00000000000E+00  0.54589233340E+02  0.54589233340E+02  0.00000000000E+00 0.  1.
         13   -1    0    0    0    0 -0.00000000000E+00 -0.00000000000E+00 -0.10000000000E+04  0.10000000000E+04  0.00000000000E+00 0.  1.
    9000005    2    1    2  501    0  0.13878886660E+02  0.74115446197E+00 -0.97186899544E+03  0.10247026030E+04  0.32448868613E+03 0.  0.
         13    1    3    3    0    0  0.42130825126E+02  0.10916142409E+03 -0.85437889351E+03  0.86235405525E+03  0.00000000000E+00 0.  1.
          3    1    3    3  501    0 -0.28251938466E+02 -0.10842026963E+03 -0.11749010193E+03  0.16234854771E+03  0.00000000000E+00 0.  1.
         21    1    1    2  502  501 -0.13878886660E+02 -0.74115446197E+00  0.26458228780E+02  0.29886630373E+02  0.00000000000E+00 0. -1.
<mgrwt>
<rscale>  1 0.30000000E+03</rscale>
<asrwt>0</asrwt>
<pdfrwt beam="1">  1        1 0.19850672E+00 0.30000000E+03</pdfrwt>
<pdfrwt beam="2">0</pdfrwt>
<totfact> 0.10412296E+01</totfact>
</mgrwt>
</event>
<event>
 6    1  0.1929825E-004  0.3000000E+03  0.7818608E-02  0.1093470E+00
          1   -1    0    0  502    0  0.00000000000E+00  0.00000000000E+00  0.34350205553E+02  0.34350205553E+02  0.00000000000E+00 0.  1.
         13   -1    0    0    0    0 -0.00000000000E+00 -0.00000000000E+00 -0.10000000000E+04  0.10000000000E+04  0.00000000000E+00 0.  1.
    9000005    2    1    2  501    0  0.22742944259E+02  0.26211088856E+02 -0.93743399530E+03  0.98962444101E+03  0.31522971942E+03 0.  0.
         13    1    3    3    0    0  0.86342892183E+02  0.14287124930E+03 -0.67670433488E+03  0.69699070707E+03  0.00000000000E+00 0.  1.
          3    1    3    3  501    0 -0.63599947924E+02 -0.11666016045E+03 -0.26072966043E+03  0.29263373393E+03  0.00000000000E+00 0.  1.
         21    1    1    2  502  501 -0.22742944259E+02 -0.26211088856E+02 -0.28215799145E+02  0.44725764543E+02  0.00000000000E+00 0. -1.
<mgrwt>
<rscale>  1 0.30000000E+03</rscale>
<asrwt>0</asrwt>
<pdfrwt beam="1">  1        1 0.12491010E+00 0.30000000E+03</pdfrwt>
<pdfrwt beam="2">0</pdfrwt>
<totfact> 0.24401933E+01</totfact>
</mgrwt>
</event>
<event>
 6    1  0.1929825E-004  0.3000000E+03  0.7818608E-02  0.1093470E+00
          1   -1    0    0  502    0  0.00000000000E+00  0.00000000000E+00  0.50177651472E+02  0.50177651472E+02  0.00000000000E+00 0.  1.
         13   -1    0    0    0    0 -0.00000000000E+00 -0.00000000000E+00 -0.10000000000E+04  0.10000000000E+04  0.00000000000E+00 0.  1.
    9000005    2    1    2  501    0  0.13619772801E+02  0.33030532011E+02 -0.95907177518E+03  0.10132714711E+04  0.32499829222E+03 0.  0.
         13    1    3    3    0    0  0.16584744688E+03  0.16194101770E+02 -0.39348673533E+03  0.42731655181E+03  0.00000000000E+00 0.  1.
          1    1    3    3  501    0 -0.15222767408E+03  0.16836430241E+02 -0.56558503985E+03  0.58595491930E+03  0.00000000000E+00 0.  1.
         21    1    1    2  502  501 -0.13619772801E+02 -0.33030532011E+02  0.92494266535E+01  0.36906180370E+02  0.00000000000E+00 0.  1.
<mgrwt>
<rscale>  1 0.30000000E+03</rscale>
<asrwt>0</asrwt>
<pdfrwt beam="1">  1        1 0.18246457E+00 0.30000000E+03</pdfrwt>
<pdfrwt beam="2">0</pdfrwt>
<totfact> 0.12429026E+01</totfact>
</mgrwt>
</event>
<event>
 6    1  0.1929825E-004  0.3000000E+03  0.7818608E-02  0.1093470E+00
          1   -1    0    0  502    0  0.00000000000E+00  0.00000000000E+00  0.40824838303E+02  0.40824838303E+02  0.00000000000E+00 0.  1.
         13   -1    0    0    0    0 -0.00000000000E+00 -0.00000000000E+00 -0.10000000000E+04  0.10000000000E+04  0.00000000000E+00 0.  1.
    9000005    2    1    2  501    0 -0.27604890120E-01  0.35385793777E+02 -0.94828821082E+03  0.10038021309E+04  0.32728585682E+03 0.  0.
         13    1    3    3    0    0  0.12362124859E+03  0.10708110717E+03 -0.68462922437E+03  0.70389328131E+03  0.00000000000E+00 0.  1.
          1    1    3    3  501    0 -0.12364885348E+03 -0.71695313394E+02 -0.26365898645E+03  0.29990884960E+03  0.00000000000E+00 0.  1.
         21    1    1    2  502  501  0.27604890120E-01 -0.35385793777E+02 -0.10886950877E+02  0.37022707392E+02  0.00000000000E+00 0.  1.
<mgrwt>
<rscale>  1 0.30000000E+03</rscale>
<asrwt>0</asrwt>
<pdfrwt beam="1">  1        1 0.14845427E+00 0.30000000E+03</pdfrwt>
<pdfrwt beam="2">0</pdfrwt>
<totfact> 0.18293765E+01</totfact>
</mgrwt>
</event>
<event>
 6    1  0.1929825E-004  0.3000000E+03  0.7818608E-02  0.1093470E+00
          1   -1    0    0  502    0  0.00000000000E+00  0.00000000000E+00  0.42090981504E+02  0.42090981504E+02  0.00000000000E+00 0.  1.
         13   -1    0    0    0    0 -0.00000000000E+00 -0.00000000000E+00 -0.10000000000E+04  0.10000000000E+04  0.00000000000E+00 0.  1.
    9000005    2    1    2  501    0  0.65641881413E+01  0.98989737965E+01 -0.97062020892E+03  0.10246940677E+04  0.32825792322E+03 0.  0.
         13    1    3    3    0    0  0.91040347361E+02  0.88291462066E+02 -0.84401941241E+03  0.85349428565E+03  0.00000000000E+00 0.  1.
          1    1    3    3  501    0 -0.84476159219E+02 -0.78392488269E+02 -0.12660079651E+03  0.17119978204E+03  0.00000000000E+00 0.  1.
         21    1    1    2  502  501 -0.65641881413E+01 -0.98989737965E+01  0.12711190422E+02  0.17396913810E+02  0.00000000000E+00 0. -1.
<mgrwt>
<rscale>  1 0.30000000E+03</rscale>
<asrwt>0</asrwt>
<pdfrwt beam="1">  1        1 0.15305844E+00 0.30000000E+03</pdfrwt>
<pdfrwt beam="2">0</pdfrwt>
<totfact> 0.17335574E+01</totfact>
</mgrwt>
</event>
<event>
 6    1  0.1929825E-004  0.3000000E+03  0.7818608E-02  0.1093470E+00
          1   -1    0    0  502    0  0.00000000000E+00  0.00000000000E+00  0.30209455819E+02  0.30209455819E+02  0.00000000000E+00 0.  1.
         13   -1    0    0    0    0 -0.00000000000E+00 -0.00000000000E+00 -0.10000000000E+04  0.10000000000E+04  0.00000000000E+00 0.  1.
    9000005    2    1    2  501    0 -0.15868066743E+02  0.81036575370E+01 -0.92209538039E+03  0.97929488563E+03  0.32930398979E+03 0.  0.
         13    1    3    3    0    0  0.59887356661E+02  0.15030085286E+03 -0.56143253677E+03  0.58428018553E+03  0.00000000000E+00 0.  1.
          1    1    3    3  501    0 -0.75755423404E+02 -0.14219719532E+03 -0.36066284362E+03  0.39501470011E+03  0.00000000000E+00 0.  1.
         21    1    1    2  502  501  0.15868066743E+02 -0.81036575370E+01 -0.47695163795E+02  0.50914570185E+02  0.00000000000E+00 0. -1.
<mgrwt>
<rscale>  1 0.30000000E+03</rscale>
<asrwt>0</asrwt>
<pdfrwt beam="1">  1        1 0.10985280E+00 0.30000000E+03</pdfrwt>
<pdfrwt beam="2">0</pdfrwt>
<totfact> 0.29769748E+01</totfact>
</mgrwt>
</event>
<event>
 6    1  0.1929825E-004  0.3000000E+03  0.7818608E-02  0.1093470E+00
          1   -1    0    0  502    0  0.00000000000E+00  0.00000000000E+00  0.40964498840E+02  0.40964498840E+02  0.00000000000E+00 0.  1.
         13   -1    0    0    0    0 -0.00000000000E+00 -0.00000000000E+00 -0.10000000000E+04  0.10000000000E+04  0.00000000000E+00 0.  1.
    9000005    2    1    2  501    0 -0.22152331255E+02 -0.13093513483E+02 -0.96107379402E+03  0.10151513140E+04  0.32589444123E+03 0.  0.
         13    1    3    3    0    0 -0.53346846898E+02  0.86979819486E+02 -0.84924198536E+02  0.13275351057E+03  0.00000000000E+00 0.  1.
          1    1    3    3  501    0  0.31194515642E+02 -0.10007333297E+03 -0.87614959548E+03  0.88239780340E+03  0.00000000000E+00 0.  1.
         21    1    1    2  502  501  0.22152331255E+02  0.13093513483E+02  0.20382928597E+01  0.25813184871E+02  0.00000000000E+00 0.  1.
<mgrwt>
<rscale>  1 0.30000000E+03</rscale>
<asrwt>0</asrwt>
<pdfrwt beam="1">  1        1 0.14896213E+00 0.30000000E+03</pdfrwt>
<pdfrwt beam="2">0</pdfrwt>
<totfact> 0.18184913E+01</totfact>
</mgrwt>
</event>
<event>
 6    1  0.1929825E-004  0.3000000E+03  0.7818608E-02  0.1093470E+00
          1   -1    0    0  502    0  0.00000000000E+00  0.00000000000E+00  0.29115978963E+02  0.29115978963E+02  0.00000000000E+00 0.  1.
         13   -1    0    0    0    0 -0.00000000000E+00 -0.00000000000E+00 -0.10000000000E+04  0.10000000000E+04  0.00000000000E+00 0.  1.
    9000005    2    1    2  501    0  0.87020409677E+01  0.75660446220E+01 -0.91468630165E+03  0.97174739686E+03  0.32788565435E+03 0.  0.
         13    1    3    3    0    0 -0.12911215837E+03 -0.57864292721E+02 -0.65891364937E+03  0.67393280313E+03  0.00000000000E+00 0.  1.
          3    1    3    3  501    0  0.13781419933E+03  0.65430337343E+02 -0.25577265228E+03  0.29781459373E+03  0.00000000000E+00 0.  1.
         21    1    1    2  502  501 -0.87020409677E+01 -0.75660446220E+01 -0.56197719390E+02  0.57368582106E+02  0.00000000000E+00 0. -1.
<mgrwt>
<rscale>  1 0.30000000E+03</rscale>
<asrwt>0</asrwt>
<pdfrwt beam="1">  1        1 0.10587651E+00 0.30000000E+03</pdfrwt>
<pdfrwt beam="2">0</pdfrwt>
<totfact> 0.31461323E+01</totfact>
</mgrwt>
</event>
<event>
 6    1  0.1929825E-004  0.3000000E+03  0.7818608E-02  0.1093470E+00
          1   -1    0    0  502    0  0.00000000000E+00  0.00000000000E+00  0.31713829618E+02  0.31713829618E+02  0.00000000000E+00 0.  1.
         13   -1    0    0    0    0 -0.00000000000E+00 -0.00000000000E+00 -0.10000000000E+04  0.10000000000E+04  0.00000000000E+00 0.  1.
    9000005    2    1    2  501    0  0.23850195227E+02  0.16692294891E+01 -0.93725598072E+03  0.99254125235E+03  0.32575718884E+03 0.  0.
         13    1    3    3    0    0 -0.12260077669E+02 -0.76537727577E+02 -0.33089684185E+02  0.84280842702E+02  0.00000000000E+00 0.  1.
          3    1    3    3  501    0  0.36110272896E+02  0.78206957066E+02 -0.90416629654E+03  0.90826040965E+03  0.00000000000E+00 0.  1.
         21    1    1    2  502  501 -0.23850195227E+02 -0.16692294891E+01 -0.31030189657E+02  0.39172577265E+02  0.00000000000E+00 0. -1.
<mgrwt>
<rscale>  1 0.30000000E+03</rscale>
<asrwt>0</asrwt>
<pdfrwt beam="1">  1        1 0.11532326E+00 0.30000000E+03</pdfrwt>
<pdfrwt beam="2">0</pdfrwt>
<totfact> 0.27646738E+01</totfact>
</mgrwt>
</event>
<event>
 6    1  0.1929825E-004  0.3000000E+03  0.7818608E-02  0.1093470E+00
          3   -1    0    0  502    0  0.00000000000E+00  0.00000000000E+00  0.30258506607E+02  0.30258506607E+02  0.00000000000E+00 0.  1.
         13   -1    0    0    0    0 -0.00000000000E+00 -0.00000000000E+00 -0.10000000000E+04  0.10000000000E+04  0.00000000000E+00 0.  1.
    9000005    2    1    2  501    0  0.98903640764E+01  0.11213787189E+01 -0.96461358443E+03  0.10190615319E+04  0.32849347296E+03 0.  0.
         13    1    3    3    0    0 -0.25778209541E+02  0.14392523121E+03 -0.25148834970E+03  0.29090441437E+03  0.00000000000E+00 0.  1.
          1    1    3    3  501    0  0.35668573618E+02 -0.14280385249E+03 -0.71312523474E+03  0.72815711756E+03  0.00000000000E+00 0.  1.
         21    1    1    2  502  501 -0.98903640764E+01 -0.11213787189E+01 -0.51279089609E+01  0.11196974685E+02  0.00000000000E+00 0. -1.
<mgrwt>
<rscale>  1 0.30000000E+03</rscale>
<asrwt>0</asrwt>
<pdfrwt beam="1">  1        3 0.11003117E+00 0.30000000E+03</pdfrwt>
<pdfrwt beam="2">0</pdfrwt>
<totfact> 0.30111564E+00</totfact>
</mgrwt>
</event>
<event>
 6    1  0.1929825E-004  0.3000000E+03  0.7818608E-02  0.1093470E+00
          1   -1    0    0  502    0  0.00000000000E+00  0.00000000000E+00  0.34501136019E+02  0.34501136019E+02  0.00000000000E+00 0.  1.
         13   -1    0    0    0    0 -0.00000000000E+00 -0.00000000000E+00 -0.10000000000E+04  0.10000000000E+04  0.00000000000E+00 0.  1.
    9000005    2    1    2  501    0  0.12482868726E+02  0.14130683269E+02 -0.96083250250E+03  0.10150776155E+04  0.32684548234E+03 0.  0.
         13    1    3    3    0    0 -0.15135298481E+03  0.32425617458E+02 -0.57570142081E+03  0.59614702264E+03  0.00000000000E+00 0.  1.
          1    1    3    3  501    0  0.16383585353E+03 -0.18294934189E+02 -0.38513108170E+03  0.41893059283E+03  0.00000000000E+00 0.  1.
         21    1    1    2  502  501 -0.12482868726E+02 -0.14130683269E+02 -0.46663614769E+01  0.19423520554E+02  0.00000000000E+00 0. -1.
<mgrwt>
<rscale>  1 0.30000000E+03</rscale>
<asrwt>0</asrwt>
<pdfrwt beam="1">  1        1 0.12545894E+00 0.30000000E+03</pdfrwt>
<pdfrwt beam="2">0</pdfrwt>
<totfact> 0.24231690E+01</totfact>
</mgrwt>
</event>
<event>
 6    1  0.1929825E-004  0.3000000E+03  0.7818608E-02  0.1093470E+00
          1   -1    0    0  502    0  0.00000000000E+00  0.00000000000E+00  0.35058241365E+02  0.35058241365E+02  0.00000000000E+00 0.  1.
         13   -1    0    0    0    0 -0.00000000000E+00 -0.00000000000E+00 -0.10000000000E+04  0.10000000000E+04  0.00000000000E+00 0.  1.
    9000005    2    1    2  501    0  0.24575209748E+02 -0.54297820675E+02 -0.82820056610E+03  0.88589273597E+03  0.30876782166E+03 0.  0.
         13    1    3    3    0    0  0.15122210772E+03  0.11088659952E+02 -0.58184349197E+03  0.60127608749E+03  0.00000000000E+00 0.  1.
          3    1    3    3  501    0 -0.12664689798E+03 -0.65386480627E+02 -0.24635707413E+03  0.28461664847E+03  0.00000000000E+00 0.  1.
         21    1    1    2  502  501 -0.24575209748E+02  0.54297820675E+02 -0.13674119254E+03  0.14916550540E+03  0.00000000000E+00 0. -1.
<mgrwt>
<rscale>  1 0.30000000E+03</rscale>
<asrwt>0</asrwt>
<pdfrwt beam="1">  1        1 0.12748478E+00 0.30000000E+03</pdfrwt>
<pdfrwt beam="2">0</pdfrwt>
<totfact> 0.23616243E+01</totfact>
</mgrwt>
</event>
<event>
 6    1  0.1929825E-004  0.3000000E+03  0.7818608E-02  0.1093470E+00
          1   -1    0    0  502    0  0.00000000000E+00  0.00000000000E+00  0.66803578687E+02  0.66803578687E+02  0.00000000000E+00 0.  1.
         13   -1    0    0    0    0 -0.00000000000E+00 -0.00000000000E+00 -0.10000000000E+04  0.10000000000E+04  0.00000000000E+00 0.  1.
    9000005    2    1    2  501    0  0.56914886980E+02  0.71062027387E+02 -0.91321955791E+03  0.97359311164E+03  0.32499918458E+03 0.  0.
         13    1    3    3    0    0  0.11219058881E+03 -0.48193349391E+02 -0.12593320876E+03  0.17540952143E+03  0.00000000000E+00 0.  1.
          1    1    3    3  501    0 -0.55275701825E+02  0.11925537678E+03 -0.78728634916E+03  0.79818359020E+03  0.00000000000E+00 0.  1.
         21    1    1    2  502  501 -0.56914886980E+02 -0.71062027387E+02 -0.19976863401E+02  0.93210467050E+02  0.00000000000E+00 0.  1.
<mgrwt>
<rscale>  1 0.30000000E+03</rscale>
<asrwt>0</asrwt>
<pdfrwt beam="1">  1        1 0.24292262E+00 0.30000000E+03</pdfrwt>
<pdfrwt beam="2">0</pdfrwt>
<totfact> 0.64375979E+00</totfact>
</mgrwt>
</event>
<event>
 6    1  0.1929825E-004  0.3000000E+03  0.7818608E-02  0.1093470E+00
          1   -1    0    0  502    0  0.00000000000E+00  0.00000000000E+00  0.33502985965E+02  0.33502985965E+02  0.00000000000E+00 0.  1.
         13   -1    0    0    0    0 -0.00000000000E+00 -0.00000000000E+00 -0.10000000000E+04  0.10000000000E+04  0.00000000000E+00 0.  1.
    9000005    2    1    2  501    0  0.25222482590E+02 -0.58620675823E+01 -0.93925723092E+03  0.99591916965E+03  0.33012165816E+03 0.  0.
         13    1    3    3    0    0  0.10021546736E+03  0.74571948192E+02 -0.13402588970E+03  0.18321313944E+03  0.00000000000E+00 0.  1.
          3    1    3    3  501    0 -0.74992984768E+02 -0.80434015774E+02 -0.80523134122E+03  0.81270603021E+03  0.00000000000E+00 0.  1.
         21    1    1    2  502  501 -0.25222482590E+02  0.58620675823E+01 -0.27239783116E+02  0.37583816312E+02  0.00000000000E+00 0.  1.
<mgrwt>
<rscale>  1 0.30000000E+03</rscale>
<asrwt>0</asrwt>
<pdfrwt beam="1">  1        1 0.12182930E+00 0.30000000E+03</pdfrwt>
<pdfrwt beam="2">0</pdfrwt>
<totfact> 0.25386596E+01</totfact>
</mgrwt>
</event>
<event>
 6    1  0.1929825E-004  0.3000000E+03  0.7818608E-02  0.1093470E+00
          1   -1    0    0  502    0  0.00000000000E+00  0.00000000000E+00  0.67286157714E+02  0.67286157714E+02  0.00000000000E+00 0.  1.
         13   -1    0    0    0    0 -0.00000000000E+00 -0.00000000000E+00 -0.10000000000E+04  0.10000000000E+04  0.00000000000E+00 0.  1.
    9000005    2    1    2  501    0 -0.42728862733E+02  0.25410209194E+02 -0.95548701720E+03  0.10126047903E+04  0.33157440634E+03 0.  0.
         13    1    3    3    0    0  0.29623588444E+02  0.10781897628E+03 -0.85987184944E+03  0.86711134585E+03  0.00000000000E+00 0.  1.
          1    1    3    3  501    0 -0.72352451177E+02 -0.82408767090E+02 -0.95615167759E+02  0.14549344449E+03  0.00000000000E+00 0.  1.
         21    1    1    2  502  501  0.42728862733E+02 -0.25410209194E+02  0.22773174916E+02  0.54681367370E+02  0.00000000000E+00 0.  1.
<mgrwt>
<rscale>  1 0.30000000E+03</rscale>
<asrwt>0</asrwt>
<pdfrwt beam="1">  1        1 0.24467745E+00 0.30000000E+03</pdfrwt>
<pdfrwt beam="2">0</pdfrwt>
<totfact> 0.63170260E+00</totfact>
</mgrwt>
</event>
<event>
 6    1  0.1929825E-004  0.3000000E+03  0.7818608E-02  0.1093470E+00
          1   -1    0    0  502    0  0.00000000000E+00  0.00000000000E+00  0.34805996724E+02  0.34805996724E+02  0.00000000000E+00 0.  1.
         13   -1    0    0    0    0 -0.00000000000E+00 -0.00000000000E+00 -0.10000000000E+04  0.10000000000E+04  0.00000000000E+00 0.  1.
    9000005    2    1    2  501    0 -0.93257327415E+01  0.21167569698E+02 -0.95174190114E+03  0.10080479260E+04  0.33138035456E+03 0.  0.
         13    1    3    3    0    0 -0.10054493784E+03 -0.11368855783E+03 -0.62271443883E+03  0.64094277829E+03  0.00000000000E+00 0.  1.
          1    1    3    3  501    0  0.91219205100E+02  0.13485612753E+03 -0.32902746231E+03  0.36710514769E+03  0.00000000000E+00 0.  1.
         21    1    1    2  502  501  0.93257327415E+01 -0.21167569698E+02 -0.13452102136E+02  0.26758070744E+02  0.00000000000E+00 0. -1.
<mgrwt>
<rscale>  1 0.30000000E+03</rscale>
<asrwt>0</asrwt>
<pdfrwt beam="1">  1        1 0.12656753E+00 0.30000000E+03</pdfrwt>
<pdfrwt beam="2">0</pdfrwt>
<totfact> 0.23892400E+01</totfact>
</mgrwt>
</event>
<event>
 6    1  0.1929825E-004  0.3000000E+03  0.7818608E-02  0.1093470E+00
          1   -1    0    0  502    0  0.00000000000E+00  0.00000000000E+00  0.32517818126E+02  0.32517818126E+02  0.00000000000E+00 0.  1.
         13   -1    0    0    0    0 -0.00000000000E+00 -0.00000000000E+00 -0.10000000000E+04  0.10000000000E+04  0.00000000000E+00 0.  1.
    9000005    2    1    2  501    0  0.63093598446E+01  0.18078248472E+02 -0.95649724175E+03  0.10104429456E+04  0.32517893790E+03 0.  0.
         13    1    3    3    0    0 -0.62478245300E+02 -0.24747541144E+01 -0.12555928077E+02  0.63775440991E+02  0.00000000000E+00 0.  1.
          3    1    3    3  501    0  0.68787605145E+02  0.20553002587E+02 -0.94394131368E+03  0.94666750457E+03  0.00000000000E+00 0.  1.
         21    1    1    2  502  501 -0.63093598446E+01 -0.18078248472E+02 -0.10984940122E+02  0.22074872570E+02  0.00000000000E+00 0.  1.
<mgrwt>
<rscale>  1 0.30000000E+03</rscale>
<asrwt>0</asrwt>
<pdfrwt beam="1">  1        1 0.11824686E+00 0.30000000E+03</pdfrwt>
<pdfrwt beam="2">0</pdfrwt>
<totfact> 0.26598611E+01</totfact>
</mgrwt>
</event>
<event>
 6    1  0.1929825E-004  0.3000000E+03  0.7818608E-02  0.1093470E+00
          1   -1    0    0  502    0  0.00000000000E+00  0.00000000000E+00  0.29868020742E+02  0.29868020742E+02  0.00000000000E+00 0.  1.
         13   -1    0    0    0    0 -0.00000000000E+00 -0.00000000000E+00 -0.10000000000E+04  0.10000000000E+04  0.00000000000E+00 0.  1.
    9000005    2    1    2  501    0 -0.86132436081E+01 -0.47303392743E+01 -0.96683326672E+03  0.10195024248E+04  0.32329872322E+03 0.  0.
         13    1    3    3    0    0  0.51763262714E+01  0.55934557162E+01  0.25706897880E+02  0.26812789842E+02  0.00000000000E+00 0.  1.
          3    1    3    3  501    0 -0.13789569880E+02 -0.10323794991E+02 -0.99254016460E+03  0.99268963495E+03  0.00000000000E+00 0.  1.
         21    1    1    2  502  501  0.86132436081E+01  0.47303392743E+01 -0.32987125359E+01  0.10365595955E+02  0.00000000000E+00 0. -1.
<mgrwt>
<rscale>  1 0.30000000E+03</rscale>
<asrwt>0</asrwt>
<pdfrwt beam="1">  1        1 0.10861121E+00 0.30000000E+03</pdfrwt>
<pdfrwt beam="2">0</pdfrwt>
<totfact> 0.30283676E+01</totfact>
</mgrwt>
</event>
<event>
 6    1  0.1929825E-004  0.3000000E+03  0.7818608E-02  0.1093470E+00
          1   -1    0    0  502    0  0.00000000000E+00  0.00000000000E+00  0.31773746178E+02  0.31773746178E+02  0.00000000000E+00 0.  1.
         13   -1    0    0    0    0 -0.00000000000E+00 -0.00000000000E+00 -0.10000000000E+04  0.10000000000E+04  0.00000000000E+00 0.  1.
    9000005    2    1    2  501    0  0.12481512042E+02  0.17088605673E+02 -0.97113304552E+03  0.10104135490E+04  0.27818759722E+03 0.  0.
         13    1    3    3    0    0 -0.65200175725E+02 -0.25791871361E+02 -0.52722212383E+02  0.87726365600E+02  0.00000000000E+00 0.  1.
          3    1    3    3  501    0  0.77681687767E+02  0.42880477034E+02 -0.91841083314E+03  0.92268718337E+03  0.00000000000E+00 0.  1.
         21    1    1    2  502  501 -0.12481512042E+02 -0.17088605673E+02  0.29067917024E+01  0.21360197206E+02  0.00000000000E+00 0. -1.
<mgrwt>
<rscale>  1 0.30000000E+03</rscale>
<asrwt>0</asrwt>
<pdfrwt beam="1">  1        1 0.11554114E+00 0.30000000E+03</pdfrwt>
<pdfrwt beam="2">0</pdfrwt>
<totfact> 0.27566673E+01</totfact>
</mgrwt>
</event>
<event>
 6    1  0.1929825E-004  0.3000000E+03  0.7818608E-02  0.1093470E+00
          1   -1    0    0  502    0  0.00000000000E+00  0.00000000000E+00  0.47344118425E+02  0.47344118425E+02  0.00000000000E+00 0.  1.
         13   -1    0    0    0    0 -0.00000000000E+00 -0.00000000000E+00 -0.10000000000E+04  0.10000000000E+04  0.00000000000E+00 0.  1.
    9000005    2    1    2  501    0 -0.43592040661E+02  0.15156626572E+02 -0.94354205838E+03  0.10003010412E+04  0.32893854719E+03 0.  0.
         13    1    3    3    0    0 -0.20600806502E+02  0.11875716272E+03 -0.85101207382E+03  0.85950521040E+03  0.00000000000E+00 0.  1.
          3    1    3    3  501    0 -0.22991234158E+02 -0.10360053614E+03 -0.92529984568E+02  0.14079583084E+03  0.00000000000E+00 0.  1.
         21    1    1    2  502  501  0.43592040661E+02 -0.15156626572E+02 -0.91138231916E+01  0.47043077186E+02  0.00000000000E+00 0.  1.
<mgrwt>
<rscale>  1 0.30000000E+03</rscale>
<asrwt>0</asrwt>
<pdfrwt beam="1">  1        1 0.17216079E+00 0.30000000E+03</pdfrwt>
<pdfrwt beam="2">0</pdfrwt>
<totfact> 0.13944461E+01</totfact>
</mgrwt>
</event>
<event>
 6    1  0.1929825E-004  0.3000000E+03  0.7818608E-02  0.1093470E+00
          1   -1    0    0  502    0  0.00000000000E+00  0.00000000000E+00  0.33137680563E+02  0.33137680563E+02  0.00000000000E+00 0.  1.
         13   -1    0    0    0    0 -0.00000000000E+00 -0.00000000000E+00 -0.10000000000E+04  0.10000000000E+04  0.00000000000E+00 0.  1.
    9000005    2    1    2  501    0  0.22408257803E+02 -0.59562012208E+01 -0.94643361114E+03  0.10022356018E+04  0.32894074667E+03 0.  0.
         13    1    3    3    0    0  0.38900767774E+02  0.15835826086E+03 -0.51879291286E+03  0.54381678436E+03  0.00000000000E+00 0.  1.
          3    1    3    3  501    0 -0.16492509971E+02 -0.16431446208E+03 -0.42764069828E+03  0.45841881742E+03  0.00000000000E+00 0.  1.
         21    1    1    2  502  501 -0.22408257803E+02  0.59562012208E+01 -0.20428708297E+02  0.30902078789E+02  0.00000000000E+00 0.  1.
<mgrwt>
<rscale>  1 0.30000000E+03</rscale>
<asrwt>0</asrwt>
<pdfrwt beam="1">  1        1 0.12050091E+00 0.30000000E+03</pdfrwt>
<pdfrwt beam="2">0</pdfrwt>
<totfact> 0.25827226E+01</totfact>
</mgrwt>
</event>
<event>
 6    1  0.1929825E-004  0.3000000E+03  0.7818608E-02  0.1093470E+00
          3   -1    0    0  502    0  0.00000000000E+00  0.00000000000E+00  0.23254194721E+02  0.23254194721E+02  0.00000000000E+00 0.  1.
         13   -1    0    0    0    0 -0.00000000000E+00 -0.00000000000E+00 -0.10000000000E+04  0.10000000000E+04  0.00000000000E+00 0.  1.
    9000005    2    1    2  501    0 -0.24990223407E+01  0.96216977963E+01 -0.96763261275E+03  0.10097681850E+04  0.28847892804E+03 0.  0.
         13    1    3    3    0    0  0.95909926592E+02  0.90307827003E+02 -0.71343424741E+03  0.72549475740E+03  0.00000000000E+00 0.  1.
          1    1    3    3  501    0 -0.98408948933E+02 -0.80686129207E+02 -0.25419836534E+03  0.28427342756E+03  0.00000000000E+00 0.  1.
         21    1    1    2  502  501  0.24990223407E+01 -0.96216977963E+01 -0.91131925318E+01  0.13486009761E+02  0.00000000000E+00 0. -1.
<mgrwt>
<rscale>  1 0.30000000E+03</rscale>
<asrwt>0</asrwt>
<pdfrwt beam="1">  1        3 0.84560886E-01 0.30000000E+03</pdfrwt>
<pdfrwt beam="2">0</pdfrwt>
<totfact> 0.59092210E+00</totfact>
</mgrwt>
</event>
<event>
 6    1  0.1929825E-004  0.3000000E+03  0.7818608E-02  0.1093470E+00
          3   -1    0    0  502    0  0.00000000000E+00  0.00000000000E+00  0.43696129972E+02  0.43696129972E+02  0.00000000000E+00 0.  1.
         13   -1    0    0    0    0 -0.00000000000E+00 -0.00000000000E+00 -0.10000000000E+04  0.10000000000E+04  0.00000000000E+00 0.  1.
    9000005    2    1    2  501    0 -0.24444084108E+02  0.71257539153E+02 -0.84434486145E+03  0.90875180910E+03  0.32746977777E+03 0.  0.
         13    1    3    3    0    0  0.13867200106E+03  0.97557230900E+01 -0.54400739640E+03  0.56148833056E+03  0.00000000000E+00 0.  1.
          1    1    3    3  501    0 -0.16311608517E+03  0.61501816062E+02 -0.30033746505E+03  0.34726347854E+03  0.00000000000E+00 0.  1.
         21    1    1    2  502  501  0.24444084108E+02 -0.71257539153E+02 -0.11195900858E+03  0.13494432087E+03  0.00000000000E+00 0. -1.
<mgrwt>
<rscale>  1 0.30000000E+03</rscale>
<asrwt>0</asrwt>
<pdfrwt beam="1">  1        3 0.15889535E+00 0.30000000E+03</pdfrwt>
<pdfrwt beam="2">0</pdfrwt>
<totfact> 0.73598134E-01</totfact>
</mgrwt>
</event>
<event>
 6    1  0.1929825E-004  0.3000000E+03  0.7818608E-02  0.1093470E+00
          1   -1    0    0  502    0  0.00000000000E+00  0.00000000000E+00  0.36032616572E+02  0.36032616572E+02  0.00000000000E+00 0.  1.
         13   -1    0    0    0    0 -0.00000000000E+00 -0.00000000000E+00 -0.10000000000E+04  0.10000000000E+04  0.00000000000E+00 0.  1.
    9000005    2    1    2  501    0  0.57550567746E+01 -0.82224891343E+01 -0.97138058799E+03  0.10235552127E+04  0.32246596204E+03 0.  0.
         13    1    3    3    0    0 -0.12827717278E+03  0.10596157125E+02 -0.77148671866E+03  0.78215028522E+03  0.00000000000E+00 0.  1.
          3    1    3    3  501    0  0.13403222955E+03 -0.18818646260E+02 -0.19989386933E+03  0.24140492746E+03  0.00000000000E+00 0.  1.
         21    1    1    2  502  501 -0.57550567746E+01  0.82224891343E+01  0.74132045595E+01  0.12477403892E+02  0.00000000000E+00 0.  1.
<mgrwt>
<rscale>  1 0.30000000E+03</rscale>
<asrwt>0</asrwt>
<pdfrwt beam="1">  1        1 0.13102797E+00 0.30000000E+03</pdfrwt>
<pdfrwt beam="2">0</pdfrwt>
<totfact> 0.22587363E+01</totfact>
</mgrwt>
</event>
<event>
 6    1  0.1929825E-004  0.3000000E+03  0.7818608E-02  0.1093470E+00
          1   -1    0    0  502    0  0.00000000000E+00  0.00000000000E+00  0.33372044507E+02  0.33372044507E+02  0.00000000000E+00 0.  1.
         13   -1    0    0    0    0 -0.00000000000E+00 -0.00000000000E+00 -0.10000000000E+04  0.10000000000E+04  0.00000000000E+00 0.  1.
    9000005    2    1    2  501    0 -0.22033795851E+02  0.11574260199E+02 -0.93447842636E+03  0.99271440215E+03  0.33408457498E+03 0.  0.
         13    1    3    3    0    0  0.92437113915E+02  0.13433986941E+02 -0.83744804982E+03  0.84264128085E+03  0.00000000000E+00 0.  1.
          1    1    3    3  501    0 -0.11447090977E+03 -0.18597267415E+01 -0.97030376534E+02  0.15007312130E+03  0.00000000000E+00 0.  1.
         21    1    1    2  502  501  0.22033795851E+02 -0.11574260199E+02 -0.32149529133E+02  0.40657642360E+02  0.00000000000E+00 0. -1.
<mgrwt>
<rscale>  1 0.30000000E+03</rscale>
<asrwt>0</asrwt>
<pdfrwt beam="1">  1        1 0.12135315E+00 0.30000000E+03</pdfrwt>
<pdfrwt beam="2">0</pdfrwt>
<totfact> 0.25543383E+01</totfact>
</mgrwt>
</event>
<event>
 6    1  0.1929825E-004  0.3000000E+03  0.7818608E-02  0.1093470E+00
          1   -1    0    0  502    0  0.00000000000E+00  0.00000000000E+00  0.43624080554E+02  0.43624080554E+02  0.00000000000E+00 0.  1.
         13   -1    0    0    0    0 -0.00000000000E+00 -0.00000000000E+00 -0.10000000000E+04  0.10000000000E+04  0.00000000000E+00 0.  1.
    9000005    2    1    2  501    0 -0.30605285439E+02 -0.42769794864E+02 -0.92494083015E+03  0.98235333967E+03  0.32670568686E+03 0.  0.
         13    1    3    3    0    0  0.11783448965E+02 -0.14715793749E+02 -0.93097425979E+03  0.93116511782E+03  0.00000000000E+00 0.  1.
          3    1    3    3  501    0 -0.42388734404E+02 -0.28054001115E+02  0.60334296368E+01  0.51188221849E+02  0.00000000000E+00 0.  1.
         21    1    1    2  502  501  0.30605285439E+02  0.42769794864E+02 -0.31435089293E+02  0.61270740883E+02  0.00000000000E+00 0.  1.
<mgrwt>
<rscale>  1 0.30000000E+03</rscale>
<asrwt>0</asrwt>
<pdfrwt beam="1">  1        1 0.15863335E+00 0.30000000E+03</pdfrwt>
<pdfrwt beam="2">0</pdfrwt>
<totfact> 0.16255517E+01</totfact>
</mgrwt>
</event>
<event>
 6    1  0.1929825E-004  0.3000000E+03  0.7818608E-02  0.1093470E+00
          1   -1    0    0  502    0  0.00000000000E+00  0.00000000000E+00  0.40636346793E+02  0.40636346793E+02  0.00000000000E+00 0.  1.
         13   -1    0    0    0    0 -0.00000000000E+00 -0.00000000000E+00 -0.10000000000E+04  0.10000000000E+04  0.00000000000E+00 0.  1.
    9000005    2    1    2  501    0 -0.27348389675E+02  0.61679302732E+01 -0.95337867086E+03  0.10119693310E+04  0.33817903399E+03 0.  0.
         13    1    3    3    0    0 -0.11769209592E+03 -0.44678759390E+02 -0.86964017284E+03  0.87870453009E+03  0.00000000000E+00 0.  1.
          3    1    3    3  501    0  0.90343706242E+02  0.50846689663E+02 -0.83738498012E+02  0.13326480089E+03  0.00000000000E+00 0.  1.
         21    1    1    2  502  501  0.27348389675E+02 -0.61679302732E+01 -0.59849823517E+01  0.28667015809E+02  0.00000000000E+00 0. -1.
<mgrwt>
<rscale>  1 0.30000000E+03</rscale>
<asrwt>0</asrwt>
<pdfrwt beam="1">  1        1 0.14776885E+00 0.30000000E+03</pdfrwt>
<pdfrwt beam="2">0</pdfrwt>
<totfact> 0.18441969E+01</totfact>
</mgrwt>
</event>
<event>
 6    1  0.1929825E-004  0.3000000E+03  0.7818608E-02  0.1093470E+00
          1   -1    0    0  502    0  0.00000000000E+00  0.00000000000E+00  0.38854800255E+02  0.38854800255E+02  0.00000000000E+00 0.  1.
         13   -1    0    0    0    0 -0.00000000000E+00 -0.00000000000E+00 -0.10000000000E+04  0.10000000000E+04  0.00000000000E+00 0.  1.
    9000005    2    1    2  501    0  0.98836525365E+01  0.63781782364E+02 -0.78287917710E+03  0.84926424886E+03  0.32277570557E+03 0.  0.
         13    1    3    3    0    0 -0.11105507918E+03  0.12028352740E+03 -0.24211846475E+03  0.29227163487E+03  0.00000000000E+00 0.  1.
          1    1    3    3  501    0  0.12093873171E+03 -0.56501745038E+02 -0.54076071235E+03  0.55699261399E+03  0.00000000000E+00 0.  1.
         21    1    1    2  502  501 -0.98836525365E+01 -0.63781782364E+02 -0.17826602265E+03  0.18959055140E+03  0.00000000000E+00 0.  1.
<mgrwt>
<rscale>  1 0.30000000E+03</rscale>
<asrwt>0</asrwt>
<pdfrwt beam="1">  1        1 0.14129048E+00 0.30000000E+03</pdfrwt>
<pdfrwt beam="2">0</pdfrwt>
<totfact> 0.19920090E+01</totfact>
</mgrwt>
</event>
<event>
 6    1  0.1929825E-004  0.3000000E+03  0.7818608E-02  0.1093470E+00
          1   -1    0    0  502    0  0.00000000000E+00  0.00000000000E+00  0.29894425015E+02  0.29894425015E+02  0.00000000000E+00 0.  1.
         13   -1    0    0    0    0 -0.00000000000E+00 -0.00000000000E+00 -0.10000000000E+04  0.10000000000E+04  0.00000000000E+00 0.  1.
    9000005    2    1    2  501    0  0.16120976448E+02  0.60360326462E+00 -0.94983397747E+03  0.10039871310E+04  0.32487739871E+03 0.  0.
         13    1    3    3    0    0 -0.12490213098E+03  0.22541274368E+02 -0.73623971405E+03  0.74709943643E+03  0.00000000000E+00 0.  1.
          1    1    3    3  501    0  0.14102310743E+03 -0.21937671104E+02 -0.21359426342E+03  0.25688769454E+03  0.00000000000E+00 0.  1.
         21    1    1    2  502  501 -0.16120976448E+02 -0.60360326462E+00 -0.20271597517E+02  0.25907294039E+02  0.00000000000E+00 0. -1.
<mgrwt>
<rscale>  1 0.30000000E+03</rscale>
<asrwt>0</asrwt>
<pdfrwt beam="1">  1        1 0.10870723E+00 0.30000000E+03</pdfrwt>
<pdfrwt beam="2">0</pdfrwt>
<totfact> 0.30243483E+01</totfact>
</mgrwt>
</event>
<event>
 6    1  0.1929825E-004  0.3000000E+03  0.7818608E-02  0.1093470E+00
          1   -1    0    0  502    0  0.00000000000E+00  0.00000000000E+00  0.44029972519E+02  0.44029972519E+02  0.00000000000E+00 0.  1.
         13   -1    0    0    0    0 -0.00000000000E+00 -0.00000000000E+00 -0.10000000000E+04  0.10000000000E+04  0.00000000000E+00 0.  1.
    9000005    2    1    2  501    0  0.17685470958E+02 -0.15155877534E+02 -0.96462108868E+03  0.10191841003E+04  0.32817664307E+03 0.  0.
         13    1    3    3    0    0  0.58702423622E+02 -0.10796530526E+03 -0.87565403479E+03  0.88423552876E+03  0.00000000000E+00 0.  1.
          1    1    3    3  501    0 -0.41016952663E+02  0.92809427727E+02 -0.88967053890E+02  0.13494857153E+03  0.00000000000E+00 0.  1.
         21    1    1    2  502  501 -0.17685470958E+02  0.15155877534E+02  0.86510611980E+01  0.24845872226E+02  0.00000000000E+00 0.  1.
<mgrwt>
<rscale>  1 0.30000000E+03</rscale>
<asrwt>0</asrwt>
<pdfrwt beam="1">  1        1 0.16010933E+00 0.30000000E+03</pdfrwt>
<pdfrwt beam="2">0</pdfrwt>
<totfact> 0.15983047E+01</totfact>
</mgrwt>
</event>
<event>
 6    1  0.1929825E-004  0.3000000E+03  0.7818608E-02  0.1093470E+00
          1   -1    0    0  502    0  0.00000000000E+00  0.00000000000E+00  0.40058433926E+02  0.40058433926E+02  0.00000000000E+00 0.  1.
         13   -1    0    0    0    0 -0.00000000000E+00 -0.00000000000E+00 -0.10000000000E+04  0.10000000000E+04  0.00000000000E+00 0.  1.
    9000005    2    1    2  501    0  0.25515197570E+02  0.75403285142E+01 -0.95753961113E+03  0.10133441821E+04  0.33056987572E+03 0.  0.
         13    1    3    3    0    0  0.13296916295E+03  0.93565684968E+02 -0.29677000553E+03  0.33838997013E+03  0.00000000000E+00 0.  1.
          1    1    3    3  501    0 -0.10745396538E+03 -0.86025356454E+02 -0.66076960560E+03  0.67495421201E+03  0.00000000000E+00 0.  1.
         21    1    1    2  502  501 -0.25515197570E+02 -0.75403285142E+01 -0.24019549462E+01  0.26714251790E+02  0.00000000000E+00 0.  1.
<mgrwt>
<rscale>  1 0.30000000E+03</rscale>
<asrwt>0</asrwt>
<pdfrwt beam="1">  1        1 0.14566734E+00 0.30000000E+03</pdfrwt>
<pdfrwt beam="2">0</pdfrwt>
<totfact> 0.18905834E+01</totfact>
</mgrwt>
</event>
<event>
 6    1  0.1929825E-004  0.3000000E+03  0.7818608E-02  0.1093470E+00
          1   -1    0    0  502    0  0.00000000000E+00  0.00000000000E+00  0.33735298131E+02  0.33735298131E+02  0.00000000000E+00 0.  1.
         13   -1    0    0    0    0 -0.00000000000E+00 -0.00000000000E+00 -0.10000000000E+04  0.10000000000E+04  0.00000000000E+00 0.  1.
    9000005    2    1    2  501    0 -0.21722288733E+01  0.17767679349E+02 -0.95485378268E+03  0.10125075313E+04  0.33631138196E+03 0.  0.
         13    1    3    3    0    0 -0.39208525577E+02  0.31254182396E+02  0.63093858703E+01  0.50536528821E+02  0.00000000000E+00 0.  1.
          3    1    3    3  501    0  0.37036296704E+02 -0.13486503047E+02 -0.96116316855E+03  0.96197100249E+03  0.00000000000E+00 0.  1.
         21    1    1    2  502  501  0.21722288733E+01 -0.17767679349E+02 -0.11410919185E+02  0.21227766825E+02  0.00000000000E+00 0.  1.
<mgrwt>
<rscale>  1 0.30000000E+03</rscale>
<asrwt>0</asrwt>
<pdfrwt beam="1">  1        1 0.12267407E+00 0.30000000E+03</pdfrwt>
<pdfrwt beam="2">0</pdfrwt>
<totfact> 0.25111531E+01</totfact>
</mgrwt>
</event>
<event>
 6    1  0.1929825E-004  0.3000000E+03  0.7818608E-02  0.1093470E+00
          1   -1    0    0  502    0  0.00000000000E+00  0.00000000000E+00  0.32153940560E+02  0.32153940560E+02  0.00000000000E+00 0.  1.
         13   -1    0    0    0    0 -0.00000000000E+00 -0.00000000000E+00 -0.10000000000E+04  0.10000000000E+04  0.00000000000E+00 0.  1.
    9000005    2    1    2  501    0 -0.58208207021E+01  0.84509710684E+01 -0.96751024597E+03  0.10218868262E+04  0.32874200937E+03 0.  0.
         13    1    3    3    0    0  0.11024144157E+03  0.33934846826E+02 -0.12134817897E+03  0.16742201112E+03  0.00000000000E+00 0.  1.
          1    1    3    3  501    0 -0.11606226227E+03 -0.25483875758E+02 -0.84616206700E+03  0.85446481512E+03  0.00000000000E+00 0.  1.
         21    1    1    2  502  501  0.58208207021E+01 -0.84509710684E+01 -0.33581346605E+00  0.10267114314E+02  0.00000000000E+00 0. -1.
<mgrwt>
<rscale>  1 0.30000000E+03</rscale>
<asrwt>0</asrwt>
<pdfrwt beam="1">  1        1 0.11692367E+00 0.30000000E+03</pdfrwt>
<pdfrwt beam="2">0</pdfrwt>
<totfact> 0.27066068E+01</totfact>
</mgrwt>
</event>
<event>
 6    1  0.1929825E-004  0.3000000E+03  0.7818608E-02  0.1093470E+00
          3   -1    0    0  502    0  0.00000000000E+00  0.00000000000E+00  0.31220358143E+02  0.31220358143E+02  0.00000000000E+00 0.  1.
         13   -1    0    0    0    0 -0.00000000000E+00 -0.00000000000E+00 -0.10000000000E+04  0.10000000000E+04  0.00000000000E+00 0.  1.
    9000005    2    1    2  501    0 -0.16547458546E+02  0.14214473879E+02 -0.93210752530E+03  0.98855053526E+03  0.32852983486E+03 0.  0.
         13    1    3    3    0    0  0.10104135469E+03 -0.10782831536E+03 -0.30447336776E+03  0.33843807798E+03  0.00000000000E+00 0.  1.
          1    1    3    3  501    0 -0.11758881324E+03  0.12204278924E+03 -0.62763415754E+03  0.65011245728E+03  0.00000000000E+00 0.  1.
         21    1    1    2  502  501  0.16547458546E+02 -0.14214473879E+02 -0.36672116558E+02  0.42669822882E+02  0.00000000000E+00 0.  1.
<mgrwt>
<rscale>  1 0.30000000E+03</rscale>
<asrwt>0</asrwt>
<pdfrwt beam="1">  1        3 0.11352881E+00 0.30000000E+03</pdfrwt>
<pdfrwt beam="2">0</pdfrwt>
<totfact> 0.27466138E+00</totfact>
</mgrwt>
</event>
<event>
 6    1  0.1929825E-004  0.3000000E+03  0.7818608E-02  0.1093470E+00
          1   -1    0    0  502    0  0.00000000000E+00  0.00000000000E+00  0.79091031127E+02  0.79091031127E+02  0.00000000000E+00 0.  1.
         13   -1    0    0    0    0 -0.00000000000E+00 -0.00000000000E+00 -0.10000000000E+04  0.10000000000E+04  0.00000000000E+00 0.  1.
    9000005    2    1    2  501    0  0.28530664031E+02 -0.40407932289E+02 -0.96351068645E+03  0.10138092870E+04  0.31146368588E+03 0.  0.
         13    1    3    3    0    0 -0.92022620835E+02 -0.13024787430E+03 -0.40086897366E+03  0.43142624578E+03  0.00000000000E+00 0.  1.
          3    1    3    3  501    0  0.12055328487E+03  0.89839942009E+02 -0.56264171279E+03  0.58238304117E+03  0.00000000000E+00 0.  1.
         21    1    1    2  502  501 -0.28530664031E+02  0.40407932289E+02  0.42601717579E+02  0.65281744176E+02  0.00000000000E+00 0.  1.
<mgrwt>
<rscale>  1 0.30000000E+03</rscale>
<asrwt>0</asrwt>
<pdfrwt beam="1">  1        1 0.28760436E+00 0.30000000E+03</pdfrwt>
<pdfrwt beam="2">0</pdfrwt>
<totfact> 0.39769088E+00</totfact>
</mgrwt>
</event>
<event>
 6    1  0.1929825E-004  0.3000000E+03  0.7818608E-02  0.1093470E+00
          1   -1    0    0  502    0  0.00000000000E+00  0.00000000000E+00  0.34112755553E+02  0.34112755553E+02  0.00000000000E+00 0.  1.
         13   -1    0    0    0    0 -0.00000000000E+00 -0.00000000000E+00 -0.10000000000E+04  0.10000000000E+04  0.00000000000E+00 0.  1.
    9000005    2    1    2  501    0 -0.20277824241E+02 -0.29202251763E+02 -0.90998668093E+03  0.96786447508E+03  0.32775283521E+03 0.  0.
         13    1    3    3    0    0 -0.97026058762E+01  0.88885577082E+02 -0.80363388626E+03  0.80859273403E+03  0.00000000000E+00 0.  1.
          3    1    3    3  501    0 -0.10575218365E+02 -0.11808782884E+03 -0.10635279467E+03  0.15927174106E+03  0.00000000000E+00 0.  1.
         21    1    1    2  502  501  0.20277824241E+02  0.29202251763E+02 -0.55900563515E+02  0.66248280470E+02  0.00000000000E+00 0.  1.
<mgrwt>
<rscale>  1 0.30000000E+03</rscale>
<asrwt>0</asrwt>
<pdfrwt beam="1">  1        1 0.12404665E+00 0.30000000E+03</pdfrwt>
<pdfrwt beam="2">0</pdfrwt>
<totfact> 0.24672847E+01</totfact>
</mgrwt>
</event>
<event>
 6    1  0.1929825E-004  0.3000000E+03  0.7818608E-02  0.1093470E+00
          1   -1    0    0  502    0  0.00000000000E+00  0.00000000000E+00  0.28213476644E+02  0.28213476644E+02  0.00000000000E+00 0.  1.
         13   -1    0    0    0    0 -0.00000000000E+00 -0.00000000000E+00 -0.10000000000E+04  0.10000000000E+04  0.00000000000E+00 0.  1.
    9000005    2    1    2  501    0 -0.96837520469E+01 -0.10312166671E+01 -0.93766899346E+03  0.99273328065E+03  0.32588554241E+03 0.  0.
         13    1    3    3    0    0  0.79101148274E+02  0.92380391677E+01 -0.37303393299E+02  0.87942459470E+02  0.00000000000E+00 0.  1.
          3    1    3    3  501    0 -0.88784900321E+02 -0.10269255835E+02 -0.90036560016E+03  0.90479082118E+03  0.00000000000E+00 0.  1.
         21    1    1    2  502  501  0.96837520469E+01  0.10312166671E+01 -0.34117529899E+02  0.35480195997E+02  0.00000000000E+00 0.  1.
<mgrwt>
<rscale>  1 0.30000000E+03</rscale>
<asrwt>0</asrwt>
<pdfrwt beam="1">  1        1 0.10259468E+00 0.30000000E+03</pdfrwt>
<pdfrwt beam="2">0</pdfrwt>
<totfact> 0.32963800E+01</totfact>
</mgrwt>
</event>
<event>
 6    1  0.1929825E-004  0.3000000E+03  0.7818608E-02  0.1093470E+00
          1   -1    0    0  502    0  0.00000000000E+00  0.00000000000E+00  0.25849734374E+02  0.25849734374E+02  0.00000000000E+00 0.  1.
         13   -1    0    0    0    0 -0.00000000000E+00 -0.00000000000E+00 -0.10000000000E+04  0.10000000000E+04  0.00000000000E+00 0.  1.
    9000005    2    1    2  501    0 -0.13907007374E+02 -0.14298352793E+01 -0.96034103886E+03  0.10061991866E+04  0.29997740409E+03 0.  0.
         13    1    3    3    0    0  0.13969841918E+03 -0.29407274391E+01 -0.56606365687E+03  0.58305433694E+03  0.00000000000E+00 0.  1.
          1    1    3    3  501    0 -0.15360542656E+03  0.15108921598E+01 -0.39427738199E+03  0.42314484968E+03  0.00000000000E+00 0.  1.
         21    1    1    2  502  501  0.13907007374E+02  0.14298352793E+01 -0.13809226767E+02  0.19650547751E+02  0.00000000000E+00 0.  1.
<mgrwt>
<rscale>  1 0.30000000E+03</rscale>
<asrwt>0</asrwt>
<pdfrwt beam="1">  1        1 0.93999232E-01 0.30000000E+03</pdfrwt>
<pdfrwt beam="2">0</pdfrwt>
<totfact> 0.37436681E+01</totfact>
</mgrwt>
</event>
<event>
 6    1  0.1929825E-004  0.3000000E+03  0.7818608E-02  0.1093470E+00
          1   -1    0    0  502    0  0.00000000000E+00  0.00000000000E+00  0.31575774838E+02  0.31575774838E+02  0.00000000000E+00 0.  1.
         13   -1    0    0    0    0 -0.00000000000E+00 -0.00000000000E+00 -0.10000000000E+04  0.10000000000E+04  0.00000000000E+00 0.  1.
    9000005    2    1    2  501    0  0.18029731155E+02  0.11202639547E+01 -0.95414172245E+03  0.10085471822E+04  0.32627391243E+03 0.  0.
         13    1    3    3    0    0 -0.57484472652E+02  0.71563431257E+02 -0.62743532777E+02  0.11118696054E+03  0.00000000000E+00 0.  1.
          1    1    3    3  501    0  0.75514203807E+02 -0.70443167303E+02 -0.89139818967E+03  0.89736022162E+03  0.00000000000E+00 0.  1.
         21    1    1    2  502  501 -0.18029731155E+02 -0.11202639547E+01 -0.14282502712E+02  0.23028592674E+02  0.00000000000E+00 0. -1.
<mgrwt>
<rscale>  1 0.30000000E+03</rscale>
<asrwt>0</asrwt>
<pdfrwt beam="1">  1        1 0.11482124E+00 0.30000000E+03</pdfrwt>
<pdfrwt beam="2">0</pdfrwt>
<totfact> 0.27832461E+01</totfact>
</mgrwt>
</event>
<event>
 6    1  0.1929825E-004  0.3000000E+03  0.7818608E-02  0.1093470E+00
          1   -1    0    0  502    0  0.00000000000E+00  0.00000000000E+00  0.52460465748E+02  0.52460465748E+02  0.00000000000E+00 0.  1.
         13   -1    0    0    0    0 -0.00000000000E+00 -0.00000000000E+00 -0.10000000000E+04  0.10000000000E+04  0.00000000000E+00 0.  1.
    9000005    2    1    2  501    0 -0.15784585136E+02 -0.97864473489E+02 -0.87299108510E+03  0.92842789112E+03  0.30006383660E+03 0.  0.
         13    1    3    3    0    0  0.28868391866E+01  0.10748704974E+03 -0.24819969502E+03  0.27049008912E+03  0.00000000000E+00 0.  1.
          1    1    3    3  501    0 -0.18671424323E+02 -0.20535152323E+03 -0.62479139008E+03  0.65793780200E+03  0.00000000000E+00 0.  1.
         21    1    1    2  502  501  0.15784585136E+02  0.97864473489E+02 -0.74548449148E+02  0.12403257463E+03  0.00000000000E+00 0.  1.
<mgrwt>
<rscale>  1 0.30000000E+03</rscale>
<asrwt>0</asrwt>
<pdfrwt beam="1">  1        1 0.19076573E+00 0.30000000E+03</pdfrwt>
<pdfrwt beam="2">0</pdfrwt>
<totfact> 0.11337674E+01</totfact>
</mgrwt>
</event>
<event>
 6    1  0.1929825E-004  0.3000000E+03  0.7818608E-02  0.1093470E+00
          1   -1    0    0  502    0  0.00000000000E+00  0.00000000000E+00  0.29193108955E+02  0.29193108955E+02  0.00000000000E+00 0.  1.
         13   -1    0    0    0    0 -0.00000000000E+00 -0.00000000000E+00 -0.10000000000E+04  0.10000000000E+04  0.00000000000E+00 0.  1.
    9000005    2    1    2  501    0  0.45228668796E+01 -0.11716902725E+02 -0.95773014310E+03  0.10110618246E+04  0.32379197659E+03 0.  0.
         13    1    3    3    0    0  0.14844154456E+03 -0.23905345561E+02 -0.69667506650E+03  0.71271488407E+03  0.00000000000E+00 0.  1.
          3    1    3    3  501    0 -0.14391867768E+03  0.12188442836E+02 -0.26105507660E+03  0.29834694056E+03  0.00000000000E+00 0.  1.
         21    1    1    2  502  501 -0.45228668796E+01  0.11716902725E+02 -0.13076747949E+02  0.18131284323E+02  0.00000000000E+00 0.  1.
<mgrwt>
<rscale>  1 0.30000000E+03</rscale>
<asrwt>0</asrwt>
<pdfrwt beam="1">  1        1 0.10615698E+00 0.30000000E+03</pdfrwt>
<pdfrwt beam="2">0</pdfrwt>
<totfact> 0.31337543E+01</totfact>
</mgrwt>
</event>
