<event>
 6    1  0.1274196E-001  0.3000000E+03  0.7818608E-02  0.1093470E+00
         21   -1    0    0  501  502  0.00000000000E+00  0.00000000000E+00  0.15921819186E+01  0.15921819186E+01  0.00000000000E+00 0. -1.
         13   -1    0    0    0    0 -0.00000000000E+00 -0.00000000000E+00 -0.10000000000E+04  0.10000000000E+04  0.00000000000E+00 0.  1.
    9000005    2    1    2  501    0  0.32219562477E+02  0.11651485540E+02 -0.24696877112E+03  0.24937246759E+03  0.43813654804E+01 0.  0.
         13    1    3    3    0    0  0.18457809214E+02  0.56705137695E+01 -0.15290392048E+03  0.15411831282E+03  0.00000000000E+00 0.  1.
          3    1    3    3  501    0  0.13761753264E+02  0.59809717709E+01 -0.94064850633E+02  0.95254154769E+02  0.00000000000E+00 0.  1.
         -3    1    1    2    0  502 -0.32219562477E+02 -0.11651485540E+02 -0.75143904696E+03  0.75221971433E+03  0.00000000000E+00 0. -1.
<mgrwt>
<rscale>  1 0.30000000E+03</rscale>
<asrwt>0</asrwt>
<pdfrwt beam="1">  1       21 0.57897646E-02 0.30000000E+03</pdfrwt>
<pdfrwt beam="2">0</pdfrwt>
<totfact> 0.22407623E+04</totfact>
</mgrwt>
</event>
<event>
 6    1  0.1274196E-001  0.3000000E+03  0.7818608E-02  0.1093470E+00
         21   -1    0    0  501  502  0.00000000000E+00  0.00000000000E+00  0.79634258859E+01  0.79634258859E+01  0.00000000000E+00 0. -1.
         13   -1    0    0    0    0 -0.00000000000E+00 -0.00000000000E+00 -0.10000000000E+04  0.10000000000E+04  0.00000000000E+00 0.  1.
    9000005    2    1    2  501    0  0.88516675073E+01 -0.88770540766E+02 -0.49781760621E+03  0.50575734352E+03  0.30920138583E+01 0.  0.
         13    1    3    3    0    0  0.41064850795E+01 -0.55528133913E+02 -0.30788903926E+03  0.31288320085E+03  0.00000000000E+00 0.  1.
          3    1    3    3  501    0  0.47451824277E+01 -0.33242406853E+02 -0.18992856695E+03  0.19287414267E+03  0.00000000000E+00 0.  1.
         -3    1    1    2    0  502 -0.88516675073E+01  0.88770540766E+02 -0.49421896790E+03  0.50220608236E+03  0.00000000000E+00 0. -1.
<mgrwt>
<rscale>  1 0.30000000E+03</rscale>
<asrwt>0</asrwt>
<pdfrwt beam="1">  1       21 0.28957973E-01 0.30000000E+03</pdfrwt>
<pdfrwt beam="2">0</pdfrwt>
<totfact> 0.11667536E+03</totfact>
</mgrwt>
</event>
<event>
 6    1  0.1274196E-001  0.3000000E+03  0.7818608E-02  0.1093470E+00
         21   -1    0    0  501  502  0.00000000000E+00  0.00000000000E+00  0.21779171211E+01  0.21779171211E+01  0.00000000000E+00 0. -1.
         13   -1    0    0    0    0 -0.00000000000E+00 -0.00000000000E+00 -0.10000000000E+04  0.10000000000E+04  0.00000000000E+00 0.  1.
    9000005    2    1    2  501    0 -0.17493293541E+02 -0.31860708826E+02 -0.81306256480E+03  0.81387709502E+03  0.20177765187E+01 0.  0.
         13    1    3    3    0    0 -0.10131253438E+02 -0.19931390424E+02 -0.51472617167E+03  0.51521154337E+03  0.00000000000E+00 0.  1.
          3    1    3    3  501    0 -0.73620401031E+01 -0.11929318401E+02 -0.29833639313E+03  0.29866555164E+03  0.00000000000E+00 0.  1.
         -3    1    1    2    0  502  0.17493293541E+02  0.31860708826E+02 -0.18475951808E+03  0.18830082211E+03  0.00000000000E+00 0. -1.
<mgrwt>
<rscale>  1 0.30000000E+03</rscale>
<asrwt>0</asrwt>
<pdfrwt beam="1">  1       21 0.79197153E-02 0.30000000E+03</pdfrwt>
<pdfrwt beam="2">0</pdfrwt>
<totfact> 0.13002124E+04</totfact>
</mgrwt>
</event>
<event>
 6    1  0.1274196E-001  0.3000000E+03  0.7818608E-02  0.1093470E+00
         21   -1    0    0  501  502  0.00000000000E+00  0.00000000000E+00  0.23018808469E+01  0.23018808469E+01  0.00000000000E+00 0. -1.
         13   -1    0    0    0    0 -0.00000000000E+00 -0.00000000000E+00 -0.10000000000E+04  0.10000000000E+04  0.00000000000E+00 0.  1.
    9000005    2    1    2  501    0 -0.57176477400E+01  0.31514772765E+02 -0.86989314157E+03  0.87054458620E+03  0.10388763657E+02 0.  0.
         13    1    3    3    0    0 -0.35509821688E+01  0.37169806846E+01 -0.84122142219E+02  0.84279061642E+02  0.00000000000E+00 0.  1.
          1    1    3    3  501    0 -0.21666655712E+01  0.27797792081E+02 -0.78577099935E+03  0.78626552456E+03  0.00000000000E+00 0.  1.
         -3    1    1    2    0  502  0.57176477400E+01 -0.31514772765E+02 -0.12780497758E+03  0.13175729465E+03  0.00000000000E+00 0. -1.
<mgrwt>
<rscale>  1 0.30000000E+03</rscale>
<asrwt>0</asrwt>
<pdfrwt beam="1">  1       21 0.83704935E-02 0.30000000E+03</pdfrwt>
<pdfrwt beam="2">0</pdfrwt>
<totfact> 0.11796171E+04</totfact>
</mgrwt>
</event>
<event>
 6    1  0.1274196E-001  0.3000000E+03  0.7818608E-02  0.1093470E+00
         21   -1    0    0  501  502  0.00000000000E+00  0.00000000000E+00  0.31841998498E+01  0.31841998498E+01  0.00000000000E+00 0. -1.
         13   -1    0    0    0    0 -0.00000000000E+00 -0.00000000000E+00 -0.10000000000E+04  0.10000000000E+04  0.00000000000E+00 0.  1.
    9000005    2    1    2  501    0  0.14341550185E+02 -0.34589207417E+02 -0.87350159983E+03  0.87431028731E+03  0.33675313733E+01 0.  0.
         13    1    3    3    0    0  0.65983806107E+01 -0.15857680194E+02 -0.36194075120E+03  0.36234805371E+03  0.00000000000E+00 0.  1.
          3    1    3    3  501    0  0.77431695743E+01 -0.18731527223E+02 -0.51156084863E+03  0.51196223361E+03  0.00000000000E+00 0.  1.
         -3    1    1    2    0  502 -0.14341550185E+02  0.34589207417E+02 -0.12331420032E+03  0.12887391254E+03  0.00000000000E+00 0. -1.
<mgrwt>
<rscale>  1 0.30000000E+03</rscale>
<asrwt>0</asrwt>
<pdfrwt beam="1">  1       21 0.11578933E-01 0.30000000E+03</pdfrwt>
<pdfrwt beam="2">0</pdfrwt>
<totfact> 0.66113187E+03</totfact>
</mgrwt>
</event>
<event>
 6    1  0.1274196E-001  0.3000000E+03  0.7818608E-02  0.1093470E+00
         21   -1    0    0  501  502  0.00000000000E+00  0.00000000000E+00  0.25150718309E+01  0.25150718309E+01  0.00000000000E+00 0. -1.
         13   -1    0    0    0    0 -0.00000000000E+00 -0.00000000000E+00 -0.10000000000E+04  0.10000000000E+04  0.00000000000E+00 0.  1.
    9000005    2    1    2  501    0  0.17590069441E+02  0.39380383399E+02 -0.75399697354E+03  0.75523666762E+03  0.32806814350E+01 0.  0.
         13    1    3    3    0    0  0.58097873154E+00  0.30142130185E+01 -0.62262376248E+02  0.62338002153E+02  0.00000000000E+00 0.  1.
          1    1    3    3  501    0  0.17009090710E+02  0.36366170381E+02 -0.69173459730E+03  0.69289866547E+03  0.00000000000E+00 0.  1.
         -1    1    1    2    0  502 -0.17590069441E+02 -0.39380383399E+02 -0.24348795463E+03  0.24727840421E+03  0.00000000000E+00 0. -1.
<mgrwt>
<rscale>  1 0.30000000E+03</rscale>
<asrwt>0</asrwt>
<pdfrwt beam="1">  1       21 0.91457350E-02 0.30000000E+03</pdfrwt>
<pdfrwt beam="2">0</pdfrwt>
<totfact> 0.10086695E+04</totfact>
</mgrwt>
</event>
<event>
 6    1  0.1274196E-001  0.3000000E+03  0.7818608E-02  0.1093470E+00
         21   -1    0    0  501  502  0.00000000000E+00  0.00000000000E+00  0.17421651021E+01  0.17421651021E+01  0.00000000000E+00 0. -1.
         13   -1    0    0    0    0 -0.00000000000E+00 -0.00000000000E+00 -0.10000000000E+04  0.10000000000E+04  0.00000000000E+00 0.  1.
    9000005    2    1    2  501    0  0.30649839105E+02  0.24624179166E+02 -0.66626122423E+03  0.66742567982E+03  0.26937581784E+01 0.  0.
         13    1    3    3    0    0  0.22173639432E+02  0.16233551348E+02 -0.46642321838E+03  0.46723208058E+03  0.00000000000E+00 0.  1.
          1    1    3    3  501    0  0.84761996731E+01  0.83906278181E+01 -0.19983800585E+03  0.20019359924E+03  0.00000000000E+00 0.  1.
         -3    1    1    2    0  502 -0.30649839105E+02 -0.24624179166E+02 -0.33199661067E+03  0.33431648528E+03  0.00000000000E+00 0. -1.
<mgrwt>
<rscale>  1 0.30000000E+03</rscale>
<asrwt>0</asrwt>
<pdfrwt beam="1">  1       21 0.63351592E-02 0.30000000E+03</pdfrwt>
<pdfrwt beam="2">0</pdfrwt>
<totfact> 0.19183959E+04</totfact>
</mgrwt>
</event>
<event>
 6    1  0.1274196E-001  0.3000000E+03  0.7818608E-02  0.1093470E+00
         21   -1    0    0  501  502  0.00000000000E+00  0.00000000000E+00  0.13753650598E+02  0.13753650598E+02  0.00000000000E+00 0. -1.
         13   -1    0    0    0    0 -0.00000000000E+00 -0.00000000000E+00 -0.10000000000E+04  0.10000000000E+04  0.00000000000E+00 0.  1.
    9000005    2    1    2  501    0 -0.41501370851E+02 -0.20983423902E+02 -0.95838271401E+03  0.95954064442E+03  0.76258724210E+01 0.  0.
         13    1    3    3    0    0 -0.39028627504E+02 -0.19190038463E+02 -0.92383577709E+03  0.92485892674E+03  0.00000000000E+00 0.  1.
          1    1    3    3  501    0 -0.24727433468E+01 -0.17933854391E+01 -0.34546936921E+02  0.34681717686E+02  0.00000000000E+00 0.  1.
         -1    1    1    2    0  502  0.41501370851E+02  0.20983423902E+02 -0.27863635393E+02  0.54213006174E+02  0.00000000000E+00 0. -1.
<mgrwt>
<rscale>  1 0.30000000E+03</rscale>
<asrwt>0</asrwt>
<pdfrwt beam="1">  1       21 0.50013380E-01 0.30000000E+03</pdfrwt>
<pdfrwt beam="2">0</pdfrwt>
<totfact> 0.37550716E+02</totfact>
</mgrwt>
</event>
<event>
 6    1  0.1274196E-001  0.3000000E+03  0.7818608E-02  0.1093470E+00
         21   -1    0    0  501  502  0.00000000000E+00  0.00000000000E+00  0.18879612467E+01  0.18879612467E+01  0.00000000000E+00 0. -1.
         13   -1    0    0    0    0 -0.00000000000E+00 -0.00000000000E+00 -0.10000000000E+04  0.10000000000E+04  0.00000000000E+00 0.  1.
    9000005    2    1    2  501    0  0.39535762801E+02  0.16729255373E+02 -0.57286184760E+03  0.57447636852E+03  0.30752269371E+01 0.  0.
         13    1    3    3    0    0  0.38542273074E+02  0.16320502335E+02 -0.55057843728E+03  0.55216707726E+03  0.00000000000E+00 0.  1.
          3    1    3    3  501    0  0.99348972698E+00  0.40875303819E+00 -0.22283410322E+02  0.22309291259E+02  0.00000000000E+00 0.  1.
         -3    1    1    2    0  502 -0.39535762801E+02 -0.16729255373E+02 -0.42525019115E+03  0.42741159273E+03  0.00000000000E+00 0. -1.
<mgrwt>
<rscale>  1 0.30000000E+03</rscale>
<asrwt>0</asrwt>
<pdfrwt beam="1">  1       21 0.68653281E-02 0.30000000E+03</pdfrwt>
<pdfrwt beam="2">0</pdfrwt>
<totfact> 0.16689687E+04</totfact>
</mgrwt>
</event>
<event>
 6    1  0.1274196E-001  0.3000000E+03  0.7818608E-02  0.1093470E+00
         21   -1    0    0  501  502  0.00000000000E+00  0.00000000000E+00  0.14062594279E+02  0.14062594279E+02  0.00000000000E+00 0. -1.
         13   -1    0    0    0    0 -0.00000000000E+00 -0.00000000000E+00 -0.10000000000E+04  0.10000000000E+04  0.00000000000E+00 0.  1.
    9000005    2    1    2  501    0  0.28070890185E+02 -0.57206353653E+02 -0.92054327045E+03  0.92275577798E+03  0.42155972616E+01 0.  0.
         13    1    3    3    0    0  0.20382397135E+02 -0.42779568586E+02 -0.70895237906E+03  0.71053431260E+03  0.00000000000E+00 0.  1.
          1    1    3    3  501    0  0.76884930501E+01 -0.14426785067E+02 -0.21159089138E+03  0.21222146538E+03  0.00000000000E+00 0.  1.
         -1    1    1    2    0  502 -0.28070890185E+02  0.57206353653E+02 -0.65394135276E+02  0.91306816298E+02  0.00000000000E+00 0. -1.
<mgrwt>
<rscale>  1 0.30000000E+03</rscale>
<asrwt>0</asrwt>
<pdfrwt beam="1">  1       21 0.51136814E-01 0.30000000E+03</pdfrwt>
<pdfrwt beam="2">0</pdfrwt>
<totfact> 0.35780938E+02</totfact>
</mgrwt>
</event>
<event>
 6    1  0.1274196E-001  0.3000000E+03  0.7818608E-02  0.1093470E+00
         21   -1    0    0  501  502  0.00000000000E+00  0.00000000000E+00  0.19918625938E+01  0.19918625938E+01  0.00000000000E+00 0. -1.
         13   -1    0    0    0    0 -0.00000000000E+00 -0.00000000000E+00 -0.10000000000E+04  0.10000000000E+04  0.00000000000E+00 0.  1.
    9000005    2    1    2  501    0  0.43196040640E+02 -0.59750412243E+01 -0.60403541415E+03  0.60561312235E+03  0.26217121703E+01 0.  0.
         13    1    3    3    0    0  0.89013444769E+01 -0.97816906598E+00 -0.13891012050E+03  0.13919846380E+03  0.00000000000E+00 0.  1.
          3    1    3    3  501    0  0.34294696163E+02 -0.49968721584E+01 -0.46512529365E+03  0.46641465855E+03  0.00000000000E+00 0.  1.
         -3    1    1    2    0  502 -0.43196040640E+02  0.59750412243E+01 -0.39397272326E+03  0.39637874024E+03  0.00000000000E+00 0. -1.
<mgrwt>
<rscale>  1 0.30000000E+03</rscale>
<asrwt>0</asrwt>
<pdfrwt beam="1">  1       21 0.72431520E-02 0.30000000E+03</pdfrwt>
<pdfrwt beam="2">0</pdfrwt>
<totfact> 0.15203059E+04</totfact>
</mgrwt>
</event>
<event>
 6    1  0.1274196E-001  0.3000000E+03  0.7818608E-02  0.1093470E+00
         21   -1    0    0  501  502  0.00000000000E+00  0.00000000000E+00  0.21669373457E+01  0.21669373457E+01  0.00000000000E+00 0. -1.
         13   -1    0    0    0    0 -0.00000000000E+00 -0.00000000000E+00 -0.10000000000E+04  0.10000000000E+04  0.00000000000E+00 0.  1.
    9000005    2    1    2  501    0 -0.12415089279E+02 -0.30276163505E+02 -0.85505203747E+03  0.85568416815E+03  0.32601109978E+01 0.  0.
         13    1    3    3    0    0 -0.54615088160E+00 -0.39385208999E+01 -0.11361320225E+03  0.11368276014E+03  0.00000000000E+00 0.  1.
          1    1    3    3  501    0 -0.11868938397E+02 -0.26337642605E+02 -0.74143883522E+03  0.74200140801E+03  0.00000000000E+00 0.  1.
         -1    1    1    2    0  502  0.12415089279E+02  0.30276163505E+02 -0.14278102518E+03  0.14648276919E+03  0.00000000000E+00 0. -1.
<mgrwt>
<rscale>  1 0.30000000E+03</rscale>
<asrwt>0</asrwt>
<pdfrwt beam="1">  1       21 0.78797888E-02 0.30000000E+03</pdfrwt>
<pdfrwt beam="2">0</pdfrwt>
<totfact> 0.13117982E+04</totfact>
</mgrwt>
</event>
<event>
 6    1  0.1274196E-001  0.3000000E+03  0.7818608E-02  0.1093470E+00
         21   -1    0    0  501  502  0.00000000000E+00  0.00000000000E+00  0.13370711728E+01  0.13370711728E+01  0.00000000000E+00 0. -1.
         13   -1    0    0    0    0 -0.00000000000E+00 -0.00000000000E+00 -0.10000000000E+04  0.10000000000E+04  0.00000000000E+00 0.  1.
    9000005    2    1    2  501    0 -0.19154558081E+02  0.24359661036E+02 -0.23533122807E+03  0.23737661698E+03  0.25653860414E+01 0.  0.
         13    1    3    3    0    0 -0.35154132306E+00  0.21431706862E+00 -0.16784235545E+01  0.17281836523E+01  0.00000000000E+00 0.  1.
          1    1    3    3  501    0 -0.18803016758E+02  0.24145343967E+02 -0.23365280451E+03  0.23564843333E+03  0.00000000000E+00 0.  1.
         -1    1    1    2    0  502  0.19154558081E+02 -0.24359661036E+02 -0.76333170076E+03  0.76396045419E+03  0.00000000000E+00 0. -1.
<mgrwt>
<rscale>  1 0.30000000E+03</rscale>
<asrwt>0</asrwt>
<pdfrwt beam="1">  1       21 0.48620872E-02 0.30000000E+03</pdfrwt>
<pdfrwt beam="2">0</pdfrwt>
<totfact> 0.30210418E+04</totfact>
</mgrwt>
</event>
<event>
 6    1  0.1274196E-001  0.3000000E+03  0.7818608E-02  0.1093470E+00
         21   -1    0    0  501  502  0.00000000000E+00  0.00000000000E+00  0.18619160200E+01  0.18619160200E+01  0.00000000000E+00 0. -1.
         13   -1    0    0    0    0 -0.00000000000E+00 -0.00000000000E+00 -0.10000000000E+04  0.10000000000E+04  0.00000000000E+00 0.  1.
    9000005    2    1    2  501    0 -0.86766160335E+00 -0.39158403655E+02 -0.29120845910E+03  0.29384805461E+03  0.31904755405E+01 0.  0.
         13    1    3    3    0    0 -0.14235422335E+01 -0.10270619772E+02 -0.71501103372E+02  0.72249013047E+02  0.00000000000E+00 0.  1.
          1    1    3    3  501    0  0.55588063011E+00 -0.28887783883E+02 -0.21970735573E+03  0.22159904156E+03  0.00000000000E+00 0.  1.
         -3    1    1    2    0  502  0.86766160335E+00  0.39158403655E+02 -0.70692962488E+03  0.70801386141E+03  0.00000000000E+00 0. -1.
<mgrwt>
<rscale>  1 0.30000000E+03</rscale>
<asrwt>0</asrwt>
<pdfrwt beam="1">  1       21 0.67706180E-02 0.30000000E+03</pdfrwt>
<pdfrwt beam="2">0</pdfrwt>
<totfact> 0.17097256E+04</totfact>
</mgrwt>
</event>
<event>
 6    1  0.1274196E-001  0.3000000E+03  0.7818608E-02  0.1093470E+00
         21   -1    0    0  501  502  0.00000000000E+00  0.00000000000E+00  0.38556007633E+01  0.38556007633E+01  0.00000000000E+00 0. -1.
         13   -1    0    0    0    0 -0.00000000000E+00 -0.00000000000E+00 -0.10000000000E+04  0.10000000000E+04  0.00000000000E+00 0.  1.
    9000005    2    1    2  501    0  0.53920535857E+02  0.29767601528E+02 -0.55931976052E+03  0.56271016072E+03  0.32551763337E+01 0.  0.
         13    1    3    3    0    0  0.53493461837E+02  0.29136175377E+02 -0.55285809176E+03  0.55620368284E+03  0.00000000000E+00 0.  1.
          1    1    3    3  501    0  0.42707401976E+00  0.63142615053E+00 -0.64616687615E+01  0.65064778786E+01  0.00000000000E+00 0.  1.
         -3    1    1    2    0  502 -0.53920535857E+02 -0.29767601528E+02 -0.43682463871E+03  0.44114544005E+03  0.00000000000E+00 0. -1.
<mgrwt>
<rscale>  1 0.30000000E+03</rscale>
<asrwt>0</asrwt>
<pdfrwt beam="1">  1       21 0.14020396E-01 0.30000000E+03</pdfrwt>
<pdfrwt beam="2">0</pdfrwt>
<totfact> 0.46641836E+03</totfact>
</mgrwt>
</event>
<event>
 6    1  0.1274196E-001  0.3000000E+03  0.7818608E-02  0.1093470E+00
         21   -1    0    0  501  502  0.00000000000E+00  0.00000000000E+00  0.38972396490E+01  0.38972396490E+01  0.00000000000E+00 0. -1.
         13   -1    0    0    0    0 -0.00000000000E+00 -0.00000000000E+00 -0.10000000000E+04  0.10000000000E+04  0.00000000000E+00 0.  1.
    9000005    2    1    2  501    0 -0.31296158873E+02 -0.58851305718E+01 -0.92972760830E+03  0.93027832135E+03  0.32008142963E+01 0.  0.
         13    1    3    3    0    0 -0.16945377657E+02 -0.42846403058E+01 -0.47481956775E+03  0.47514116416E+03  0.00000000000E+00 0.  1.
          1    1    3    3  501    0 -0.14350781215E+02 -0.16004902660E+01 -0.45490804055E+03  0.45513715718E+03  0.00000000000E+00 0.  1.
         -3    1    1    2    0  502  0.31296158873E+02  0.58851305718E+01 -0.66375152050E+02  0.73618918300E+02  0.00000000000E+00 0. -1.
<mgrwt>
<rscale>  1 0.30000000E+03</rscale>
<asrwt>0</asrwt>
<pdfrwt beam="1">  1       21 0.14171810E-01 0.30000000E+03</pdfrwt>
<pdfrwt beam="2">0</pdfrwt>
<totfact> 0.45729743E+03</totfact>
</mgrwt>
</event>
<event>
 6    1  0.1274196E-001  0.3000000E+03  0.7818608E-02  0.1093470E+00
         21   -1    0    0  501  502  0.00000000000E+00  0.00000000000E+00  0.20837799649E+01  0.20837799649E+01  0.00000000000E+00 0. -1.
         13   -1    0    0    0    0 -0.00000000000E+00 -0.00000000000E+00 -0.10000000000E+04  0.10000000000E+04  0.00000000000E+00 0.  1.
    9000005    2    1    2  501    0 -0.33767910960E+02  0.22966926084E+02 -0.72190767884E+03  0.72307039979E+03  0.35149365378E+01 0.  0.
         13    1    3    3    0    0 -0.69116499497E+01  0.60924053888E+01 -0.17912733537E+03  0.17936412848E+03  0.00000000000E+00 0.  1.
          1    1    3    3  501    0 -0.26856261010E+02  0.16874520696E+02 -0.54278034347E+03  0.54370627131E+03  0.00000000000E+00 0.  1.
         -1    1    1    2    0  502  0.33767910960E+02 -0.22966926084E+02 -0.27600854119E+03  0.27901338017E+03  0.00000000000E+00 0. -1.
<mgrwt>
<rscale>  1 0.30000000E+03</rscale>
<asrwt>0</asrwt>
<pdfrwt beam="1">  1       21 0.75773977E-02 0.30000000E+03</pdfrwt>
<pdfrwt beam="2">0</pdfrwt>
<totfact> 0.14049570E+04</totfact>
</mgrwt>
</event>
<event>
 6    1  0.1274196E-001  0.3000000E+03  0.7818608E-02  0.1093470E+00
         21   -1    0    0  501  502  0.00000000000E+00  0.00000000000E+00  0.13293387323E+01  0.13293387323E+01  0.00000000000E+00 0. -1.
         13   -1    0    0    0    0 -0.00000000000E+00 -0.00000000000E+00 -0.10000000000E+04  0.10000000000E+04  0.00000000000E+00 0.  1.
    9000005    2    1    2  501    0 -0.44544048218E+01  0.33842278520E+02 -0.67380143751E+03  0.67467179009E+03  0.29164395827E+01 0.  0.
         13    1    3    3    0    0 -0.30833171355E-01  0.70917053745E+01 -0.12509962770E+03  0.12530047920E+03  0.00000000000E+00 0.  1.
          1    1    3    3  501    0 -0.44235716504E+01  0.26750573145E+02 -0.54870180980E+03  0.54937131089E+03  0.00000000000E+00 0.  1.
         -3    1    1    2    0  502  0.44544048218E+01 -0.33842278520E+02 -0.32486922376E+03  0.32665754864E+03  0.00000000000E+00 0. -1.
<mgrwt>
<rscale>  1 0.30000000E+03</rscale>
<asrwt>0</asrwt>
<pdfrwt beam="1">  1       21 0.48339692E-02 0.30000000E+03</pdfrwt>
<pdfrwt beam="2">0</pdfrwt>
<totfact> 0.30510170E+04</totfact>
</mgrwt>
</event>
<event>
 6    1  0.1274196E-001  0.3000000E+03  0.7818608E-02  0.1093470E+00
         21   -1    0    0  501  502  0.00000000000E+00  0.00000000000E+00  0.15580996531E+01  0.15580996531E+01  0.00000000000E+00 0. -1.
         13   -1    0    0    0    0 -0.00000000000E+00 -0.00000000000E+00 -0.10000000000E+04  0.10000000000E+04  0.00000000000E+00 0.  1.
    9000005    2    1    2  501    0  0.39015660870E+02  0.43555764177E+01 -0.45862074630E+03  0.46031132488E+03  0.35119855601E+01 0.  0.
         13    1    3    3    0    0  0.13620994773E+02  0.31440398974E+01 -0.15728943983E+03  0.15790941824E+03  0.00000000000E+00 0.  1.
          3    1    3    3  501    0  0.25394666097E+02  0.12115365203E+01 -0.30133130647E+03  0.30240190665E+03  0.00000000000E+00 0.  1.
         -1    1    1    2    0  502 -0.39015660870E+02 -0.43555764177E+01 -0.53982115405E+03  0.54124677477E+03  0.00000000000E+00 0. -1.
<mgrwt>
<rscale>  1 0.30000000E+03</rscale>
<asrwt>0</asrwt>
<pdfrwt beam="1">  1       21 0.56658289E-02 0.30000000E+03</pdfrwt>
<pdfrwt beam="2">0</pdfrwt>
<totfact> 0.23257431E+04</totfact>
</mgrwt>
</event>
<event>
 6    1  0.1274196E-001  0.3000000E+03  0.7818608E-02  0.1093470E+00
         21   -1    0    0  501  502  0.00000000000E+00  0.00000000000E+00  0.68529193703E+01  0.68529193703E+01  0.00000000000E+00 0. -1.
         13   -1    0    0    0    0 -0.00000000000E+00 -0.00000000000E+00 -0.10000000000E+04  0.10000000000E+04  0.00000000000E+00 0.  1.
    9000005    2    1    2  501    0  0.12372790670E+01  0.43694294172E+02 -0.92406094207E+03  0.92509952957E+03  0.31293368543E+01 0.  0.
         13    1    3    3    0    0  0.88499333195E-01  0.11868548339E+00 -0.86898266683E+01  0.86910877283E+01  0.00000000000E+00 0.  1.
          1    1    3    3  501    0  0.11487797338E+01  0.43575608689E+02 -0.91537111540E+03  0.91640844184E+03  0.00000000000E+00 0.  1.
         -1    1    1    2    0  502 -0.12372790670E+01 -0.43694294172E+02 -0.69086138558E+02  0.81753389799E+02  0.00000000000E+00 0. -1.
<mgrwt>
<rscale>  1 0.30000000E+03</rscale>
<asrwt>0</asrwt>
<pdfrwt beam="1">  1       21 0.24919759E-01 0.30000000E+03</pdfrwt>
<pdfrwt beam="2">0</pdfrwt>
<totfact> 0.15694396E+03</totfact>
</mgrwt>
</event>
<event>
 6    1  0.1274196E-001  0.3000000E+03  0.7818608E-02  0.1093470E+00
         21   -1    0    0  501  502  0.00000000000E+00  0.00000000000E+00  0.72838863305E+01  0.72838863305E+01  0.00000000000E+00 0. -1.
         13   -1    0    0    0    0 -0.00000000000E+00 -0.00000000000E+00 -0.10000000000E+04  0.10000000000E+04  0.00000000000E+00 0.  1.
    9000005    2    1    2  501    0  0.78827419388E+02  0.12704007495E+02 -0.67392186934E+03  0.67864286017E+03  0.32080898230E+01 0.  0.
         13    1    3    3    0    0  0.20932284738E+01  0.45705004931E+00 -0.14255774082E+02  0.14415879955E+02  0.00000000000E+00 0.  1.
          1    1    3    3  501    0  0.76734190915E+02  0.12246957445E+02 -0.65966609526E+03  0.66422698022E+03  0.00000000000E+00 0.  1.
         -1    1    1    2    0  502 -0.78827419388E+02 -0.12704007495E+02 -0.31879424433E+03  0.32864102616E+03  0.00000000000E+00 0. -1.
<mgrwt>
<rscale>  1 0.30000000E+03</rscale>
<asrwt>0</asrwt>
<pdfrwt beam="1">  1       21 0.26486915E-01 0.30000000E+03</pdfrwt>
<pdfrwt beam="2">0</pdfrwt>
<totfact> 0.13921970E+03</totfact>
</mgrwt>
</event>
<event>
 6    1  0.1274196E-001  0.3000000E+03  0.7818608E-02  0.1093470E+00
         21   -1    0    0  501  502  0.00000000000E+00  0.00000000000E+00  0.14125895401E+01  0.14125895401E+01  0.00000000000E+00 0. -1.
         13   -1    0    0    0    0 -0.00000000000E+00 -0.00000000000E+00 -0.10000000000E+04  0.10000000000E+04  0.00000000000E+00 0.  1.
    9000005    2    1    2  501    0  0.32661065584E+02 -0.40075606081E+01 -0.74054809930E+03  0.74128359875E+03  0.26609486380E+01 0.  0.
         13    1    3    3    0    0  0.20131182063E+02 -0.20501601398E+01 -0.48227962334E+03  0.48270394937E+03  0.00000000000E+00 0.  1.
          1    1    3    3  501    0  0.12529883521E+02 -0.19574004683E+01 -0.25826847596E+03  0.25857964938E+03  0.00000000000E+00 0.  1.
         -3    1    1    2    0  502 -0.32661065584E+02  0.40075606081E+01 -0.25803931116E+03  0.26012899079E+03  0.00000000000E+00 0. -1.
<mgrwt>
<rscale>  1 0.30000000E+03</rscale>
<asrwt>0</asrwt>
<pdfrwt beam="1">  1       21 0.51367001E-02 0.30000000E+03</pdfrwt>
<pdfrwt beam="2">0</pdfrwt>
<totfact> 0.27509288E+04</totfact>
</mgrwt>
</event>
<event>
 6    1  0.1274196E-001  0.3000000E+03  0.7818608E-02  0.1093470E+00
         21   -1    0    0  501  502  0.00000000000E+00  0.00000000000E+00  0.36342533988E+01  0.36342533988E+01  0.00000000000E+00 0. -1.
         13   -1    0    0    0    0 -0.00000000000E+00 -0.00000000000E+00 -0.10000000000E+04  0.10000000000E+04  0.00000000000E+00 0.  1.
    9000005    2    1    2  501    0  0.53483614446E+02 -0.81398509334E+01 -0.27839221700E+03  0.28362540387E+03  0.37932899392E+01 0.  0.
         13    1    3    3    0    0  0.31527059601E+02 -0.55175000555E+01 -0.15552094755E+03  0.15878023624E+03  0.00000000000E+00 0.  1.
          1    1    3    3  501    0  0.21956554845E+02 -0.26223508779E+01 -0.12287126945E+03  0.12484516763E+03  0.00000000000E+00 0.  1.
         -3    1    1    2    0  502 -0.53483614446E+02  0.81398509334E+01 -0.71797352960E+03  0.72000884953E+03  0.00000000000E+00 0. -1.
<mgrwt>
<rscale>  1 0.30000000E+03</rscale>
<asrwt>0</asrwt>
<pdfrwt beam="1">  1       21 0.13215495E-01 0.30000000E+03</pdfrwt>
<pdfrwt beam="2">0</pdfrwt>
<totfact> 0.51980018E+03</totfact>
</mgrwt>
</event>
<event>
 6    1  0.1274196E-001  0.3000000E+03  0.7818608E-02  0.1093470E+00
         21   -1    0    0  501  502  0.00000000000E+00  0.00000000000E+00  0.51683961616E+01  0.51683961616E+01  0.00000000000E+00 0. -1.
         13   -1    0    0    0    0 -0.00000000000E+00 -0.00000000000E+00 -0.10000000000E+04  0.10000000000E+04  0.00000000000E+00 0.  1.
    9000005    2    1    2  501    0  0.53190583512E+02  0.29633790489E+01 -0.83477589595E+03  0.83647977942E+03  0.30992149817E+01 0.  0.
         13    1    3    3    0    0  0.45481239798E+01 -0.61253584317E+00 -0.71100675330E+02  0.71248625701E+02  0.00000000000E+00 0.  1.
          3    1    3    3  501    0  0.48642459532E+02  0.35759148920E+01 -0.76367522062E+03  0.76523115372E+03  0.00000000000E+00 0.  1.
         -1    1    1    2    0  502 -0.53190583512E+02 -0.29633790489E+01 -0.16005570789E+03  0.16868861674E+03  0.00000000000E+00 0. -1.
<mgrwt>
<rscale>  1 0.30000000E+03</rscale>
<asrwt>0</asrwt>
<pdfrwt beam="1">  1       21 0.18794207E-01 0.30000000E+03</pdfrwt>
<pdfrwt beam="2">0</pdfrwt>
<totfact> 0.27002161E+03</totfact>
</mgrwt>
</event>
<event>
 6    1  0.1274196E-001  0.3000000E+03  0.7818608E-02  0.1093470E+00
         21   -1    0    0  501  502  0.00000000000E+00  0.00000000000E+00  0.12866881641E+02  0.12866881641E+02  0.00000000000E+00 0. -1.
         13   -1    0    0    0    0 -0.00000000000E+00 -0.00000000000E+00 -0.10000000000E+04  0.10000000000E+04  0.00000000000E+00 0.  1.
    9000005    2    1    2  501    0  0.41726560082E+02 -0.25889764651E+02 -0.95007074938E+03  0.95134448796E+03  0.32434882070E+01 0.  0.
         13    1    3    3    0    0  0.29772916457E+02 -0.18685198210E+02 -0.70725115317E+03  0.70812411119E+03  0.00000000000E+00 0.  1.
          1    1    3    3  501    0  0.11953643626E+02 -0.72045664404E+01 -0.24281959621E+03  0.24322037677E+03  0.00000000000E+00 0.  1.
         -1    1    1    2    0  502 -0.41726560082E+02  0.25889764651E+02 -0.37062368980E+02  0.61522393682E+02  0.00000000000E+00 0. -1.
<mgrwt>
<rscale>  1 0.30000000E+03</rscale>
<asrwt>0</asrwt>
<pdfrwt beam="1">  1       21 0.46788759E-01 0.30000000E+03</pdfrwt>
<pdfrwt beam="2">0</pdfrwt>
<totfact> 0.43347906E+02</totfact>
</mgrwt>
</event>
<event>
 6    1  0.1274196E-001  0.3000000E+03  0.7818608E-02  0.1093470E+00
         21   -1    0    0  501  502  0.00000000000E+00  0.00000000000E+00  0.82990043509E+01  0.82990043509E+01  0.00000000000E+00 0. -1.
         13   -1    0    0    0    0 -0.00000000000E+00 -0.00000000000E+00 -0.10000000000E+04  0.10000000000E+04  0.00000000000E+00 0.  1.
    9000005    2    1    2  501    0  0.52920621351E+02 -0.37366716691E+02 -0.85021386590E+03  0.85268579294E+03  0.35468346616E+01 0.  0.
         13    1    3    3    0    0  0.34799623806E+02 -0.22624105651E+02 -0.53602137324E+03  0.53762605642E+03  0.00000000000E+00 0.  1.
          1    1    3    3  501    0  0.18120997545E+02 -0.14742611040E+02 -0.31419249266E+03  0.31505973652E+03  0.00000000000E+00 0.  1.
         -1    1    1    2    0  502 -0.52920621351E+02  0.37366716691E+02 -0.14148712975E+03  0.15561321141E+03  0.00000000000E+00 0. -1.
<mgrwt>
<rscale>  1 0.30000000E+03</rscale>
<asrwt>0</asrwt>
<pdfrwt beam="1">  1       21 0.30178261E-01 0.30000000E+03</pdfrwt>
<pdfrwt beam="2">0</pdfrwt>
<totfact> 0.10744640E+03</totfact>
</mgrwt>
</event>
<event>
 6    1  0.1274196E-001  0.3000000E+03  0.7818608E-02  0.1093470E+00
         21   -1    0    0  501  502  0.00000000000E+00  0.00000000000E+00  0.10581942546E+02  0.10581942546E+02  0.00000000000E+00 0. -1.
         13   -1    0    0    0    0 -0.00000000000E+00 -0.00000000000E+00 -0.10000000000E+04  0.10000000000E+04  0.00000000000E+00 0.  1.
    9000005    2    1    2  501    0  0.39310928208E+02  0.11990726533E+02 -0.95790811793E+03  0.95879388516E+03  0.29368717100E+01 0.  0.
         13    1    3    3    0    0  0.39129803559E+02  0.12064672672E+02 -0.95579804865E+03  0.95667476587E+03  0.00000000000E+00 0.  1.
          3    1    3    3  501    0  0.18112464852E+00 -0.73946138544E-01 -0.21100692853E+01  0.21191192884E+01  0.00000000000E+00 0.  1.
         -3    1    1    2    0  502 -0.39310928208E+02 -0.11990726533E+02 -0.31509939522E+02  0.51788057388E+02  0.00000000000E+00 0. -1.
<mgrwt>
<rscale>  1 0.30000000E+03</rscale>
<asrwt>0</asrwt>
<pdfrwt beam="1">  1       21 0.38479872E-01 0.30000000E+03</pdfrwt>
<pdfrwt beam="2">0</pdfrwt>
<totfact> 0.65472149E+02</totfact>
</mgrwt>
</event>
<event>
 6    1  0.1274196E-001  0.3000000E+03  0.7818608E-02  0.1093470E+00
         21   -1    0    0  501  502  0.00000000000E+00  0.00000000000E+00  0.18642714242E+01  0.18642714242E+01  0.00000000000E+00 0. -1.
         13   -1    0    0    0    0 -0.00000000000E+00 -0.00000000000E+00 -0.10000000000E+04  0.10000000000E+04  0.00000000000E+00 0.  1.
    9000005    2    1    2  501    0  0.30543628286E+02  0.26514742605E+02 -0.67294474552E+03  0.67416758199E+03  0.33694630226E+01 0.  0.
         13    1    3    3    0    0  0.88352189665E+01  0.90485754174E+01 -0.19124263486E+03  0.19166033288E+03  0.00000000000E+00 0.  1.
          1    1    3    3  501    0  0.21708409319E+02  0.17466167188E+02 -0.48170211066E+03  0.48250724911E+03  0.00000000000E+00 0.  1.
         -3    1    1    2    0  502 -0.30543628286E+02 -0.26514742605E+02 -0.32519098305E+03  0.32769668943E+03  0.00000000000E+00 0. -1.
<mgrwt>
<rscale>  1 0.30000000E+03</rscale>
<asrwt>0</asrwt>
<pdfrwt beam="1">  1       21 0.67791831E-02 0.30000000E+03</pdfrwt>
<pdfrwt beam="2">0</pdfrwt>
<totfact> 0.17059772E+04</totfact>
</mgrwt>
</event>
<event>
 6    1  0.1274196E-001  0.3000000E+03  0.7818608E-02  0.1093470E+00
         21   -1    0    0  501  502  0.00000000000E+00  0.00000000000E+00  0.97096397131E+00  0.97096397131E+00  0.00000000000E+00 0. -1.
         13   -1    0    0    0    0 -0.00000000000E+00 -0.00000000000E+00 -0.10000000000E+04  0.10000000000E+04  0.00000000000E+00 0.  1.
    9000005    2    1    2  501    0  0.30315708296E+02 -0.64130420516E+01 -0.45996829735E+03  0.46102036506E+03  0.29619515347E+01 0.  0.
         13    1    3    3    0    0  0.24092520795E+02 -0.54907358949E+01 -0.38224816802E+03  0.38304602816E+03  0.00000000000E+00 0.  1.
          1    1    3    3  501    0  0.62231875006E+01 -0.92230615670E+00 -0.77720129335E+02  0.77974336901E+02  0.00000000000E+00 0.  1.
         -3    1    1    2    0  502 -0.30315708296E+02  0.64130420516E+01 -0.53906073868E+03  0.53995059891E+03  0.00000000000E+00 0. -1.
<mgrwt>
<rscale>  1 0.30000000E+03</rscale>
<asrwt>0</asrwt>
<pdfrwt beam="1">  1       21 0.35307855E-02 0.30000000E+03</pdfrwt>
<pdfrwt beam="2">0</pdfrwt>
<totfact> 0.51850619E+04</totfact>
</mgrwt>
</event>
<event>
 6    1  0.1274196E-001  0.3000000E+03  0.7818608E-02  0.1093470E+00
         21   -1    0    0  501  502  0.00000000000E+00  0.00000000000E+00  0.11694079402E+01  0.11694079402E+01  0.00000000000E+00 0. -1.
         13   -1    0    0    0    0 -0.00000000000E+00 -0.00000000000E+00 -0.10000000000E+04  0.10000000000E+04  0.00000000000E+00 0.  1.
    9000005    2    1    2  501    0 -0.14921974533E+02 -0.26887578847E+02 -0.71679935650E+03  0.71746670254E+03  0.33977277754E+01 0.  0.
         13    1    3    3    0    0 -0.71663353789E+01 -0.15538449948E+02 -0.42298813288E+03  0.42333410014E+03  0.00000000000E+00 0.  1.
          3    1    3    3  501    0 -0.77556391546E+01 -0.11349128899E+02 -0.29381122362E+03  0.29413260239E+03  0.00000000000E+00 0.  1.
         -3    1    1    2    0  502  0.14921974533E+02  0.26887578847E+02 -0.28203123556E+03  0.28370270540E+03  0.00000000000E+00 0. -1.
<mgrwt>
<rscale>  1 0.30000000E+03</rscale>
<asrwt>0</asrwt>
<pdfrwt beam="1">  1       21 0.42524015E-02 0.30000000E+03</pdfrwt>
<pdfrwt beam="2">0</pdfrwt>
<totfact> 0.37923724E+04</totfact>
</mgrwt>
</event>
<event>
 6    1  0.1274196E-001  0.3000000E+03  0.7818608E-02  0.1093470E+00
         21   -1    0    0  501  502  0.00000000000E+00  0.00000000000E+00  0.12368565218E+01  0.12368565218E+01  0.00000000000E+00 0. -1.
         13   -1    0    0    0    0 -0.00000000000E+00 -0.00000000000E+00 -0.10000000000E+04  0.10000000000E+04  0.00000000000E+00 0.  1.
    9000005    2    1    2  501    0  0.30724211939E+02  0.89841692915E+00 -0.74137356018E+03  0.74201845065E+03  0.34410781775E+01 0.  0.
         13    1    3    3    0    0  0.75951977052E+01  0.87156156849E+00 -0.21818701394E+03  0.21832090990E+03  0.00000000000E+00 0.  1.
          3    1    3    3  501    0  0.23129014234E+02  0.26855360664E-01 -0.52318654624E+03  0.52369754075E+03  0.00000000000E+00 0.  1.
         -1    1    1    2    0  502 -0.30724211939E+02 -0.89841692915E+00 -0.25738958330E+03  0.25921840588E+03  0.00000000000E+00 0. -1.
<mgrwt>
<rscale>  1 0.30000000E+03</rscale>
<asrwt>0</asrwt>
<pdfrwt beam="1">  1       21 0.44976696E-02 0.30000000E+03</pdfrwt>
<pdfrwt beam="2">0</pdfrwt>
<totfact> 0.34488491E+04</totfact>
</mgrwt>
</event>
<event>
 6    1  0.1274196E-001  0.3000000E+03  0.7818608E-02  0.1093470E+00
         21   -1    0    0  501  502  0.00000000000E+00  0.00000000000E+00  0.14974806152E+01  0.14974806152E+01  0.00000000000E+00 0. -1.
         13   -1    0    0    0    0 -0.00000000000E+00 -0.00000000000E+00 -0.10000000000E+04  0.10000000000E+04  0.00000000000E+00 0.  1.
    9000005    2    1    2  501    0 -0.36212576418E+02 -0.11397745643E+02 -0.59150557415E+03  0.59273376803E+03  0.36354112734E+01 0.  0.
         13    1    3    3    0    0 -0.24446319950E+02 -0.93976639366E+01 -0.41319585901E+03  0.41402506753E+03  0.00000000000E+00 0.  1.
          3    1    3    3  501    0 -0.11766256467E+02 -0.20000817068E+01 -0.17830971514E+03  0.17870870049E+03  0.00000000000E+00 0.  1.
         -1    1    1    2    0  502  0.36212576418E+02  0.11397745643E+02 -0.40699694524E+03  0.40876371259E+03  0.00000000000E+00 0. -1.
<mgrwt>
<rscale>  1 0.30000000E+03</rscale>
<asrwt>0</asrwt>
<pdfrwt beam="1">  1       21 0.54453955E-02 0.30000000E+03</pdfrwt>
<pdfrwt beam="2">0</pdfrwt>
<totfact> 0.24896313E+04</totfact>
</mgrwt>
</event>
<event>
 6    1  0.1274196E-001  0.3000000E+03  0.7818608E-02  0.1093470E+00
         21   -1    0    0  501  502  0.00000000000E+00  0.00000000000E+00  0.23429902953E+01  0.23429902953E+01  0.00000000000E+00 0. -1.
         13   -1    0    0    0    0 -0.00000000000E+00 -0.00000000000E+00 -0.10000000000E+04  0.10000000000E+04  0.00000000000E+00 0.  1.
    9000005    2    1    2  501    0 -0.22544460293E+02 -0.24037984854E+02 -0.86555257855E+03  0.86618992152E+03  0.41995840083E+01 0.  0.
         13    1    3    3    0    0 -0.17563193852E+01 -0.35257934140E+01 -0.85076776395E+02  0.85167915078E+02  0.00000000000E+00 0.  1.
          1    1    3    3  501    0 -0.20788140907E+02 -0.20512191440E+02 -0.78047580215E+03  0.78102200644E+03  0.00000000000E+00 0.  1.
         -3    1    1    2    0  502  0.22544460293E+02  0.24037984854E+02 -0.13210443115E+03  0.13615306877E+03  0.00000000000E+00 0. -1.
<mgrwt>
<rscale>  1 0.30000000E+03</rscale>
<asrwt>0</asrwt>
<pdfrwt beam="1">  1       21 0.85199827E-02 0.30000000E+03</pdfrwt>
<pdfrwt beam="2">0</pdfrwt>
<totfact> 0.11433816E+04</totfact>
</mgrwt>
</event>
<event>
 6    1  0.1274196E-001  0.3000000E+03  0.7818608E-02  0.1093470E+00
         21   -1    0    0  501  502  0.00000000000E+00  0.00000000000E+00  0.13237059261E+01  0.13237059261E+01  0.00000000000E+00 0. -1.
         13   -1    0    0    0    0 -0.00000000000E+00 -0.00000000000E+00 -0.10000000000E+04  0.10000000000E+04  0.00000000000E+00 0.  1.
    9000005    2    1    2  501    0 -0.82036015264E+01 -0.30724689579E+02 -0.74095033786E+03  0.74164318272E+03  0.39876895660E+01 0.  0.
         13    1    3    3    0    0 -0.21119755831E+01 -0.46283355245E+01 -0.93185467099E+02  0.93324236986E+02  0.00000000000E+00 0.  1.
          1    1    3    3  501    0 -0.60916259432E+01 -0.26096354055E+02 -0.64776487076E+03  0.64831894573E+03  0.00000000000E+00 0.  1.
         -1    1    1    2    0  502  0.82036015264E+01  0.30724689579E+02 -0.25772595621E+03  0.25968052321E+03  0.00000000000E+00 0. -1.
<mgrwt>
<rscale>  1 0.30000000E+03</rscale>
<asrwt>0</asrwt>
<pdfrwt beam="1">  1       21 0.48134862E-02 0.30000000E+03</pdfrwt>
<pdfrwt beam="2">0</pdfrwt>
<totfact> 0.30731465E+04</totfact>
</mgrwt>
</event>
<event>
 6    1  0.1274196E-001  0.3000000E+03  0.7818608E-02  0.1093470E+00
         21   -1    0    0  501  502  0.00000000000E+00  0.00000000000E+00  0.16829476353E+01  0.16829476353E+01  0.00000000000E+00 0. -1.
         13   -1    0    0    0    0 -0.00000000000E+00 -0.00000000000E+00 -0.10000000000E+04  0.10000000000E+04  0.00000000000E+00 0.  1.
    9000005    2    1    2  501    0 -0.26284490395E+02 -0.24662569585E+02 -0.73748619499E+03  0.73837352332E+03  0.32334759927E+01 0.  0.
         13    1    3    3    0    0 -0.19519776566E+02 -0.19626272852E+02 -0.58442815412E+03  0.58508330996E+03  0.00000000000E+00 0.  1.
          3    1    3    3  501    0 -0.67647138285E+01 -0.50362967331E+01 -0.15305804087E+03  0.15329021336E+03  0.00000000000E+00 0.  1.
         -3    1    1    2    0  502  0.26284490395E+02  0.24662569585E+02 -0.26083085738E+03  0.26330942432E+03  0.00000000000E+00 0. -1.
<mgrwt>
<rscale>  1 0.30000000E+03</rscale>
<asrwt>0</asrwt>
<pdfrwt beam="1">  1       21 0.61198225E-02 0.30000000E+03</pdfrwt>
<pdfrwt beam="2">0</pdfrwt>
<totfact> 0.20364904E+04</totfact>
</mgrwt>
</event>
<event>
 6    1  0.1274196E-001  0.3000000E+03  0.7818608E-02  0.1093470E+00
         21   -1    0    0  501  502  0.00000000000E+00  0.00000000000E+00  0.12914788893E+01  0.12914788893E+01  0.00000000000E+00 0. -1.
         13   -1    0    0    0    0 -0.00000000000E+00 -0.00000000000E+00 -0.10000000000E+04  0.10000000000E+04  0.00000000000E+00 0.  1.
    9000005    2    1    2  501    0  0.31699347702E+02 -0.73548381728E+01 -0.29029792160E+03  0.29213386609E+03  0.32202706859E+01 0.  0.
         13    1    3    3    0    0  0.85321885639E+01 -0.33640786586E+01 -0.76898857208E+02  0.77443847444E+02  0.00000000000E+00 0.  1.
          3    1    3    3  501    0  0.23167159138E+02 -0.39907595142E+01 -0.21339906439E+03  0.21469001865E+03  0.00000000000E+00 0.  1.
         -3    1    1    2    0  502 -0.31699347702E+02  0.73548381728E+01 -0.70841059951E+03  0.70915761280E+03  0.00000000000E+00 0. -1.
<mgrwt>
<rscale>  1 0.30000000E+03</rscale>
<asrwt>0</asrwt>
<pdfrwt beam="1">  1       21 0.46962968E-02 0.30000000E+03</pdfrwt>
<pdfrwt beam="2">0</pdfrwt>
<totfact> 0.32047252E+04</totfact>
</mgrwt>
</event>
<event>
 6    1  0.1274196E-001  0.3000000E+03  0.7818608E-02  0.1093470E+00
         21   -1    0    0  501  502  0.00000000000E+00  0.00000000000E+00  0.12374394852E+01  0.12374394852E+01  0.00000000000E+00 0. -1.
         13   -1    0    0    0    0 -0.00000000000E+00 -0.00000000000E+00 -0.10000000000E+04  0.10000000000E+04  0.00000000000E+00 0.  1.
    9000005    2    1    2  501    0  0.19084823486E+02 -0.27563502586E+02 -0.64854028315E+03  0.64941415895E+03  0.32052795812E+01 0.  0.
         13    1    3    3    0    0  0.17189204125E+02 -0.23934959581E+02 -0.54995039693E+03  0.55073931230E+03  0.00000000000E+00 0.  1.
          3    1    3    3  501    0  0.18956193614E+01 -0.36285430046E+01 -0.98589886222E+02  0.98674846655E+02  0.00000000000E+00 0.  1.
         -1    1    1    2    0  502 -0.19084823486E+02  0.27563502586E+02 -0.35022227736E+03  0.35182328053E+03  0.00000000000E+00 0. -1.
<mgrwt>
<rscale>  1 0.30000000E+03</rscale>
<asrwt>0</asrwt>
<pdfrwt beam="1">  1       21 0.44997894E-02 0.30000000E+03</pdfrwt>
<pdfrwt beam="2">0</pdfrwt>
<totfact> 0.34460925E+04</totfact>
</mgrwt>
</event>
<event>
 6    1  0.1274196E-001  0.3000000E+03  0.7818608E-02  0.1093470E+00
         21   -1    0    0  501  502  0.00000000000E+00  0.00000000000E+00  0.12917899073E+01  0.12917899073E+01  0.00000000000E+00 0. -1.
         13   -1    0    0    0    0 -0.00000000000E+00 -0.00000000000E+00 -0.10000000000E+04  0.10000000000E+04  0.00000000000E+00 0.  1.
    9000005    2    1    2  501    0 -0.25887441474E+02  0.18624658729E+02 -0.72895793188E+03  0.72966290680E+03  0.33546355512E+01 0.  0.
         13    1    3    3    0    0 -0.24533479282E+02  0.16759828042E+02 -0.68615573789E+03  0.68679871875E+03  0.00000000000E+00 0.  1.
          1    1    3    3  501    0 -0.13539621913E+01  0.18648306872E+01 -0.42802193990E+02  0.42864188053E+02  0.00000000000E+00 0.  1.
         -3    1    1    2    0  502  0.25887441474E+02 -0.18624658729E+02 -0.26975027821E+03  0.27162888310E+03  0.00000000000E+00 0. -1.
<mgrwt>
<rscale>  1 0.30000000E+03</rscale>
<asrwt>0</asrwt>
<pdfrwt beam="1">  1       21 0.46974278E-02 0.30000000E+03</pdfrwt>
<pdfrwt beam="2">0</pdfrwt>
<totfact> 0.32034135E+04</totfact>
</mgrwt>
</event>
<event>
 6    1  0.1274196E-001  0.3000000E+03  0.7818608E-02  0.1093470E+00
         21   -1    0    0  501  502  0.00000000000E+00  0.00000000000E+00  0.10656906079E+01  0.10656906079E+01  0.00000000000E+00 0. -1.
         13   -1    0    0    0    0 -0.00000000000E+00 -0.00000000000E+00 -0.10000000000E+04  0.10000000000E+04  0.00000000000E+00 0.  1.
    9000005    2    1    2  501    0  0.31844816501E+02 -0.18008992804E+01 -0.60102808645E+03  0.60188315362E+03  0.33517666075E+01 0.  0.
         13    1    3    3    0    0  0.56643858130E+01  0.40120773452E+00 -0.12819020776E+03  0.12831592107E+03  0.00000000000E+00 0.  1.
          3    1    3    3  501    0  0.26180430688E+02 -0.22021070149E+01 -0.47283787868E+03  0.47356723255E+03  0.00000000000E+00 0.  1.
         -1    1    1    2    0  502 -0.31844816501E+02  0.18008992804E+01 -0.39790622294E+03  0.39918253698E+03  0.00000000000E+00 0. -1.
<mgrwt>
<rscale>  1 0.30000000E+03</rscale>
<asrwt>0</asrwt>
<pdfrwt beam="1">  1       21 0.38752467E-02 0.30000000E+03</pdfrwt>
<pdfrwt beam="2">0</pdfrwt>
<totfact> 0.44350040E+04</totfact>
</mgrwt>
</event>
<event>
 6    1  0.1274196E-001  0.3000000E+03  0.7818608E-02  0.1093470E+00
         21   -1    0    0  501  502  0.00000000000E+00  0.00000000000E+00  0.81991626487E+01  0.81991626487E+01  0.00000000000E+00 0. -1.
         13   -1    0    0    0    0 -0.00000000000E+00 -0.00000000000E+00 -0.10000000000E+04  0.10000000000E+04  0.00000000000E+00 0.  1.
    9000005    2    1    2  501    0  0.60428874706E+01 -0.46269566866E+02 -0.92787779835E+03  0.92905660632E+03  0.34029062970E+01 0.  0.
         13    1    3    3    0    0  0.29469761425E+01 -0.33849610881E+02 -0.68191858919E+03  0.68276455906E+03  0.00000000000E+00 0.  1.
          3    1    3    3  501    0  0.30959113281E+01 -0.12419955984E+02 -0.24595920916E+03  0.24629204726E+03  0.00000000000E+00 0.  1.
         -1    1    1    2    0  502 -0.60428874706E+01  0.46269566866E+02 -0.63923039002E+02  0.79142556329E+02  0.00000000000E+00 0. -1.
<mgrwt>
<rscale>  1 0.30000000E+03</rscale>
<asrwt>0</asrwt>
<pdfrwt beam="1">  1       21 0.29815200E-01 0.30000000E+03</pdfrwt>
<pdfrwt beam="2">0</pdfrwt>
<totfact> 0.11007966E+03</totfact>
</mgrwt>
</event>
<event>
 6    1  0.1274196E-001  0.3000000E+03  0.7818608E-02  0.1093470E+00
         21   -1    0    0  501  502  0.00000000000E+00  0.00000000000E+00  0.32794523571E+01  0.32794523571E+01  0.00000000000E+00 0. -1.
         13   -1    0    0    0    0 -0.00000000000E+00 -0.00000000000E+00 -0.10000000000E+04  0.10000000000E+04  0.00000000000E+00 0.  1.
    9000005    2    1    2  501    0 -0.19544542140E+02  0.30195640601E+02 -0.88857298574E+03  0.88930725845E+03  0.34180556116E+01 0.  0.
         13    1    3    3    0    0 -0.16239006032E+02  0.22472155476E+02 -0.67602864838E+03  0.67659695278E+03  0.00000000000E+00 0.  1.
          3    1    3    3  501    0 -0.33055361075E+01  0.77234851245E+01 -0.21254433736E+03  0.21271030566E+03  0.00000000000E+00 0.  1.
         -3    1    1    2    0  502  0.19544542140E+02 -0.30195640601E+02 -0.10814756190E+03  0.11397219391E+03  0.00000000000E+00 0. -1.
<mgrwt>
<rscale>  1 0.30000000E+03</rscale>
<asrwt>0</asrwt>
<pdfrwt beam="1">  1       21 0.11925306E-01 0.30000000E+03</pdfrwt>
<pdfrwt beam="2">0</pdfrwt>
<totfact> 0.62677208E+03</totfact>
</mgrwt>
</event>
<event>
 6    1  0.1274196E-001  0.3000000E+03  0.7818608E-02  0.1093470E+00
         21   -1    0    0  501  502  0.00000000000E+00  0.00000000000E+00  0.20397480029E+01  0.20397480029E+01  0.00000000000E+00 0. -1.
         13   -1    0    0    0    0 -0.00000000000E+00 -0.00000000000E+00 -0.10000000000E+04  0.10000000000E+04  0.00000000000E+00 0.  1.
    9000005    2    1    2  501    0 -0.32957399625E+02 -0.30392243249E+02 -0.45317117177E+03  0.45540914094E+03  0.48472767184E+01 0.  0.
         13    1    3    3    0    0 -0.29568821989E+02 -0.24994769375E+02 -0.39071948322E+03  0.39263312175E+03  0.00000000000E+00 0.  1.
          1    1    3    3  501    0 -0.33885776360E+01 -0.53974738744E+01 -0.62451688550E+02  0.62776019190E+02  0.00000000000E+00 0.  1.
         -1    1    1    2    0  502  0.32957399625E+02  0.30392243249E+02 -0.54478908023E+03  0.54663060706E+03  0.00000000000E+00 0. -1.
<mgrwt>
<rscale>  1 0.30000000E+03</rscale>
<asrwt>0</asrwt>
<pdfrwt beam="1">  1       21 0.74172811E-02 0.30000000E+03</pdfrwt>
<pdfrwt beam="2">0</pdfrwt>
<totfact> 0.14584854E+04</totfact>
</mgrwt>
</event>
<event>
 6    1  0.1274196E-001  0.3000000E+03  0.7818608E-02  0.1093470E+00
         21   -1    0    0  501  502  0.00000000000E+00  0.00000000000E+00  0.64573612306E+01  0.64573612306E+01  0.00000000000E+00 0. -1.
         13   -1    0    0    0    0 -0.00000000000E+00 -0.00000000000E+00 -0.10000000000E+04  0.10000000000E+04  0.00000000000E+00 0.  1.
    9000005    2    1    2  501    0 -0.18951116488E+02 -0.66938744984E+02 -0.74818217387E+03  0.75142462190E+03  0.47388501210E+01 0.  0.
         13    1    3    3    0    0 -0.13192239208E+02 -0.49057757850E+02 -0.56698922169E+03  0.56926046437E+03  0.00000000000E+00 0.  1.
          1    1    3    3  501    0 -0.57588772806E+01 -0.17880987133E+02 -0.18119295218E+03  0.18216415753E+03  0.00000000000E+00 0.  1.
         -3    1    1    2    0  502  0.18951116488E+02  0.66938744984E+02 -0.24536046490E+03  0.25503273933E+03  0.00000000000E+00 0. -1.
<mgrwt>
<rscale>  1 0.30000000E+03</rscale>
<asrwt>0</asrwt>
<pdfrwt beam="1">  1       21 0.23481363E-01 0.30000000E+03</pdfrwt>
<pdfrwt beam="2">0</pdfrwt>
<totfact> 0.17621289E+03</totfact>
</mgrwt>
</event>
<event>
 6    1  0.1274196E-001  0.3000000E+03  0.7818608E-02  0.1093470E+00
         21   -1    0    0  501  502  0.00000000000E+00  0.00000000000E+00  0.22131025335E+01  0.22131025335E+01  0.00000000000E+00 0. -1.
         13   -1    0    0    0    0 -0.00000000000E+00 -0.00000000000E+00 -0.10000000000E+04  0.10000000000E+04  0.00000000000E+00 0.  1.
    9000005    2    1    2  501    0 -0.23919589692E+02  0.31913861375E+02 -0.76407756107E+03  0.76512515421E+03  0.33676346636E+01 0.  0.
         13    1    3    3    0    0 -0.81667500634E+00  0.45877913708E+00 -0.25450159057E+02  0.25467391551E+02  0.00000000000E+00 0.  1.
          3    1    3    3  501    0 -0.23102914686E+02  0.31455082238E+02 -0.73862740201E+03  0.73965776266E+03  0.00000000000E+00 0.  1.
         -1    1    1    2    0  502  0.23919589692E+02 -0.31913861375E+02 -0.23370933640E+03  0.23708794832E+03  0.00000000000E+00 0. -1.
<mgrwt>
<rscale>  1 0.30000000E+03</rscale>
<asrwt>0</asrwt>
<pdfrwt beam="1">  1       21 0.80476625E-02 0.30000000E+03</pdfrwt>
<pdfrwt beam="2">0</pdfrwt>
<totfact> 0.12641261E+04</totfact>
</mgrwt>
</event>
<event>
 6    1  0.1274196E-001  0.3000000E+03  0.7818608E-02  0.1093470E+00
         21   -1    0    0  501  502  0.00000000000E+00  0.00000000000E+00  0.25147293898E+01  0.25147293898E+01  0.00000000000E+00 0. -1.
         13   -1    0    0    0    0 -0.00000000000E+00 -0.00000000000E+00 -0.10000000000E+04  0.10000000000E+04  0.00000000000E+00 0.  1.
    9000005    2    1    2  501    0 -0.33123240040E+02  0.32429505286E+02 -0.30924179877E+03  0.31271193266E+03  0.30726012456E+01 0.  0.
         13    1    3    3    0    0 -0.10024980167E+02  0.84589451528E+01 -0.80912234524E+02  0.81968552971E+02  0.00000000000E+00 0.  1.
          3    1    3    3  501    0 -0.23098259873E+02  0.23970560133E+02 -0.22832956425E+03  0.23074337969E+03  0.00000000000E+00 0.  1.
         -3    1    1    2    0  502  0.33123240040E+02 -0.32429505286E+02 -0.68824347184E+03  0.68980279673E+03  0.00000000000E+00 0. -1.
<mgrwt>
<rscale>  1 0.30000000E+03</rscale>
<asrwt>0</asrwt>
<pdfrwt beam="1">  1       21 0.91444898E-02 0.30000000E+03</pdfrwt>
<pdfrwt beam="2">0</pdfrwt>
<totfact> 0.10089132E+04</totfact>
</mgrwt>
</event>
<event>
 6    1  0.1274196E-001  0.3000000E+03  0.7818608E-02  0.1093470E+00
         21   -1    0    0  501  502  0.00000000000E+00  0.00000000000E+00  0.23122897483E+01  0.23122897483E+01  0.00000000000E+00 0. -1.
         13   -1    0    0    0    0 -0.00000000000E+00 -0.00000000000E+00 -0.10000000000E+04  0.10000000000E+04  0.00000000000E+00 0.  1.
    9000005    2    1    2  501    0  0.33704683231E+02  0.32794409024E+02 -0.60121446888E+03  0.60305985073E+03  0.32965196860E+01 0.  0.
         13    1    3    3    0    0  0.23137846620E+02  0.24557741989E+02 -0.43346924248E+03  0.43478043518E+03  0.00000000000E+00 0.  1.
          1    1    3    3  501    0  0.10566836611E+02  0.82366670352E+01 -0.16774522640E+03  0.16827941555E+03  0.00000000000E+00 0.  1.
         -3    1    1    2    0  502 -0.33704683231E+02 -0.32794409024E+02 -0.39647324138E+03  0.39925243902E+03  0.00000000000E+00 0. -1.
<mgrwt>
<rscale>  1 0.30000000E+03</rscale>
<asrwt>0</asrwt>
<pdfrwt beam="1">  1       21 0.84083441E-02 0.30000000E+03</pdfrwt>
<pdfrwt beam="2">0</pdfrwt>
<totfact> 0.11702782E+04</totfact>
</mgrwt>
</event>
<event>
 6    1  0.1274196E-001  0.3000000E+03  0.7818608E-02  0.1093470E+00
         21   -1    0    0  501  502  0.00000000000E+00  0.00000000000E+00  0.31784423622E+01  0.31784423622E+01  0.00000000000E+00 0. -1.
         13   -1    0    0    0    0 -0.00000000000E+00 -0.00000000000E+00 -0.10000000000E+04  0.10000000000E+04  0.00000000000E+00 0.  1.
    9000005    2    1    2  501    0 -0.53724185801E+02  0.92727633174E+01 -0.62514557578E+03  0.62752526751E+03  0.29492674318E+01 0.  0.
         13    1    3    3    0    0 -0.80371693449E+01  0.15854653582E+01 -0.10646515325E+03  0.10677986069E+03  0.00000000000E+00 0.  1.
          3    1    3    3  501    0 -0.45687016456E+02  0.76872979592E+01 -0.51868042252E+03  0.52074540683E+03  0.00000000000E+00 0.  1.
         -3    1    1    2    0  502  0.53724185801E+02 -0.92727633174E+01 -0.37167598186E+03  0.37565317485E+03  0.00000000000E+00 0. -1.
<mgrwt>
<rscale>  1 0.30000000E+03</rscale>
<asrwt>0</asrwt>
<pdfrwt beam="1">  1       21 0.11557997E-01 0.30000000E+03</pdfrwt>
<pdfrwt beam="2">0</pdfrwt>
<totfact> 0.66329829E+03</totfact>
</mgrwt>
</event>
<event>
 6    1  0.1274196E-001  0.3000000E+03  0.7818608E-02  0.1093470E+00
         21   -1    0    0  501  502  0.00000000000E+00  0.00000000000E+00  0.94154160643E+00  0.94154160643E+00  0.00000000000E+00 0. -1.
         13   -1    0    0    0    0 -0.00000000000E+00 -0.00000000000E+00 -0.10000000000E+04  0.10000000000E+04  0.00000000000E+00 0.  1.
    9000005    2    1    2  501    0  0.30058800933E+02 -0.33388843500E+01 -0.57483614713E+03  0.57564253028E+03  0.36120571060E+01 0.  0.
         13    1    3    3    0    0  0.28728035328E+02 -0.24290921294E+01 -0.53993706727E+03  0.54070623920E+03  0.00000000000E+00 0.  1.
          1    1    3    3  501    0  0.13307656054E+01 -0.90979222058E+00 -0.34899079858E+02  0.34936291072E+02  0.00000000000E+00 0.  1.
         -3    1    1    2    0  502 -0.30058800933E+02  0.33388843500E+01 -0.42422231127E+03  0.42529901133E+03  0.00000000000E+00 0. -1.
<mgrwt>
<rscale>  1 0.30000000E+03</rscale>
<asrwt>0</asrwt>
<pdfrwt beam="1">  1       21 0.34237949E-02 0.30000000E+03</pdfrwt>
<pdfrwt beam="2">0</pdfrwt>
<totfact> 0.54590919E+04</totfact>
</mgrwt>
</event>
<event>
 6    1  0.1274196E-001  0.3000000E+03  0.7818608E-02  0.1093470E+00
         21   -1    0    0  501  502  0.00000000000E+00  0.00000000000E+00  0.20828661640E+01  0.20828661640E+01  0.00000000000E+00 0. -1.
         13   -1    0    0    0    0 -0.00000000000E+00 -0.00000000000E+00 -0.10000000000E+04  0.10000000000E+04  0.00000000000E+00 0.  1.
    9000005    2    1    2  501    0  0.31018532334E+02  0.17666508165E+02 -0.81078217273E+03  0.81157368390E+03  0.31397329070E+01 0.  0.
         13    1    3    3    0    0  0.30888365245E+02  0.17392279072E+02 -0.80744044401E+03  0.80821819647E+03  0.00000000000E+00 0.  1.
          3    1    3    3  501    0  0.13016708846E+00  0.27422909223E+00 -0.33417287244E+01  0.33554874360E+01  0.00000000000E+00 0.  1.
         -1    1    1    2    0  502 -0.31018532334E+02 -0.17666508165E+02 -0.18713496110E+03  0.19050918226E+03  0.00000000000E+00 0. -1.
<mgrwt>
<rscale>  1 0.30000000E+03</rscale>
<asrwt>0</asrwt>
<pdfrwt beam="1">  1       21 0.75740747E-02 0.30000000E+03</pdfrwt>
<pdfrwt beam="2">0</pdfrwt>
<totfact> 0.14060368E+04</totfact>
</mgrwt>
</event>
<event>
 6    1  0.1274196E-001  0.3000000E+03  0.7818608E-02  0.1093470E+00
         21   -1    0    0  501  502  0.00000000000E+00  0.00000000000E+00  0.18856677229E+01  0.18856677229E+01  0.00000000000E+00 0. -1.
         13   -1    0    0    0    0 -0.00000000000E+00 -0.00000000000E+00 -0.10000000000E+04  0.10000000000E+04  0.00000000000E+00 0.  1.
    9000005    2    1    2  501    0  0.15379992429E+02  0.40160834742E+02 -0.56315770470E+03  0.56480820927E+03  0.35037239712E+01 0.  0.
         13    1    3    3    0    0  0.89173499767E+01  0.19954642874E+02 -0.26894905573E+03  0.26983569349E+03  0.00000000000E+00 0.  1.
          3    1    3    3  501    0  0.64626424526E+01  0.20206191868E+02 -0.29420864897E+03  0.29497251578E+03  0.00000000000E+00 0.  1.
         -1    1    1    2    0  502 -0.15379992429E+02 -0.40160834742E+02 -0.43495662757E+03  0.43707745845E+03  0.00000000000E+00 0. -1.
<mgrwt>
<rscale>  1 0.30000000E+03</rscale>
<asrwt>0</asrwt>
<pdfrwt beam="1">  1       21 0.68569880E-02 0.30000000E+03</pdfrwt>
<pdfrwt beam="2">0</pdfrwt>
<totfact> 0.16724976E+04</totfact>
</mgrwt>
</event>
<event>
 6    1  0.1274196E-001  0.3000000E+03  0.7818608E-02  0.1093470E+00
         21   -1    0    0  501  502  0.00000000000E+00  0.00000000000E+00  0.11270772125E+01  0.11270772125E+01  0.00000000000E+00 0. -1.
         13   -1    0    0    0    0 -0.00000000000E+00 -0.00000000000E+00 -0.10000000000E+04  0.10000000000E+04  0.00000000000E+00 0.  1.
    9000005    2    1    2  501    0 -0.22398327335E+02  0.23785650962E+02 -0.45425977202E+03  0.45553480615E+03  0.96216877564E+01 0.  0.
         13    1    3    3    0    0 -0.88125437274E+01  0.31756352078E+01 -0.12908180001E+03  0.12942123736E+03  0.00000000000E+00 0.  1.
          3    1    3    3  501    0 -0.13585783607E+02  0.20610015754E+02 -0.32517797201E+03  0.32611356878E+03  0.00000000000E+00 0.  1.
         -3    1    1    2    0  502  0.22398327335E+02 -0.23785650962E+02 -0.54461315077E+03  0.54559227106E+03  0.00000000000E+00 0. -1.
<mgrwt>
<rscale>  1 0.30000000E+03</rscale>
<asrwt>0</asrwt>
<pdfrwt beam="1">  1       21 0.40984712E-02 0.30000000E+03</pdfrwt>
<pdfrwt beam="2">0</pdfrwt>
<totfact> 0.40359008E+04</totfact>
</mgrwt>
</event>
<event>
 6    1  0.1274196E-001  0.3000000E+03  0.7818608E-02  0.1093470E+00
         21   -1    0    0  501  502  0.00000000000E+00  0.00000000000E+00  0.12323229011E+01  0.12323229011E+01  0.00000000000E+00 0. -1.
         13   -1    0    0    0    0 -0.00000000000E+00 -0.00000000000E+00 -0.10000000000E+04  0.10000000000E+04  0.00000000000E+00 0.  1.
    9000005    2    1    2  501    0  0.34170690623E+02 -0.44414453592E+01 -0.40918112169E+03  0.41063968085E+03  0.28973437321E+01 0.  0.
         13    1    3    3    0    0  0.23659090377E+02 -0.38568309720E+01 -0.27104514720E+03  0.27210310458E+03  0.00000000000E+00 0.  1.
          3    1    3    3  501    0  0.10511600246E+02 -0.58461438720E+00 -0.13813597450E+03  0.13853657627E+03  0.00000000000E+00 0.  1.
         -1    1    1    2    0  502 -0.34170690623E+02  0.44414453592E+01 -0.58958655541E+03  0.59059264206E+03  0.00000000000E+00 0. -1.
<mgrwt>
<rscale>  1 0.30000000E+03</rscale>
<asrwt>0</asrwt>
<pdfrwt beam="1">  1       21 0.44811836E-02 0.30000000E+03</pdfrwt>
<pdfrwt beam="2">0</pdfrwt>
<totfact> 0.34704030E+04</totfact>
</mgrwt>
</event>
<event>
 6    1  0.1274196E-001  0.3000000E+03  0.7818608E-02  0.1093470E+00
         21   -1    0    0  501  502  0.00000000000E+00  0.00000000000E+00  0.56289891606E+01  0.56289891606E+01  0.00000000000E+00 0. -1.
         13   -1    0    0    0    0 -0.00000000000E+00 -0.00000000000E+00 -0.10000000000E+04  0.10000000000E+04  0.00000000000E+00 0.  1.
    9000005    2    1    2  501    0  0.84584579883E+01 -0.41564317351E+02 -0.91188447375E+03  0.91287573159E+03  0.31096426291E+01 0.  0.
         13    1    3    3    0    0  0.68622904580E+01 -0.37765862205E+02 -0.83243283067E+03  0.83331732789E+03  0.00000000000E+00 0.  1.
          3    1    3    3  501    0  0.15961675304E+01 -0.37984551466E+01 -0.79451643077E+02  0.79558403704E+02  0.00000000000E+00 0.  1.
         -1    1    1    2    0  502 -0.84584579883E+01  0.41564317351E+02 -0.82486537093E+02  0.92753257571E+02  0.00000000000E+00 0. -1.
<mgrwt>
<rscale>  1 0.30000000E+03</rscale>
<asrwt>0</asrwt>
<pdfrwt beam="1">  1       21 0.20469095E-01 0.30000000E+03</pdfrwt>
<pdfrwt beam="2">0</pdfrwt>
<totfact> 0.22952458E+03</totfact>
</mgrwt>
</event>
<event>
 6    1  0.1274196E-001  0.3000000E+03  0.7818608E-02  0.1093470E+00
         21   -1    0    0  501  502  0.00000000000E+00  0.00000000000E+00  0.23791310431E+01  0.23791310431E+01  0.00000000000E+00 0. -1.
         13   -1    0    0    0    0 -0.00000000000E+00 -0.00000000000E+00 -0.10000000000E+04  0.10000000000E+04  0.00000000000E+00 0.  1.
    9000005    2    1    2  501    0 -0.35374208461E+02 -0.93954946595E+01 -0.82974854182E+03  0.83056315925E+03  0.35928972169E+01 0.  0.
         13    1    3    3    0    0 -0.91298563104E+01 -0.95611749636E+00 -0.22186316301E+03  0.22205299263E+03  0.00000000000E+00 0.  1.
          3    1    3    3  501    0 -0.26244352150E+02 -0.84393771631E+01 -0.60788537881E+03  0.60851016662E+03  0.00000000000E+00 0.  1.
         -3    1    1    2    0  502  0.35374208461E+02  0.93954946595E+01 -0.16787232714E+03  0.17181597179E+03  0.00000000000E+00 0. -1.
<mgrwt>
<rscale>  1 0.30000000E+03</rscale>
<asrwt>0</asrwt>
<pdfrwt beam="1">  1       21 0.86514039E-02 0.30000000E+03</pdfrwt>
<pdfrwt beam="2">0</pdfrwt>
<totfact> 0.11129092E+04</totfact>
</mgrwt>
</event>
<event>
 6    1  0.1274196E-001  0.3000000E+03  0.7818608E-02  0.1093470E+00
         21   -1    0    0  501  502  0.00000000000E+00  0.00000000000E+00  0.63430987309E+01  0.63430987309E+01  0.00000000000E+00 0. -1.
         13   -1    0    0    0    0 -0.00000000000E+00 -0.00000000000E+00 -0.10000000000E+04  0.10000000000E+04  0.00000000000E+00 0.  1.
    9000005    2    1    2  501    0 -0.12596875448E+02  0.34986592295E+02 -0.94150033730E+03  0.94228804369E+03  0.10056302904E+02 0.  0.
         13    1    3    3    0    0  0.12004316889E+01  0.18142296623E+01 -0.29387442193E+02  0.29467850688E+02  0.00000000000E+00 0.  1.
          3    1    3    3  501    0 -0.13797307137E+02  0.33172362633E+02 -0.91211289511E+03  0.91282019300E+03  0.00000000000E+00 0.  1.
         -3    1    1    2    0  502  0.12596875448E+02 -0.34986592295E+02 -0.52156563965E+02  0.64055055040E+02  0.00000000000E+00 0. -1.
<mgrwt>
<rscale>  1 0.30000000E+03</rscale>
<asrwt>0</asrwt>
<pdfrwt beam="1">  1       21 0.23065862E-01 0.30000000E+03</pdfrwt>
<pdfrwt beam="2">0</pdfrwt>
<totfact> 0.18241553E+03</totfact>
</mgrwt>
</event>
<event>
 6    1  0.1274196E-001  0.3000000E+03  0.7818608E-02  0.1093470E+00
         21   -1    0    0  501  502  0.00000000000E+00  0.00000000000E+00  0.23722018969E+01  0.23722018969E+01  0.00000000000E+00 0. -1.
         13   -1    0    0    0    0 -0.00000000000E+00 -0.00000000000E+00 -0.10000000000E+04  0.10000000000E+04  0.00000000000E+00 0.  1.
    9000005    2    1    2  501    0  0.20431151581E+02 -0.37954609309E+02 -0.73203688534E+03  0.73330619278E+03  0.14094467922E+01 0.  0.
         13    1    3    3    0    0  0.32538572010E+01 -0.71128145882E+01 -0.12947254883E+03  0.12970859886E+03  0.00000000000E+00 0.  1.
          1    1    3    3  501    0  0.17177294380E+02 -0.30841794721E+02 -0.60256433651E+03  0.60359759391E+03  0.00000000000E+00 0.  1.
         -1    1    1    2    0  502 -0.20431151581E+02  0.37954609309E+02 -0.26559091276E+03  0.26906600912E+03  0.00000000000E+00 0. -1.
<mgrwt>
<rscale>  1 0.30000000E+03</rscale>
<asrwt>0</asrwt>
<pdfrwt beam="1">  1       21 0.86262069E-02 0.30000000E+03</pdfrwt>
<pdfrwt beam="2">0</pdfrwt>
<totfact> 0.11186550E+04</totfact>
</mgrwt>
</event>
<event>
 6    1  0.1274196E-001  0.3000000E+03  0.7818608E-02  0.1093470E+00
         21   -1    0    0  501  502  0.00000000000E+00  0.00000000000E+00  0.12606906726E+01  0.12606906726E+01  0.00000000000E+00 0. -1.
         13   -1    0    0    0    0 -0.00000000000E+00 -0.00000000000E+00 -0.10000000000E+04  0.10000000000E+04  0.00000000000E+00 0.  1.
    9000005    2    1    2  501    0  0.30661069483E+02  0.15631218133E+02 -0.61821533419E+03  0.61918356257E+03  0.36943972871E+01 0.  0.
         13    1    3    3    0    0  0.15236040358E+02  0.68335891665E+01 -0.27020685930E+03  0.27072233318E+03  0.00000000000E+00 0.  1.
          3    1    3    3  501    0  0.15425029125E+02  0.87976289664E+01 -0.34800847488E+03  0.34846122939E+03  0.00000000000E+00 0.  1.
         -1    1    1    2    0  502 -0.30661069483E+02 -0.15631218133E+02 -0.38052397514E+03  0.38207712810E+03  0.00000000000E+00 0. -1.
<mgrwt>
<rscale>  1 0.30000000E+03</rscale>
<asrwt>0</asrwt>
<pdfrwt beam="1">  1       21 0.45843394E-02 0.30000000E+03</pdfrwt>
<pdfrwt beam="2">0</pdfrwt>
<totfact> 0.33388667E+04</totfact>
</mgrwt>
</event>
<event>
 6    1  0.1274196E-001  0.3000000E+03  0.7818608E-02  0.1093470E+00
         21   -1    0    0  501  502  0.00000000000E+00  0.00000000000E+00  0.15655538189E+02  0.15655538189E+02  0.00000000000E+00 0. -1.
         13   -1    0    0    0    0 -0.00000000000E+00 -0.00000000000E+00 -0.10000000000E+04  0.10000000000E+04  0.00000000000E+00 0.  1.
    9000005    2    1    2  501    0  0.10602654745E+03  0.43821642542E+02 -0.69471827763E+03  0.70413460521E+03  0.31767693724E+01 0.  0.
         13    1    3    3    0    0  0.29897709163E+02  0.13832097642E+02 -0.20221216229E+03  0.20487791124E+03  0.00000000000E+00 0.  1.
          3    1    3    3  501    0  0.76128838291E+02  0.29989544900E+02 -0.49250611534E+03  0.49925669397E+03  0.00000000000E+00 0.  1.
         -3    1    1    2    0  502 -0.10602654745E+03 -0.43821642542E+02 -0.28962618418E+03  0.31152093298E+03  0.00000000000E+00 0. -1.
<mgrwt>
<rscale>  1 0.30000000E+03</rscale>
<asrwt>0</asrwt>
<pdfrwt beam="1">  1       21 0.56929350E-01 0.30000000E+03</pdfrwt>
<pdfrwt beam="2">0</pdfrwt>
<totfact> 0.28242403E+02</totfact>
</mgrwt>
</event>
<event>
 6    1  0.1274196E-001  0.3000000E+03  0.7818608E-02  0.1093470E+00
         21   -1    0    0  501  502  0.00000000000E+00  0.00000000000E+00  0.18440511168E+01  0.18440511168E+01  0.00000000000E+00 0. -1.
         13   -1    0    0    0    0 -0.00000000000E+00 -0.00000000000E+00 -0.10000000000E+04  0.10000000000E+04  0.00000000000E+00 0.  1.
    9000005    2    1    2  501    0 -0.55226891372E+01 -0.30726097613E+02 -0.84264731102E+03  0.84323279798E+03  0.35309573114E+01 0.  0.
         13    1    3    3    0    0 -0.71776524974E+00 -0.12227451669E+02 -0.35411137387E+03  0.35432314469E+03  0.00000000000E+00 0.  1.
          1    1    3    3  501    0 -0.48049238875E+01 -0.18498645944E+02 -0.48853593715E+03  0.48890965329E+03  0.00000000000E+00 0.  1.
         -1    1    1    2    0  502  0.55226891372E+01  0.30726097613E+02 -0.15550863787E+03  0.15861125313E+03  0.00000000000E+00 0. -1.
<mgrwt>
<rscale>  1 0.30000000E+03</rscale>
<asrwt>0</asrwt>
<pdfrwt beam="1">  1       21 0.67056546E-02 0.30000000E+03</pdfrwt>
<pdfrwt beam="2">0</pdfrwt>
<totfact> 0.17385719E+04</totfact>
</mgrwt>
</event>
<event>
 6    1  0.1274196E-001  0.3000000E+03  0.7818608E-02  0.1093470E+00
         21   -1    0    0  501  502  0.00000000000E+00  0.00000000000E+00  0.38154511693E+01  0.38154511693E+01  0.00000000000E+00 0. -1.
         13   -1    0    0    0    0 -0.00000000000E+00 -0.00000000000E+00 -0.10000000000E+04  0.10000000000E+04  0.00000000000E+00 0.  1.
    9000005    2    1    2  501    0 -0.17999477241E+02  0.57408490744E+02 -0.61070765377E+03  0.61367169226E+03  0.30645582475E+01 0.  0.
         13    1    3    3    0    0 -0.15085307368E+01  0.61697430536E+01 -0.73630345286E+02  0.73903782997E+02  0.00000000000E+00 0.  1.
          3    1    3    3  501    0 -0.16490946504E+02  0.51238747690E+02 -0.53707730848E+03  0.53976790926E+03  0.00000000000E+00 0.  1.
         -3    1    1    2    0  502  0.17999477241E+02 -0.57408490744E+02 -0.38547689506E+03  0.39014375891E+03  0.00000000000E+00 0. -1.
<mgrwt>
<rscale>  1 0.30000000E+03</rscale>
<asrwt>0</asrwt>
<pdfrwt beam="1">  1       21 0.13874397E-01 0.30000000E+03</pdfrwt>
<pdfrwt beam="2">0</pdfrwt>
<totfact> 0.47547265E+03</totfact>
</mgrwt>
</event>
<event>
 6    1  0.1274196E-001  0.3000000E+03  0.7818608E-02  0.1093470E+00
         21   -1    0    0  501  502  0.00000000000E+00  0.00000000000E+00  0.11993234934E+01  0.11993234934E+01  0.00000000000E+00 0. -1.
         13   -1    0    0    0    0 -0.00000000000E+00 -0.00000000000E+00 -0.10000000000E+04  0.10000000000E+04  0.00000000000E+00 0.  1.
    9000005    2    1    2  501    0  0.32404136034E+02  0.37284395533E+01 -0.66348947185E+03  0.66430537392E+03  0.44069563656E+01 0.  0.
         13    1    3    3    0    0  0.24410418432E+02  0.46091395836E+01 -0.51319645782E+03  0.51379735014E+03  0.00000000000E+00 0.  1.
          1    1    3    3  501    0  0.79937176012E+01 -0.88070003024E+00 -0.15029301403E+03  0.15050802377E+03  0.00000000000E+00 0.  1.
         -3    1    1    2    0  502 -0.32404136034E+02 -0.37284395533E+01 -0.33531120466E+03  0.33689394958E+03  0.00000000000E+00 0. -1.
<mgrwt>
<rscale>  1 0.30000000E+03</rscale>
<asrwt>0</asrwt>
<pdfrwt beam="1">  1       21 0.43611855E-02 0.30000000E+03</pdfrwt>
<pdfrwt beam="2">0</pdfrwt>
<totfact> 0.36337569E+04</totfact>
</mgrwt>
</event>
<event>
 6    1  0.1274196E-001  0.3000000E+03  0.7818608E-02  0.1093470E+00
         21   -1    0    0  501  502  0.00000000000E+00  0.00000000000E+00  0.14696598460E+01  0.14696598460E+01  0.00000000000E+00 0. -1.
         13   -1    0    0    0    0 -0.00000000000E+00 -0.00000000000E+00 -0.10000000000E+04  0.10000000000E+04  0.00000000000E+00 0.  1.
    9000005    2    1    2  501    0  0.36000542607E+02 -0.88874895865E+01 -0.62173718103E+03  0.62285625372E+03  0.42147334646E+01 0.  0.
         13    1    3    3    0    0  0.33890557824E+02 -0.86144536052E+01 -0.59897462793E+03  0.59999448633E+03  0.00000000000E+00 0.  1.
          1    1    3    3  501    0  0.21099847833E+01 -0.27303598130E+00 -0.22762553101E+02  0.22861767388E+02  0.00000000000E+00 0.  1.
         -1    1    1    2    0  502 -0.36000542607E+02  0.88874895865E+01 -0.37679315912E+03  0.37861340613E+03  0.00000000000E+00 0. -1.
<mgrwt>
<rscale>  1 0.30000000E+03</rscale>
<asrwt>0</asrwt>
<pdfrwt beam="1">  1       21 0.53442289E-02 0.30000000E+03</pdfrwt>
<pdfrwt beam="2">0</pdfrwt>
<totfact> 0.25708744E+04</totfact>
</mgrwt>
</event>
<event>
 6    1  0.1274196E-001  0.3000000E+03  0.7818608E-02  0.1093470E+00
         21   -1    0    0  501  502  0.00000000000E+00  0.00000000000E+00  0.51918623708E+01  0.51918623708E+01  0.00000000000E+00 0. -1.
         13   -1    0    0    0    0 -0.00000000000E+00 -0.00000000000E+00 -0.10000000000E+04  0.10000000000E+04  0.00000000000E+00 0.  1.
    9000005    2    1    2  501    0 -0.48322907396E+02 -0.43121368736E+02 -0.71751072021E+03  0.72043158858E+03  0.23418774162E+01 0.  0.
         13    1    3    3    0    0 -0.28844920121E+02 -0.25703888145E+02 -0.44070820685E+03  0.44239851138E+03  0.00000000000E+00 0.  1.
          1    1    3    3  501    0 -0.19477987275E+02 -0.17417480591E+02 -0.27680251336E+03  0.27803307720E+03  0.00000000000E+00 0.  1.
         -3    1    1    2    0  502  0.48322907396E+02  0.43121368736E+02 -0.27729741742E+03  0.28476027379E+03  0.00000000000E+00 0. -1.
<mgrwt>
<rscale>  1 0.30000000E+03</rscale>
<asrwt>0</asrwt>
<pdfrwt beam="1">  1       21 0.18879539E-01 0.30000000E+03</pdfrwt>
<pdfrwt beam="2">0</pdfrwt>
<totfact> 0.26771557E+03</totfact>
</mgrwt>
</event>
<event>
 6    1  0.1274196E-001  0.3000000E+03  0.7818608E-02  0.1093470E+00
         21   -1    0    0  501  502  0.00000000000E+00  0.00000000000E+00  0.27180533828E+01  0.27180533828E+01  0.00000000000E+00 0. -1.
         13   -1    0    0    0    0 -0.00000000000E+00 -0.00000000000E+00 -0.10000000000E+04  0.10000000000E+04  0.00000000000E+00 0.  1.
    9000005    2    1    2  501    0 -0.50544783146E+01  0.29832399213E+02 -0.90682243200E+03  0.90733229146E+03  0.30731325735E+01 0.  0.
         13    1    3    3    0    0 -0.29354080082E+01  0.23205687833E+02 -0.72288646411E+03  0.72326479284E+03  0.00000000000E+00 0.  1.
          3    1    3    3  501    0 -0.21190703064E+01  0.66267113799E+01 -0.18393596789E+03  0.18406749862E+03  0.00000000000E+00 0.  1.
         -1    1    1    2    0  502  0.50544783146E+01 -0.29832399213E+02 -0.90459514613E+02  0.95385761925E+02  0.00000000000E+00 0. -1.
<mgrwt>
<rscale>  1 0.30000000E+03</rscale>
<asrwt>0</asrwt>
<pdfrwt beam="1">  1       21 0.98838513E-02 0.30000000E+03</pdfrwt>
<pdfrwt beam="2">0</pdfrwt>
<totfact> 0.87846172E+03</totfact>
</mgrwt>
</event>
<event>
 6    1  0.1274196E-001  0.3000000E+03  0.7818608E-02  0.1093470E+00
         21   -1    0    0  501  502  0.00000000000E+00  0.00000000000E+00  0.20868037120E+01  0.20868037120E+01  0.00000000000E+00 0. -1.
         13   -1    0    0    0    0 -0.00000000000E+00 -0.00000000000E+00 -0.10000000000E+04  0.10000000000E+04  0.00000000000E+00 0.  1.
    9000005    2    1    2  501    0  0.23358772400E+02 -0.23541820373E+02 -0.84324671560E+03  0.84390472571E+03  0.32114079240E+01 0.  0.
         13    1    3    3    0    0  0.14636160134E+02 -0.16593515963E+02 -0.58013814878E+03  0.58055993112E+03  0.00000000000E+00 0.  1.
          1    1    3    3  501    0  0.87226122657E+01 -0.69483044091E+01 -0.26310856683E+03  0.26334479459E+03  0.00000000000E+00 0.  1.
         -1    1    1    2    0  502 -0.23358772400E+02  0.23541820373E+02 -0.15466648068E+03  0.15818207800E+03  0.00000000000E+00 0. -1.
<mgrwt>
<rscale>  1 0.30000000E+03</rscale>
<asrwt>0</asrwt>
<pdfrwt beam="1">  1       21 0.75883931E-02 0.30000000E+03</pdfrwt>
<pdfrwt beam="2">0</pdfrwt>
<totfact> 0.14013929E+04</totfact>
</mgrwt>
</event>
<event>
 6    1  0.1274196E-001  0.3000000E+03  0.7818608E-02  0.1093470E+00
         21   -1    0    0  501  502  0.00000000000E+00  0.00000000000E+00  0.12034719748E+01  0.12034719748E+01  0.00000000000E+00 0. -1.
         13   -1    0    0    0    0 -0.00000000000E+00 -0.00000000000E+00 -0.10000000000E+04  0.10000000000E+04  0.00000000000E+00 0.  1.
    9000005    2    1    2  501    0 -0.12637311910E+02 -0.29783603662E+02 -0.67835519958E+03  0.67913296777E+03  0.30077271966E+01 0.  0.
         13    1    3    3    0    0 -0.52253743407E+01 -0.91216188143E+01 -0.23348382832E+03  0.23372035973E+03  0.00000000000E+00 0.  1.
          1    1    3    3  501    0 -0.74119375697E+01 -0.20661984848E+02 -0.44487137126E+03  0.44541260804E+03  0.00000000000E+00 0.  1.
         -1    1    1    2    0  502  0.12637311910E+02  0.29783603662E+02 -0.32044132845E+03  0.32207050420E+03  0.00000000000E+00 0. -1.
<mgrwt>
<rscale>  1 0.30000000E+03</rscale>
<asrwt>0</asrwt>
<pdfrwt beam="1">  1       21 0.43762710E-02 0.30000000E+03</pdfrwt>
<pdfrwt beam="2">0</pdfrwt>
<totfact> 0.36125748E+04</totfact>
</mgrwt>
</event>
<event>
 6    1  0.1274196E-001  0.3000000E+03  0.7818608E-02  0.1093470E+00
         21   -1    0    0  501  502  0.00000000000E+00  0.00000000000E+00  0.21166493264E+01  0.21166493264E+01  0.00000000000E+00 0. -1.
         13   -1    0    0    0    0 -0.00000000000E+00 -0.00000000000E+00 -0.10000000000E+04  0.10000000000E+04  0.00000000000E+00 0.  1.
    9000005    2    1    2  501    0 -0.39588564745E+02 -0.57219427484E+01 -0.74590533497E+03  0.74698351647E+03  0.31000067014E+01 0.  0.
         13    1    3    3    0    0 -0.44651617814E+01 -0.11898695437E+00 -0.99867181039E+02  0.99967022944E+02  0.00000000000E+00 0.  1.
          3    1    3    3  501    0 -0.35123402963E+02 -0.56029557940E+01 -0.64603815394E+03  0.64701649352E+03  0.00000000000E+00 0.  1.
         -1    1    1    2    0  502  0.39588564745E+02  0.57219427484E+01 -0.25197801570E+03  0.25513313286E+03  0.00000000000E+00 0. -1.
<mgrwt>
<rscale>  1 0.30000000E+03</rscale>
<asrwt>0</asrwt>
<pdfrwt beam="1">  1       21 0.76969229E-02 0.30000000E+03</pdfrwt>
<pdfrwt beam="2">0</pdfrwt>
<totfact> 0.13669503E+04</totfact>
</mgrwt>
</event>
<event>
 6    1  0.1274196E-001  0.3000000E+03  0.7818608E-02  0.1093470E+00
         21   -1    0    0  501  502  0.00000000000E+00  0.00000000000E+00  0.50752436367E+02  0.50752436367E+02  0.00000000000E+00 0. -1.
         13   -1    0    0    0    0 -0.00000000000E+00 -0.00000000000E+00 -0.10000000000E+04  0.10000000000E+04  0.00000000000E+00 0.  1.
    9000005    2    1    2  501    0  0.34630119836E+02 -0.93474386822E+02 -0.94575940435E+03  0.95100839671E+03  0.44060751979E+01 0.  0.
         13    1    3    3    0    0  0.44521235979E+00 -0.22654647034E+01 -0.27772767192E+02  0.27868569067E+02  0.00000000000E+00 0.  1.
          1    1    3    3  501    0  0.34184907476E+02 -0.91208922119E+02 -0.91798663716E+03  0.92313982764E+03  0.00000000000E+00 0.  1.
         -3    1    1    2    0  502 -0.34630119836E+02  0.93474386822E+02 -0.34881592783E+01  0.99744039655E+02  0.00000000000E+00 0. -1.
<mgrwt>
<rscale>  1 0.30000000E+03</rscale>
<asrwt>0</asrwt>
<pdfrwt beam="1">  1       21 0.18455470E+00 0.30000000E+03</pdfrwt>
<pdfrwt beam="2">0</pdfrwt>
<totfact> 0.12422149E+01</totfact>
</mgrwt>
</event>
<event>
 6    1  0.1274196E-001  0.3000000E+03  0.7818608E-02  0.1093470E+00
         21   -1    0    0  501  502  0.00000000000E+00  0.00000000000E+00  0.26251249925E+01  0.26251249925E+01  0.00000000000E+00 0. -1.
         13   -1    0    0    0    0 -0.00000000000E+00 -0.00000000000E+00 -0.10000000000E+04  0.10000000000E+04  0.00000000000E+00 0.  1.
    9000005    2    1    2  501    0  0.30779088913E+02  0.40390551939E+02 -0.56072574061E+03  0.56303302364E+03  0.37524029321E+01 0.  0.
         13    1    3    3    0    0  0.10081439424E+02  0.12441081143E+02 -0.19584531283E+03  0.19649886127E+03  0.00000000000E+00 0.  1.
          3    1    3    3  501    0  0.20697649489E+02  0.27949470796E+02 -0.36488042777E+03  0.36653416237E+03  0.00000000000E+00 0.  1.
         -3    1    1    2    0  502 -0.30779088913E+02 -0.40390551939E+02 -0.43664913440E+03  0.43959210136E+03  0.00000000000E+00 0. -1.
<mgrwt>
<rscale>  1 0.30000000E+03</rscale>
<asrwt>0</asrwt>
<pdfrwt beam="1">  1       21 0.95459292E-02 0.30000000E+03</pdfrwt>
<pdfrwt beam="2">0</pdfrwt>
<totfact> 0.93470508E+03</totfact>
</mgrwt>
</event>
<event>
 6    1  0.1274196E-001  0.3000000E+03  0.7818608E-02  0.1093470E+00
         21   -1    0    0  501  502  0.00000000000E+00  0.00000000000E+00  0.27165804626E+01  0.27165804626E+01  0.00000000000E+00 0. -1.
         13   -1    0    0    0    0 -0.00000000000E+00 -0.00000000000E+00 -0.10000000000E+04  0.10000000000E+04  0.00000000000E+00 0.  1.
    9000005    2    1    2  501    0 -0.34981174571E+02  0.55625119963E+01 -0.86622399171E+03  0.86695503313E+03  0.35215799906E+01 0.  0.
         13    1    3    3    0    0 -0.23268138902E+00 -0.35601130185E-02 -0.17783512810E+02  0.17785035315E+02  0.00000000000E+00 0.  1.
          3    1    3    3  501    0 -0.34748493182E+02  0.55660721094E+01 -0.84844047890E+03  0.84916999781E+03  0.00000000000E+00 0.  1.
         -1    1    1    2    0  502  0.34981174571E+02 -0.55625119963E+01 -0.13105942782E+03  0.13576154734E+03  0.00000000000E+00 0. -1.
<mgrwt>
<rscale>  1 0.30000000E+03</rscale>
<asrwt>0</asrwt>
<pdfrwt beam="1">  1       21 0.98784952E-02 0.30000000E+03</pdfrwt>
<pdfrwt beam="2">0</pdfrwt>
<totfact> 0.87931237E+03</totfact>
</mgrwt>
</event>
<event>
 6    1  0.1274196E-001  0.3000000E+03  0.7818608E-02  0.1093470E+00
         21   -1    0    0  501  502  0.00000000000E+00  0.00000000000E+00  0.99388518709E+00  0.99388518709E+00  0.00000000000E+00 0. -1.
         13   -1    0    0    0    0 -0.00000000000E+00 -0.00000000000E+00 -0.10000000000E+04  0.10000000000E+04  0.00000000000E+00 0.  1.
    9000005    2    1    2  501    0  0.25367327330E+02  0.18366741585E+02 -0.54374576221E+03  0.54465757593E+03  0.34033228719E+01 0.  0.
         13    1    3    3    0    0  0.25392488628E+02  0.18441949571E+02 -0.54322999616E+03  0.54413574842E+03  0.00000000000E+00 0.  1.
          3    1    3    3  501    0 -0.25161297513E-01 -0.75207986205E-01 -0.51576605368E+00  0.52182751385E+00  0.00000000000E+00 0.  1.
         -1    1    1    2    0  502 -0.25367327330E+02 -0.18366741585E+02 -0.45526035260E+03  0.45633630925E+03  0.00000000000E+00 0. -1.
<mgrwt>
<rscale>  1 0.30000000E+03</rscale>
<asrwt>0</asrwt>
<pdfrwt beam="1">  1       21 0.36141356E-02 0.30000000E+03</pdfrwt>
<pdfrwt beam="2">0</pdfrwt>
<totfact> 0.49861535E+04</totfact>
</mgrwt>
</event>
<event>
 6    1  0.1274196E-001  0.3000000E+03  0.7818608E-02  0.1093470E+00
         21   -1    0    0  501  502  0.00000000000E+00  0.00000000000E+00  0.28690150211E+01  0.28690150211E+01  0.00000000000E+00 0. -1.
         13   -1    0    0    0    0 -0.00000000000E+00 -0.00000000000E+00 -0.10000000000E+04  0.10000000000E+04  0.00000000000E+00 0.  1.
    9000005    2    1    2  501    0  0.30542079558E+02  0.43744677339E+02 -0.54030138057E+03  0.54293456003E+03  0.24370504443E+01 0.  0.
         13    1    3    3    0    0  0.12353788068E+02  0.15722901041E+02 -0.19882991069E+03  0.19983282784E+03  0.00000000000E+00 0.  1.
          1    1    3    3  501    0  0.18188291490E+02  0.28021776298E+02 -0.34147146988E+03  0.34310173220E+03  0.00000000000E+00 0.  1.
         -1    1    1    2    0  502 -0.30542079558E+02 -0.43744677339E+02 -0.45682960441E+03  0.45993445499E+03  0.00000000000E+00 0. -1.
<mgrwt>
<rscale>  1 0.30000000E+03</rscale>
<asrwt>0</asrwt>
<pdfrwt beam="1">  1       21 0.10432804E-01 0.30000000E+03</pdfrwt>
<pdfrwt beam="2">0</pdfrwt>
<totfact> 0.79751041E+03</totfact>
</mgrwt>
</event>
<event>
 6    1  0.1274196E-001  0.3000000E+03  0.7818608E-02  0.1093470E+00
         21   -1    0    0  501  502  0.00000000000E+00  0.00000000000E+00  0.11672661919E+01  0.11672661919E+01  0.00000000000E+00 0. -1.
         13   -1    0    0    0    0 -0.00000000000E+00 -0.00000000000E+00 -0.10000000000E+04  0.10000000000E+04  0.00000000000E+00 0.  1.
    9000005    2    1    2  501    0 -0.60507562088E+00 -0.32529852673E+02 -0.64535730786E+03  0.64619764189E+03  0.51749529420E+01 0.  0.
         13    1    3    3    0    0  0.21315859149E+01 -0.88899984150E+01 -0.18406749939E+03  0.18429438424E+03  0.00000000000E+00 0.  1.
          1    1    3    3  501    0 -0.27366615358E+01 -0.23639854258E+02 -0.46128980847E+03  0.46190325765E+03  0.00000000000E+00 0.  1.
         -1    1    1    2    0  502  0.60507562088E+00  0.32529852673E+02 -0.35347542595E+03  0.35496962431E+03  0.00000000000E+00 0. -1.
<mgrwt>
<rscale>  1 0.30000000E+03</rscale>
<asrwt>0</asrwt>
<pdfrwt beam="1">  1       21 0.42446133E-02 0.30000000E+03</pdfrwt>
<pdfrwt beam="2">0</pdfrwt>
<totfact> 0.38041386E+04</totfact>
</mgrwt>
</event>
<event>
 6    1  0.1274196E-001  0.3000000E+03  0.7818608E-02  0.1093470E+00
         21   -1    0    0  501  502  0.00000000000E+00  0.00000000000E+00  0.22362023633E+01  0.22362023633E+01  0.00000000000E+00 0. -1.
         13   -1    0    0    0    0 -0.00000000000E+00 -0.00000000000E+00 -0.10000000000E+04  0.10000000000E+04  0.00000000000E+00 0.  1.
    9000005    2    1    2  501    0  0.10369586032E+01 -0.40838159786E+02 -0.75073492041E+03  0.75185230360E+03  0.31835706323E+01 0.  0.
         13    1    3    3    0    0  0.24357421990E-01 -0.37125685193E+02 -0.68201904817E+03  0.68302876891E+03  0.00000000000E+00 0.  1.
          1    1    3    3  501    0  0.10126011812E+01 -0.37124745937E+01 -0.68715872242E+02  0.68823534686E+02  0.00000000000E+00 0.  1.
         -3    1    1    2    0  502 -0.10369586032E+01  0.40838159786E+02 -0.24702887722E+03  0.25038389876E+03  0.00000000000E+00 0. -1.
<mgrwt>
<rscale>  1 0.30000000E+03</rscale>
<asrwt>0</asrwt>
<pdfrwt beam="1">  1       21 0.81316621E-02 0.30000000E+03</pdfrwt>
<pdfrwt beam="2">0</pdfrwt>
<totfact> 0.12412647E+04</totfact>
</mgrwt>
</event>
<event>
 6    1  0.1274196E-001  0.3000000E+03  0.7818608E-02  0.1093470E+00
         21   -1    0    0  501  502  0.00000000000E+00  0.00000000000E+00  0.23326636143E+01  0.23326636143E+01  0.00000000000E+00 0. -1.
         13   -1    0    0    0    0 -0.00000000000E+00 -0.00000000000E+00 -0.10000000000E+04  0.10000000000E+04  0.00000000000E+00 0.  1.
    9000005    2    1    2  501    0  0.43902913597E+02  0.89346158471E+00 -0.29212955962E+03  0.29542968686E+03  0.32796616431E+01 0.  0.
         13    1    3    3    0    0  0.28045763053E+02 -0.27693653840E+00 -0.17736189183E+03  0.17956581577E+03  0.00000000000E+00 0.  1.
          3    1    3    3  501    0  0.15857150544E+02  0.11703981231E+01 -0.11476766779E+03  0.11586387109E+03  0.00000000000E+00 0.  1.
         -1    1    1    2    0  502 -0.43902913597E+02 -0.89346158471E+00 -0.70553777677E+03  0.70690297675E+03  0.00000000000E+00 0. -1.
<mgrwt>
<rscale>  1 0.30000000E+03</rscale>
<asrwt>0</asrwt>
<pdfrwt beam="1">  1       21 0.84824310E-02 0.30000000E+03</pdfrwt>
<pdfrwt beam="2">0</pdfrwt>
<totfact> 0.11523225E+04</totfact>
</mgrwt>
</event>
<event>
 6    1  0.1274196E-001  0.3000000E+03  0.7818608E-02  0.1093470E+00
         21   -1    0    0  501  502  0.00000000000E+00  0.00000000000E+00  0.35289581454E+01  0.35289581454E+01  0.00000000000E+00 0. -1.
         13   -1    0    0    0    0 -0.00000000000E+00 -0.00000000000E+00 -0.10000000000E+04  0.10000000000E+04  0.00000000000E+00 0.  1.
    9000005    2    1    2  501    0 -0.35670220541E+02 -0.44876877720E+01 -0.89706231829E+03  0.89781898560E+03  0.81008660921E+01 0.  0.
         13    1    3    3    0    0 -0.58510124732E+01  0.16448813732E+01 -0.19973477625E+03  0.19982722744E+03  0.00000000000E+00 0.  1.
          3    1    3    3  501    0 -0.29819208068E+02 -0.61325691452E+01 -0.69732754204E+03  0.69799175816E+03  0.00000000000E+00 0.  1.
         -1    1    1    2    0  502  0.35670220541E+02  0.44876877720E+01 -0.99408723567E+02  0.10570997255E+03  0.00000000000E+00 0. -1.
<mgrwt>
<rscale>  1 0.30000000E+03</rscale>
<asrwt>0</asrwt>
<pdfrwt beam="1">  1       21 0.12832602E-01 0.30000000E+03</pdfrwt>
<pdfrwt beam="2">0</pdfrwt>
<totfact> 0.54847527E+03</totfact>
</mgrwt>
</event>
<event>
 6    1  0.1274196E-001  0.3000000E+03  0.7818608E-02  0.1093470E+00
         21   -1    0    0  501  502  0.00000000000E+00  0.00000000000E+00  0.13297391086E+01  0.13297391086E+01  0.00000000000E+00 0. -1.
         13   -1    0    0    0    0 -0.00000000000E+00 -0.00000000000E+00 -0.10000000000E+04  0.10000000000E+04  0.00000000000E+00 0.  1.
    9000005    2    1    2  501    0  0.13667605348E+02 -0.31694837331E+02 -0.64707316400E+03  0.64804248390E+03  0.80009513605E+01 0.  0.
         13    1    3    3    0    0  0.23114322686E+01 -0.29793201071E+01 -0.37888063497E+02  0.38075246854E+02  0.00000000000E+00 0.  1.
          1    1    3    3  501    0  0.11356173079E+02 -0.28715517224E+02 -0.60918510050E+03  0.60996723705E+03  0.00000000000E+00 0.  1.
         -3    1    1    2    0  502 -0.13667605348E+02  0.31694837331E+02 -0.35159709689E+03  0.35328725521E+03  0.00000000000E+00 0. -1.
<mgrwt>
<rscale>  1 0.30000000E+03</rscale>
<asrwt>0</asrwt>
<pdfrwt beam="1">  1       21 0.48354251E-02 0.30000000E+03</pdfrwt>
<pdfrwt beam="2">0</pdfrwt>
<totfact> 0.30494535E+04</totfact>
</mgrwt>
</event>
<event>
 6    1  0.1274196E-001  0.3000000E+03  0.7818608E-02  0.1093470E+00
         21   -1    0    0  501  502  0.00000000000E+00  0.00000000000E+00  0.49259742897E+01  0.49259742897E+01  0.00000000000E+00 0. -1.
         13   -1    0    0    0    0 -0.00000000000E+00 -0.00000000000E+00 -0.10000000000E+04  0.10000000000E+04  0.00000000000E+00 0.  1.
    9000005    2    1    2  501    0  0.54722847975E+02  0.60776328045E+01 -0.80894005806E+03  0.81081934992E+03  0.35317077154E+01 0.  0.
         13    1    3    3    0    0  0.36862128239E+02  0.43607669221E+01 -0.52075051159E+03  0.52207176529E+03  0.00000000000E+00 0.  1.
          1    1    3    3  501    0  0.17860719736E+02  0.17168658824E+01 -0.28818954647E+03  0.28874758463E+03  0.00000000000E+00 0.  1.
         -3    1    1    2    0  502 -0.54722847975E+02 -0.60776328045E+01 -0.18613396765E+03  0.19410662437E+03  0.00000000000E+00 0. -1.
<mgrwt>
<rscale>  1 0.30000000E+03</rscale>
<asrwt>0</asrwt>
<pdfrwt beam="1">  1       21 0.17912672E-01 0.30000000E+03</pdfrwt>
<pdfrwt beam="2">0</pdfrwt>
<totfact> 0.29565025E+03</totfact>
</mgrwt>
</event>
<event>
 6    1  0.1274196E-001  0.3000000E+03  0.7818608E-02  0.1093470E+00
         21   -1    0    0  501  502  0.00000000000E+00  0.00000000000E+00  0.63364637791E+01  0.63364637791E+01  0.00000000000E+00 0. -1.
         13   -1    0    0    0    0 -0.00000000000E+00 -0.00000000000E+00 -0.10000000000E+04  0.10000000000E+04  0.00000000000E+00 0.  1.
    9000005    2    1    2  501    0  0.16104854227E+02  0.63989940549E+02 -0.77802909538E+03  0.78083193855E+03  0.38941217717E+01 0.  0.
         13    1    3    3    0    0  0.10223282399E+02  0.47385550927E+02 -0.57634728406E+03  0.57838231109E+03  0.00000000000E+00 0.  1.
          3    1    3    3  501    0  0.58815718282E+01  0.16604389622E+02 -0.20168181132E+03  0.20244962746E+03  0.00000000000E+00 0.  1.
         -3    1    1    2    0  502 -0.16104854227E+02 -0.63989940549E+02 -0.21563444084E+03  0.22550452523E+03  0.00000000000E+00 0. -1.
<mgrwt>
<rscale>  1 0.30000000E+03</rscale>
<asrwt>0</asrwt>
<pdfrwt beam="1">  1       21 0.23041735E-01 0.30000000E+03</pdfrwt>
<pdfrwt beam="2">0</pdfrwt>
<totfact> 0.18278540E+03</totfact>
</mgrwt>
</event>
<event>
 6    1  0.1274196E-001  0.3000000E+03  0.7818608E-02  0.1093470E+00
         21   -1    0    0  501  502  0.00000000000E+00  0.00000000000E+00  0.44120579784E+01  0.44120579784E+01  0.00000000000E+00 0. -1.
         13   -1    0    0    0    0 -0.00000000000E+00 -0.00000000000E+00 -0.10000000000E+04  0.10000000000E+04  0.00000000000E+00 0.  1.
    9000005    2    1    2  501    0  0.24095665270E+02  0.38622946937E+02 -0.86336174744E+03  0.86456893284E+03  0.36877600839E+01 0.  0.
         13    1    3    3    0    0  0.18801514379E+02  0.30011196641E+02 -0.69911091521E+03  0.70000731470E+03  0.00000000000E+00 0.  1.
          1    1    3    3  501    0  0.52941508908E+01  0.86117502956E+01 -0.16425083223E+03  0.16456161814E+03  0.00000000000E+00 0.  1.
         -3    1    1    2    0  502 -0.24095665270E+02 -0.38622946937E+02 -0.13222619458E+03  0.13984312514E+03  0.00000000000E+00 0. -1.
<mgrwt>
<rscale>  1 0.30000000E+03</rscale>
<asrwt>0</asrwt>
<pdfrwt beam="1">  1       21 0.16043881E-01 0.30000000E+03</pdfrwt>
<pdfrwt beam="2">0</pdfrwt>
<totfact> 0.36340636E+03</totfact>
</mgrwt>
</event>
<event>
 6    1  0.1274196E-001  0.3000000E+03  0.7818608E-02  0.1093470E+00
         21   -1    0    0  501  502  0.00000000000E+00  0.00000000000E+00  0.26269323077E+01  0.26269323077E+01  0.00000000000E+00 0. -1.
         13   -1    0    0    0    0 -0.00000000000E+00 -0.00000000000E+00 -0.10000000000E+04  0.10000000000E+04  0.00000000000E+00 0.  1.
    9000005    2    1    2  501    0  0.30524307605E+02  0.11563393351E+01 -0.90109958889E+03  0.90162369872E+03  0.34284853437E+01 0.  0.
         13    1    3    3    0    0  0.79080908214E+01  0.86111985800E+00 -0.27777368158E+03  0.27788756289E+03  0.00000000000E+00 0.  1.
          1    1    3    3  501    0  0.22616216783E+02  0.29521947709E+00 -0.62332590731E+03  0.62373613583E+03  0.00000000000E+00 0.  1.
         -3    1    1    2    0  502 -0.30524307605E+02 -0.11563393351E+01 -0.96273478798E+02  0.10100323359E+03  0.00000000000E+00 0. -1.
<mgrwt>
<rscale>  1 0.30000000E+03</rscale>
<asrwt>0</asrwt>
<pdfrwt beam="1">  1       21 0.95525013E-02 0.30000000E+03</pdfrwt>
<pdfrwt beam="2">0</pdfrwt>
<totfact> 0.93355920E+03</totfact>
</mgrwt>
</event>
<event>
 6    1  0.1274196E-001  0.3000000E+03  0.7818608E-02  0.1093470E+00
         21   -1    0    0  501  502  0.00000000000E+00  0.00000000000E+00  0.11661408360E+01  0.11661408360E+01  0.00000000000E+00 0. -1.
         13   -1    0    0    0    0 -0.00000000000E+00 -0.00000000000E+00 -0.10000000000E+04  0.10000000000E+04  0.00000000000E+00 0.  1.
    9000005    2    1    2  501    0  0.29051302701E+02 -0.13355545490E+02 -0.67324979574E+03  0.67401582196E+03  0.31131987707E+01 0.  0.
         13    1    3    3    0    0  0.18710300098E+02 -0.82993162857E+01 -0.39922884873E+03  0.39975320842E+03  0.00000000000E+00 0.  1.
          3    1    3    3  501    0  0.10341002603E+02 -0.50562292040E+01 -0.27402094700E+03  0.27426261354E+03  0.00000000000E+00 0.  1.
         -1    1    1    2    0  502 -0.29051302701E+02  0.13355545490E+02 -0.32558406343E+03  0.32715031888E+03  0.00000000000E+00 0. -1.
<mgrwt>
<rscale>  1 0.30000000E+03</rscale>
<asrwt>0</asrwt>
<pdfrwt beam="1">  1       21 0.42405211E-02 0.30000000E+03</pdfrwt>
<pdfrwt beam="2">0</pdfrwt>
<totfact> 0.38103437E+04</totfact>
</mgrwt>
</event>
<event>
 6    1  0.1274196E-001  0.3000000E+03  0.7818608E-02  0.1093470E+00
         21   -1    0    0  501  502  0.00000000000E+00  0.00000000000E+00  0.16760760020E+01  0.16760760020E+01  0.00000000000E+00 0. -1.
         13   -1    0    0    0    0 -0.00000000000E+00 -0.00000000000E+00 -0.10000000000E+04  0.10000000000E+04  0.00000000000E+00 0.  1.
    9000005    2    1    2  501    0  0.14144044664E+02 -0.33319238367E+02 -0.73190597203E+03  0.73281040178E+03  0.38088603228E+01 0.  0.
         13    1    3    3    0    0  0.11133547877E+02 -0.21808720651E+02 -0.48331163678E+03  0.48393151833E+03  0.00000000000E+00 0.  1.
          1    1    3    3  501    0  0.30104967873E+01 -0.11510517716E+02 -0.24859433525E+03  0.24887888345E+03  0.00000000000E+00 0.  1.
         -3    1    1    2    0  502 -0.14144044664E+02  0.33319238367E+02 -0.26641795197E+03  0.26886567422E+03  0.00000000000E+00 0. -1.
<mgrwt>
<rscale>  1 0.30000000E+03</rscale>
<asrwt>0</asrwt>
<pdfrwt beam="1">  1       21 0.60948347E-02 0.30000000E+03</pdfrwt>
<pdfrwt beam="2">0</pdfrwt>
<totfact> 0.20509220E+04</totfact>
</mgrwt>
</event>
<event>
 6    1  0.1274196E-001  0.3000000E+03  0.7818608E-02  0.1093470E+00
         21   -1    0    0  501  502  0.00000000000E+00  0.00000000000E+00  0.26704533328E+01  0.26704533328E+01  0.00000000000E+00 0. -1.
         13   -1    0    0    0    0 -0.00000000000E+00 -0.00000000000E+00 -0.10000000000E+04  0.10000000000E+04  0.00000000000E+00 0.  1.
    9000005    2    1    2  501    0 -0.15833545065E+02 -0.34034728725E+02 -0.84300971922E+03  0.84385082907E+03  0.31258771872E+01 0.  0.
         13    1    3    3    0    0 -0.76195565740E+01 -0.16736686222E+02 -0.37819006404E+03  0.37863689578E+03  0.00000000000E+00 0.  1.
          3    1    3    3  501    0 -0.82139884910E+01 -0.17298042503E+02 -0.46481965518E+03  0.46521393329E+03  0.00000000000E+00 0.  1.
         -1    1    1    2    0  502  0.15833545065E+02  0.34034728725E+02 -0.15431982744E+03  0.15881962426E+03  0.00000000000E+00 0. -1.
<mgrwt>
<rscale>  1 0.30000000E+03</rscale>
<asrwt>0</asrwt>
<pdfrwt beam="1">  1       21 0.97107599E-02 0.30000000E+03</pdfrwt>
<pdfrwt beam="2">0</pdfrwt>
<totfact> 0.90660309E+03</totfact>
</mgrwt>
</event>
<event>
 6    1  0.1274196E-001  0.3000000E+03  0.7818608E-02  0.1093470E+00
         21   -1    0    0  501  502  0.00000000000E+00  0.00000000000E+00  0.20389863723E+01  0.20389863723E+01  0.00000000000E+00 0. -1.
         13   -1    0    0    0    0 -0.00000000000E+00 -0.00000000000E+00 -0.10000000000E+04  0.10000000000E+04  0.00000000000E+00 0.  1.
    9000005    2    1    2  501    0 -0.21089665431E+02 -0.32901018938E+02 -0.74924289738E+03  0.75026934486E+03  0.34524677907E+01 0.  0.
         13    1    3    3    0    0 -0.27683277364E+01 -0.67796676362E+01 -0.13621126515E+03  0.13640797735E+03  0.00000000000E+00 0.  1.
          1    1    3    3  501    0 -0.18321337695E+02 -0.26121351302E+02 -0.61303163223E+03  0.61386136751E+03  0.00000000000E+00 0.  1.
         -1    1    1    2    0  502  0.21089665431E+02  0.32901018938E+02 -0.24871811625E+03  0.25176964151E+03  0.00000000000E+00 0. -1.
<mgrwt>
<rscale>  1 0.30000000E+03</rscale>
<asrwt>0</asrwt>
<pdfrwt beam="1">  1       21 0.74145115E-02 0.30000000E+03</pdfrwt>
<pdfrwt beam="2">0</pdfrwt>
<totfact> 0.14594387E+04</totfact>
</mgrwt>
</event>
<event>
 6    1  0.1274196E-001  0.3000000E+03  0.7818608E-02  0.1093470E+00
         21   -1    0    0  501  502  0.00000000000E+00  0.00000000000E+00  0.17110076157E+01  0.17110076157E+01  0.00000000000E+00 0. -1.
         13   -1    0    0    0    0 -0.00000000000E+00 -0.00000000000E+00 -0.10000000000E+04  0.10000000000E+04  0.00000000000E+00 0.  1.
    9000005    2    1    2  501    0  0.20294803886E+02  0.27609393465E+02 -0.22135618798E+03  0.22402293376E+03  0.36817410283E+01 0.  0.
         13    1    3    3    0    0  0.16455966763E+01  0.93136342658E+00 -0.10443510830E+02  0.10613309791E+02  0.00000000000E+00 0.  1.
          3    1    3    3  501    0  0.18649207209E+02  0.26678030039E+02 -0.21091267715E+03  0.21340962396E+03  0.00000000000E+00 0.  1.
         -1    1    1    2    0  502 -0.20294803886E+02 -0.27609393465E+02 -0.77693280440E+03  0.77768807386E+03  0.00000000000E+00 0. -1.
<mgrwt>
<rscale>  1 0.30000000E+03</rscale>
<asrwt>0</asrwt>
<pdfrwt beam="1">  1       21 0.62218590E-02 0.30000000E+03</pdfrwt>
<pdfrwt beam="2">0</pdfrwt>
<totfact> 0.19791663E+04</totfact>
</mgrwt>
</event>
<event>
 6    1  0.1274196E-001  0.3000000E+03  0.7818608E-02  0.1093470E+00
         21   -1    0    0  501  502  0.00000000000E+00  0.00000000000E+00  0.14225987685E+01  0.14225987685E+01  0.00000000000E+00 0. -1.
         13   -1    0    0    0    0 -0.00000000000E+00 -0.00000000000E+00 -0.10000000000E+04  0.10000000000E+04  0.00000000000E+00 0.  1.
    9000005    2    1    2  501    0 -0.30914060119E+02 -0.19015198206E+02 -0.63284407378E+03  0.63389283985E+03  0.33546727849E+01 0.  0.
         13    1    3    3    0    0 -0.17920761499E+02 -0.12589695753E+02 -0.36397634216E+03  0.36463465521E+03  0.00000000000E+00 0.  1.
          1    1    3    3  501    0 -0.12993298620E+02 -0.64255024523E+01 -0.26886773162E+03  0.26925818464E+03  0.00000000000E+00 0.  1.
         -1    1    1    2    0  502  0.30914060119E+02  0.19015198206E+02 -0.36573332746E+03  0.36752975891E+03  0.00000000000E+00 0. -1.
<mgrwt>
<rscale>  1 0.30000000E+03</rscale>
<asrwt>0</asrwt>
<pdfrwt beam="1">  1       21 0.51730973E-02 0.30000000E+03</pdfrwt>
<pdfrwt beam="2">0</pdfrwt>
<totfact> 0.27179626E+04</totfact>
</mgrwt>
</event>
<event>
 6    1  0.1274196E-001  0.3000000E+03  0.7818608E-02  0.1093470E+00
         21   -1    0    0  501  502  0.00000000000E+00  0.00000000000E+00  0.19323530405E+01  0.19323530405E+01  0.00000000000E+00 0. -1.
         13   -1    0    0    0    0 -0.00000000000E+00 -0.00000000000E+00 -0.10000000000E+04  0.10000000000E+04  0.00000000000E+00 0.  1.
    9000005    2    1    2  501    0 -0.43727323613E+02  0.38563028464E+01 -0.50292846289E+03  0.50485111069E+03  0.32642413767E+01 0.  0.
         13    1    3    3    0    0 -0.27793300312E+02  0.16544410743E+01 -0.33406476594E+03  0.33522301914E+03  0.00000000000E+00 0.  1.
          3    1    3    3  501    0 -0.15934023301E+02  0.22018617720E+01 -0.16886369695E+03  0.16962809154E+03  0.00000000000E+00 0.  1.
         -3    1    1    2    0  502  0.43727323613E+02 -0.38563028464E+01 -0.49513918407E+03  0.49708124236E+03  0.00000000000E+00 0. -1.
<mgrwt>
<rscale>  1 0.30000000E+03</rscale>
<asrwt>0</asrwt>
<pdfrwt beam="1">  1       21 0.70267531E-02 0.30000000E+03</pdfrwt>
<pdfrwt beam="2">0</pdfrwt>
<totfact> 0.16028508E+04</totfact>
</mgrwt>
</event>
<event>
 6    1  0.1274196E-001  0.3000000E+03  0.7818608E-02  0.1093470E+00
         21   -1    0    0  501  502  0.00000000000E+00  0.00000000000E+00  0.45979559380E+01  0.45979559380E+01  0.00000000000E+00 0. -1.
         13   -1    0    0    0    0 -0.00000000000E+00 -0.00000000000E+00 -0.10000000000E+04  0.10000000000E+04  0.00000000000E+00 0.  1.
    9000005    2    1    2  501    0  0.21829169239E+02 -0.37019366388E+02 -0.88613875591E+03  0.88718666067E+03  0.33660121017E+01 0.  0.
         13    1    3    3    0    0  0.20730990507E+02 -0.34852736986E+02 -0.84960326838E+03  0.85057051494E+03  0.00000000000E+00 0.  1.
          3    1    3    3  501    0  0.10981787320E+01 -0.21666294024E+01 -0.36535487530E+02  0.36616145736E+02  0.00000000000E+00 0.  1.
         -3    1    1    2    0  502 -0.21829169239E+02  0.37019366388E+02 -0.10926328816E+03  0.11741129527E+03  0.00000000000E+00 0. -1.
<mgrwt>
<rscale>  1 0.30000000E+03</rscale>
<asrwt>0</asrwt>
<pdfrwt beam="1">  1       21 0.16719875E-01 0.30000000E+03</pdfrwt>
<pdfrwt beam="2">0</pdfrwt>
<totfact> 0.33645381E+03</totfact>
</mgrwt>
</event>
<event>
 6    1  0.1274196E-001  0.3000000E+03  0.7818608E-02  0.1093470E+00
         21   -1    0    0  501  502  0.00000000000E+00  0.00000000000E+00  0.28201870924E+01  0.28201870924E+01  0.00000000000E+00 0. -1.
         13   -1    0    0    0    0 -0.00000000000E+00 -0.00000000000E+00 -0.10000000000E+04  0.10000000000E+04  0.00000000000E+00 0.  1.
    9000005    2    1    2  501    0  0.27009928446E+02  0.15828328366E+02 -0.90353029875E+03  0.90407656089E+03  0.27120064430E+01 0.  0.
         13    1    3    3    0    0  0.24958064462E+02  0.15315315451E+02 -0.83281173705E+03  0.83332637858E+03  0.00000000000E+00 0.  1.
          3    1    3    3  501    0  0.20518639849E+01  0.51301291471E+00 -0.70718561700E+02  0.70750182311E+02  0.00000000000E+00 0.  1.
         -1    1    1    2    0  502 -0.27009928446E+02 -0.15828328366E+02 -0.93649514158E+02  0.98743626202E+02  0.00000000000E+00 0. -1.
<mgrwt>
<rscale>  1 0.30000000E+03</rscale>
<asrwt>0</asrwt>
<pdfrwt beam="1">  1       21 0.10255247E-01 0.30000000E+03</pdfrwt>
<pdfrwt beam="2">0</pdfrwt>
<totfact> 0.82240505E+03</totfact>
</mgrwt>
</event>
<event>
 6    1  0.1274196E-001  0.3000000E+03  0.7818608E-02  0.1093470E+00
         21   -1    0    0  501  502  0.00000000000E+00  0.00000000000E+00  0.13971100456E+01  0.13971100456E+01  0.00000000000E+00 0. -1.
         13   -1    0    0    0    0 -0.00000000000E+00 -0.00000000000E+00 -0.10000000000E+04  0.10000000000E+04  0.00000000000E+00 0.  1.
    9000005    2    1    2  501    0  0.23185247645E+02  0.28517101897E+02 -0.56442018206E+03  0.56566163450E+03  0.72223283486E+01 0.  0.
         13    1    3    3    0    0  0.18487772264E+02  0.26505578668E+02 -0.47931461347E+03  0.48040279153E+03  0.00000000000E+00 0.  1.
          1    1    3    3  501    0  0.46974753812E+01  0.20115232288E+01 -0.85105568581E+02  0.85258842968E+02  0.00000000000E+00 0.  1.
         -3    1    1    2    0  502 -0.23185247645E+02 -0.28517101897E+02 -0.43418270790E+03  0.43573547554E+03  0.00000000000E+00 0. -1.
<mgrwt>
<rscale>  1 0.30000000E+03</rscale>
<asrwt>0</asrwt>
<pdfrwt beam="1">  1       21 0.50804109E-02 0.30000000E+03</pdfrwt>
<pdfrwt beam="2">0</pdfrwt>
<totfact> 0.28031489E+04</totfact>
</mgrwt>
</event>
<event>
 6    1  0.1274196E-001  0.3000000E+03  0.7818608E-02  0.1093470E+00
         21   -1    0    0  501  502  0.00000000000E+00  0.00000000000E+00  0.23835640224E+01  0.23835640224E+01  0.00000000000E+00 0. -1.
         13   -1    0    0    0    0 -0.00000000000E+00 -0.00000000000E+00 -0.10000000000E+04  0.10000000000E+04  0.00000000000E+00 0.  1.
    9000005    2    1    2  501    0  0.40127904199E+02 -0.42263206507E+01 -0.78047214823E+03  0.78152217721E+03  0.34682607079E+01 0.  0.
         13    1    3    3    0    0  0.17098785421E+02 -0.34567125097E+01 -0.32691090078E+03  0.32737601374E+03  0.00000000000E+00 0.  1.
          3    1    3    3  501    0  0.23029118778E+02 -0.76960814097E+00 -0.45356124745E+03  0.45414616348E+03  0.00000000000E+00 0.  1.
         -1    1    1    2    0  502 -0.40127904199E+02  0.42263206507E+01 -0.21714428775E+03  0.22086138681E+03  0.00000000000E+00 0. -1.
<mgrwt>
<rscale>  1 0.30000000E+03</rscale>
<asrwt>0</asrwt>
<pdfrwt beam="1">  1       21 0.86675238E-02 0.30000000E+03</pdfrwt>
<pdfrwt beam="2">0</pdfrwt>
<totfact> 0.11092568E+04</totfact>
</mgrwt>
</event>
<event>
 6    1  0.1274196E-001  0.3000000E+03  0.7818608E-02  0.1093470E+00
         21   -1    0    0  501  502  0.00000000000E+00  0.00000000000E+00  0.14102412325E+01  0.14102412325E+01  0.00000000000E+00 0. -1.
         13   -1    0    0    0    0 -0.00000000000E+00 -0.00000000000E+00 -0.10000000000E+04  0.10000000000E+04  0.00000000000E+00 0.  1.
    9000005    2    1    2  501    0 -0.29597924608E+02 -0.11221815033E+02 -0.24763229197E+03  0.24978594466E+03  0.83246528384E+01 0.  0.
         13    1    3    3    0    0 -0.73440876538E+01 -0.55593628416E+01 -0.93483919054E+02  0.93936602346E+02  0.00000000000E+00 0.  1.
          3    1    3    3  501    0 -0.22253836954E+02 -0.56624521915E+01 -0.15414837292E+03  0.15584934231E+03  0.00000000000E+00 0.  1.
         -3    1    1    2    0  502  0.29597924608E+02  0.11221815033E+02 -0.75095746679E+03  0.75162429658E+03  0.00000000000E+00 0. -1.
<mgrwt>
<rscale>  1 0.30000000E+03</rscale>
<asrwt>0</asrwt>
<pdfrwt beam="1">  1       21 0.51281608E-02 0.30000000E+03</pdfrwt>
<pdfrwt beam="2">0</pdfrwt>
<totfact> 0.27587531E+04</totfact>
</mgrwt>
</event>
<event>
 6    1  0.1274196E-001  0.3000000E+03  0.7818608E-02  0.1093470E+00
         21   -1    0    0  501  502  0.00000000000E+00  0.00000000000E+00  0.10684169072E+02  0.10684169072E+02  0.00000000000E+00 0. -1.
         13   -1    0    0    0    0 -0.00000000000E+00 -0.00000000000E+00 -0.10000000000E+04  0.10000000000E+04  0.00000000000E+00 0.  1.
    9000005    2    1    2  501    0 -0.45344833207E+02 -0.85259187449E+02 -0.67476189803E+03  0.68164092018E+03  0.23328269384E+01 0.  0.
         13    1    3    3    0    0 -0.17921920693E+02 -0.32524933363E+02 -0.25249900202E+03  0.25521522790E+03  0.00000000000E+00 0.  1.
          1    1    3    3  501    0 -0.27422912515E+02 -0.52734254085E+02 -0.42226289601E+03  0.42642569228E+03  0.00000000000E+00 0.  1.
         -3    1    1    2    0  502  0.45344833207E+02  0.85259187449E+02 -0.31455393289E+03  0.32904324889E+03  0.00000000000E+00 0. -1.
<mgrwt>
<rscale>  1 0.30000000E+03</rscale>
<asrwt>0</asrwt>
<pdfrwt beam="1">  1       21 0.38851606E-01 0.30000000E+03</pdfrwt>
<pdfrwt beam="2">0</pdfrwt>
<totfact> 0.64178933E+02</totfact>
</mgrwt>
</event>
<event>
 6    1  0.1274196E-001  0.3000000E+03  0.7818608E-02  0.1093470E+00
         21   -1    0    0  501  502  0.00000000000E+00  0.00000000000E+00  0.18937927851E+01  0.18937927851E+01  0.00000000000E+00 0. -1.
         13   -1    0    0    0    0 -0.00000000000E+00 -0.00000000000E+00 -0.10000000000E+04  0.10000000000E+04  0.00000000000E+00 0.  1.
    9000005    2    1    2  501    0  0.87296452992E+01  0.29976318456E+02 -0.84645228766E+03  0.84705937254E+03  0.73019828515E+01 0.  0.
         13    1    3    3    0    0  0.66419373284E+01  0.28537336749E+02 -0.74619560535E+03  0.74677063170E+03  0.00000000000E+00 0.  1.
          3    1    3    3  501    0  0.20877079708E+01  0.14389817073E+01 -0.10025668230E+03  0.10028874084E+03  0.00000000000E+00 0.  1.
         -1    1    1    2    0  502 -0.87296452992E+01 -0.29976318456E+02 -0.15165391956E+03  0.15483442025E+03  0.00000000000E+00 0. -1.
<mgrwt>
<rscale>  1 0.30000000E+03</rscale>
<asrwt>0</asrwt>
<pdfrwt beam="1">  1       21 0.68865337E-02 0.30000000E+03</pdfrwt>
<pdfrwt beam="2">0</pdfrwt>
<totfact> 0.16600473E+04</totfact>
</mgrwt>
</event>
<event>
 6    1  0.1274196E-001  0.3000000E+03  0.7818608E-02  0.1093470E+00
         21   -1    0    0  501  502  0.00000000000E+00  0.00000000000E+00  0.11152263070E+01  0.11152263070E+01  0.00000000000E+00 0. -1.
         13   -1    0    0    0    0 -0.00000000000E+00 -0.00000000000E+00 -0.10000000000E+04  0.10000000000E+04  0.00000000000E+00 0.  1.
    9000005    2    1    2  501    0 -0.26198793245E+02  0.16079427056E+02 -0.30919399880E+03  0.31073975620E+03  0.36527321688E+01 0.  0.
         13    1    3    3    0    0 -0.18054107978E+02  0.10774457683E+02 -0.22753338571E+03  0.22850269444E+03  0.00000000000E+00 0.  1.
          1    1    3    3  501    0 -0.81446852670E+01  0.53049693727E+01 -0.81660613083E+02  0.82237061762E+02  0.00000000000E+00 0.  1.
         -1    1    1    2    0  502  0.26198793245E+02 -0.16079427056E+02 -0.68969077490E+03  0.69037547010E+03  0.00000000000E+00 0. -1.
<mgrwt>
<rscale>  1 0.30000000E+03</rscale>
<asrwt>0</asrwt>
<pdfrwt beam="1">  1       21 0.40553769E-02 0.30000000E+03</pdfrwt>
<pdfrwt beam="2">0</pdfrwt>
<totfact> 0.41084599E+04</totfact>
</mgrwt>
</event>
<event>
 6    1  0.1274196E-001  0.3000000E+03  0.7818608E-02  0.1093470E+00
         21   -1    0    0  501  502  0.00000000000E+00  0.00000000000E+00  0.45877253056E+01  0.45877253056E+01  0.00000000000E+00 0. -1.
         13   -1    0    0    0    0 -0.00000000000E+00 -0.00000000000E+00 -0.10000000000E+04  0.10000000000E+04  0.00000000000E+00 0.  1.
    9000005    2    1    2  501    0 -0.32745865886E+02  0.95438310839E+01 -0.93160703155E+03  0.93223798103E+03  0.35518434853E+01 0.  0.
         13    1    3    3    0    0 -0.27597313840E+02  0.76682795372E+01 -0.81308735047E+03  0.81359169965E+03  0.00000000000E+00 0.  1.
          1    1    3    3  501    0 -0.51485520461E+01  0.18755515467E+01 -0.11851968108E+03  0.11864628138E+03  0.00000000000E+00 0.  1.
         -3    1    1    2    0  502  0.32745865886E+02 -0.95438310839E+01 -0.63805243142E+02  0.72349744275E+02  0.00000000000E+00 0. -1.
<mgrwt>
<rscale>  1 0.30000000E+03</rscale>
<asrwt>0</asrwt>
<pdfrwt beam="1">  1       21 0.16682673E-01 0.30000000E+03</pdfrwt>
<pdfrwt beam="2">0</pdfrwt>
<totfact> 0.33785830E+03</totfact>
</mgrwt>
</event>
<event>
 6    1  0.1274196E-001  0.3000000E+03  0.7818608E-02  0.1093470E+00
         21   -1    0    0  501  502  0.00000000000E+00  0.00000000000E+00  0.50847649673E+01  0.50847649673E+01  0.00000000000E+00 0. -1.
         13   -1    0    0    0    0 -0.00000000000E+00 -0.00000000000E+00 -0.10000000000E+04  0.10000000000E+04  0.00000000000E+00 0.  1.
    9000005    2    1    2  501    0 -0.43250547179E+02  0.46544851518E+02 -0.72523932456E+03  0.72802497048E+03  0.33536121508E+01 0.  0.
         13    1    3    3    0    0 -0.29927909441E+02  0.33830319018E+02 -0.50302087922E+03  0.50504472592E+03  0.00000000000E+00 0.  1.
          3    1    3    3  501    0 -0.13322637739E+02  0.12714532500E+02 -0.22221844534E+03  0.22298024455E+03  0.00000000000E+00 0.  1.
         -3    1    1    2    0  502  0.43250547179E+02 -0.46544851518E+02 -0.26967591047E+03  0.27705979449E+03  0.00000000000E+00 0. -1.
<mgrwt>
<rscale>  1 0.30000000E+03</rscale>
<asrwt>0</asrwt>
<pdfrwt beam="1">  1       21 0.18490093E-01 0.30000000E+03</pdfrwt>
<pdfrwt beam="2">0</pdfrwt>
<totfact> 0.27848102E+03</totfact>
</mgrwt>
</event>
<event>
 6    1  0.1274196E-001  0.3000000E+03  0.7818608E-02  0.1093470E+00
         21   -1    0    0  501  502  0.00000000000E+00  0.00000000000E+00  0.20187443981E+01  0.20187443981E+01  0.00000000000E+00 0. -1.
         13   -1    0    0    0    0 -0.00000000000E+00 -0.00000000000E+00 -0.10000000000E+04  0.10000000000E+04  0.00000000000E+00 0.  1.
    9000005    2    1    2  501    0  0.29565011423E+02  0.13501266500E+02 -0.84316227538E+03  0.84382490528E+03  0.78405389971E+01 0.  0.
         13    1    3    3    0    0  0.29613577920E+02  0.12935340265E+02 -0.79137880194E+03  0.79203831674E+03  0.00000000000E+00 0.  1.
          3    1    3    3  501    0 -0.48566497608E-01  0.56592623510E+00 -0.51783473437E+02  0.51786588538E+02  0.00000000000E+00 0.  1.
         -1    1    1    2    0  502 -0.29565011423E+02 -0.13501266500E+02 -0.15481898022E+03  0.15819383912E+03  0.00000000000E+00 0. -1.
<mgrwt>
<rscale>  1 0.30000000E+03</rscale>
<asrwt>0</asrwt>
<pdfrwt beam="1">  1       21 0.73409042E-02 0.30000000E+03</pdfrwt>
<pdfrwt beam="2">0</pdfrwt>
<totfact> 0.14851229E+04</totfact>
</mgrwt>
</event>
<event>
 6    1  0.1274196E-001  0.3000000E+03  0.7818608E-02  0.1093470E+00
         21   -1    0    0  501  502  0.00000000000E+00  0.00000000000E+00  0.37441696500E+01  0.37441696500E+01  0.00000000000E+00 0. -1.
         13   -1    0    0    0    0 -0.00000000000E+00 -0.00000000000E+00 -0.10000000000E+04  0.10000000000E+04  0.00000000000E+00 0.  1.
    9000005    2    1    2  501    0  0.37771484919E+02 -0.33406809516E+02 -0.78224045606E+03  0.78386856748E+03  0.26645823328E+01 0.  0.
         13    1    3    3    0    0  0.57387987342E+01 -0.55039338543E+01 -0.13823992242E+03  0.13846841969E+03  0.00000000000E+00 0.  1.
          3    1    3    3  501    0  0.32032686185E+02 -0.27902875662E+02 -0.64400053364E+03  0.64540014780E+03  0.00000000000E+00 0.  1.
         -3    1    1    2    0  502 -0.37771484919E+02  0.33406809516E+02 -0.21401537429E+03  0.21987560217E+03  0.00000000000E+00 0. -1.
<mgrwt>
<rscale>  1 0.30000000E+03</rscale>
<asrwt>0</asrwt>
<pdfrwt beam="1">  1       21 0.13615191E-01 0.30000000E+03</pdfrwt>
<pdfrwt beam="2">0</pdfrwt>
<totfact> 0.49220825E+03</totfact>
</mgrwt>
</event>
<event>
 6    1  0.1274196E-001  0.3000000E+03  0.7818608E-02  0.1093470E+00
         21   -1    0    0  501  502  0.00000000000E+00  0.00000000000E+00  0.13823141274E+01  0.13823141274E+01  0.00000000000E+00 0. -1.
         13   -1    0    0    0    0 -0.00000000000E+00 -0.00000000000E+00 -0.10000000000E+04  0.10000000000E+04  0.00000000000E+00 0.  1.
    9000005    2    1    2  501    0 -0.31482562793E+02  0.18068435327E+02 -0.60467751949E+03  0.60577332180E+03  0.29655895555E+01 0.  0.
         13    1    3    3    0    0 -0.26591147169E+02  0.16108463390E+02 -0.50399296037E+03  0.50495096376E+03  0.00000000000E+00 0.  1.
          1    1    3    3  501    0 -0.48914156240E+01  0.19599719367E+01 -0.10068455911E+03  0.10082235804E+03  0.00000000000E+00 0.  1.
         -1    1    1    2    0  502  0.31482562793E+02 -0.18068435327E+02 -0.39394016639E+03  0.39560899232E+03  0.00000000000E+00 0. -1.
<mgrwt>
<rscale>  1 0.30000000E+03</rscale>
<asrwt>0</asrwt>
<pdfrwt beam="1">  1       21 0.50266074E-02 0.30000000E+03</pdfrwt>
<pdfrwt beam="2">0</pdfrwt>
<totfact> 0.28545183E+04</totfact>
</mgrwt>
</event>
<event>
 6    1  0.1274196E-001  0.3000000E+03  0.7818608E-02  0.1093470E+00
         21   -1    0    0  501  502  0.00000000000E+00  0.00000000000E+00  0.42528384042E+01  0.42528384042E+01  0.00000000000E+00 0. -1.
         13   -1    0    0    0    0 -0.00000000000E+00 -0.00000000000E+00 -0.10000000000E+04  0.10000000000E+04  0.00000000000E+00 0.  1.
    9000005    2    1    2  501    0  0.43025990147E+02 -0.26313931461E+02 -0.81426347103E+03  0.81589151340E+03  0.10502502665E+02 0.  0.
         13    1    3    3    0    0  0.37826864915E+02 -0.24411121282E+02 -0.76371232828E+03  0.76503810030E+03  0.00000000000E+00 0.  1.
          3    1    3    3  501    0  0.51991252327E+01 -0.19028101794E+01 -0.50551142751E+02  0.50853413093E+02  0.00000000000E+00 0.  1.
         -3    1    1    2    0  502 -0.43025990147E+02  0.26313931461E+02 -0.18148369056E+03  0.18836132501E+03  0.00000000000E+00 0. -1.
<mgrwt>
<rscale>  1 0.30000000E+03</rscale>
<asrwt>0</asrwt>
<pdfrwt beam="1">  1       21 0.15464900E-01 0.30000000E+03</pdfrwt>
<pdfrwt beam="2">0</pdfrwt>
<totfact> 0.38914240E+03</totfact>
</mgrwt>
</event>
<event>
 6    1  0.1274196E-001  0.3000000E+03  0.7818608E-02  0.1093470E+00
         21   -1    0    0  501  502  0.00000000000E+00  0.00000000000E+00  0.12959892487E+01  0.12959892487E+01  0.00000000000E+00 0. -1.
         13   -1    0    0    0    0 -0.00000000000E+00 -0.00000000000E+00 -0.10000000000E+04  0.10000000000E+04  0.00000000000E+00 0.  1.
    9000005    2    1    2  501    0  0.24403556436E+02 -0.22240328476E+02 -0.69710629462E+03  0.69789633837E+03  0.34564916575E+01 0.  0.
         13    1    3    3    0    0  0.14051394707E+02 -0.11115556001E+02 -0.40196498928E+03  0.40236407629E+03  0.00000000000E+00 0.  1.
          3    1    3    3  501    0  0.10352161729E+02 -0.11124772474E+02 -0.29514130534E+03  0.29553226208E+03  0.00000000000E+00 0.  1.
         -3    1    1    2    0  502 -0.24403556436E+02  0.22240328476E+02 -0.30159771613E+03  0.30339965088E+03  0.00000000000E+00 0. -1.
<mgrwt>
<rscale>  1 0.30000000E+03</rscale>
<asrwt>0</asrwt>
<pdfrwt beam="1">  1       21 0.47126981E-02 0.30000000E+03</pdfrwt>
<pdfrwt beam="2">0</pdfrwt>
<totfact> 0.31857847E+04</totfact>
</mgrwt>
</event>
<event>
 6    1  0.1274196E-001  0.3000000E+03  0.7818608E-02  0.1093470E+00
         21   -1    0    0  501  502  0.00000000000E+00  0.00000000000E+00  0.18701850108E+01  0.18701850108E+01  0.00000000000E+00 0. -1.
         13   -1    0    0    0    0 -0.00000000000E+00 -0.00000000000E+00 -0.10000000000E+04  0.10000000000E+04  0.00000000000E+00 0.  1.
    9000005    2    1    2  501    0  0.28357695019E+02 -0.31328343656E+02 -0.59862925772E+03  0.60014102346E+03  0.51609937653E+01 0.  0.
         13    1    3    3    0    0  0.16880634230E+02 -0.15179512861E+02 -0.30411984857E+03  0.30496599109E+03  0.00000000000E+00 0.  1.
          3    1    3    3  501    0  0.11477060789E+02 -0.16148830795E+02 -0.29450940915E+03  0.29517503237E+03  0.00000000000E+00 0.  1.
         -3    1    1    2    0  502 -0.28357695019E+02  0.31328343656E+02 -0.39950055727E+03  0.40172916155E+03  0.00000000000E+00 0. -1.
<mgrwt>
<rscale>  1 0.30000000E+03</rscale>
<asrwt>0</asrwt>
<pdfrwt beam="1">  1       21 0.68006871E-02 0.30000000E+03</pdfrwt>
<pdfrwt beam="2">0</pdfrwt>
<totfact> 0.16966219E+04</totfact>
</mgrwt>
</event>
<event>
 6    1  0.1274196E-001  0.3000000E+03  0.7818608E-02  0.1093470E+00
         21   -1    0    0  501  502  0.00000000000E+00  0.00000000000E+00  0.12002976662E+01  0.12002976662E+01  0.00000000000E+00 0. -1.
         13   -1    0    0    0    0 -0.00000000000E+00 -0.00000000000E+00 -0.10000000000E+04  0.10000000000E+04  0.00000000000E+00 0.  1.
    9000005    2    1    2  501    0 -0.32185718318E+02  0.98200559760E+01 -0.61454535118E+03  0.61547531747E+03  0.33946724091E+01 0.  0.
         13    1    3    3    0    0 -0.14876963587E+02  0.27760721670E+01 -0.27632954101E+03  0.27674364646E+03  0.00000000000E+00 0.  1.
          1    1    3    3  501    0 -0.17308754731E+02  0.70439838090E+01 -0.33821581017E+03  0.33873167101E+03  0.00000000000E+00 0.  1.
         -3    1    1    2    0  502  0.32185718318E+02 -0.98200559760E+01 -0.38425435116E+03  0.38572498019E+03  0.00000000000E+00 0. -1.
<mgrwt>
<rscale>  1 0.30000000E+03</rscale>
<asrwt>0</asrwt>
<pdfrwt beam="1">  1       21 0.43647280E-02 0.30000000E+03</pdfrwt>
<pdfrwt beam="2">0</pdfrwt>
<totfact> 0.36287655E+04</totfact>
</mgrwt>
</event>
<event>
 6    1  0.1274196E-001  0.3000000E+03  0.7818608E-02  0.1093470E+00
         21   -1    0    0  501  502  0.00000000000E+00  0.00000000000E+00  0.27827386983E+01  0.27827386983E+01  0.00000000000E+00 0. -1.
         13   -1    0    0    0    0 -0.00000000000E+00 -0.00000000000E+00 -0.10000000000E+04  0.10000000000E+04  0.00000000000E+00 0.  1.
    9000005    2    1    2  501    0 -0.37651641410E+02 -0.12825341923E+02 -0.82765070948E+03  0.82861342167E+03  0.35171263964E+01 0.  0.
         13    1    3    3    0    0 -0.25085845119E+02 -0.71294884857E+01 -0.56172320531E+03  0.56232827478E+03  0.00000000000E+00 0.  1.
          1    1    3    3  501    0 -0.12565796291E+02 -0.56958534376E+01 -0.26592750416E+03  0.26628514689E+03  0.00000000000E+00 0.  1.
         -3    1    1    2    0  502  0.37651641410E+02  0.12825341923E+02 -0.16956655182E+03  0.17416931703E+03  0.00000000000E+00 0. -1.
<mgrwt>
<rscale>  1 0.30000000E+03</rscale>
<asrwt>0</asrwt>
<pdfrwt beam="1">  1       21 0.10119071E-01 0.30000000E+03</pdfrwt>
<pdfrwt beam="2">0</pdfrwt>
<totfact> 0.84230837E+03</totfact>
</mgrwt>
</event>
<event>
 6    1  0.1274196E-001  0.3000000E+03  0.7818608E-02  0.1093470E+00
         21   -1    0    0  501  502  0.00000000000E+00  0.00000000000E+00  0.15657157550E+01  0.15657157550E+01  0.00000000000E+00 0. -1.
         13   -1    0    0    0    0 -0.00000000000E+00 -0.00000000000E+00 -0.10000000000E+04  0.10000000000E+04  0.00000000000E+00 0.  1.
    9000005    2    1    2  501    0 -0.32529490144E+02 -0.12921304989E+01 -0.78332096714E+03  0.78400290523E+03  0.29967495873E+01 0.  0.
         13    1    3    3    0    0 -0.25960679010E+02 -0.17399152838E-01 -0.60641553372E+03  0.60697096857E+03  0.00000000000E+00 0.  1.
          1    1    3    3  501    0 -0.65688111340E+01 -0.12747313461E+01 -0.17690543343E+03  0.17703193665E+03  0.00000000000E+00 0.  1.
         -3    1    1    2    0  502  0.32529490144E+02  0.12921304989E+01 -0.21511331710E+03  0.21756281053E+03  0.00000000000E+00 0. -1.
<mgrwt>
<rscale>  1 0.30000000E+03</rscale>
<asrwt>0</asrwt>
<pdfrwt beam="1">  1       21 0.56935238E-02 0.30000000E+03</pdfrwt>
<pdfrwt beam="2">0</pdfrwt>
<totfact> 0.23063298E+04</totfact>
</mgrwt>
</event>
<event>
 6    1  0.1274196E-001  0.3000000E+03  0.7818608E-02  0.1093470E+00
         21   -1    0    0  501  502  0.00000000000E+00  0.00000000000E+00  0.44469264695E+01  0.44469264695E+01  0.00000000000E+00 0. -1.
         13   -1    0    0    0    0 -0.00000000000E+00 -0.00000000000E+00 -0.10000000000E+04  0.10000000000E+04  0.00000000000E+00 0.  1.
    9000005    2    1    2  501    0  0.33090450885E+02  0.49019891879E+02 -0.26685558152E+03  0.27335325080E+03  0.34886380940E+01 0.  0.
         13    1    3    3    0    0  0.12053298439E+02  0.20221668779E+02 -0.10117126384E+03  0.10387407048E+03  0.00000000000E+00 0.  1.
          1    1    3    3  501    0  0.21037152445E+02  0.28798223100E+02 -0.16568431768E+03  0.16947918032E+03  0.00000000000E+00 0.  1.
         -1    1    1    2    0  502 -0.33090450885E+02 -0.49019891879E+02 -0.72869749201E+03  0.73109367567E+03  0.00000000000E+00 0. -1.
<mgrwt>
<rscale>  1 0.30000000E+03</rscale>
<asrwt>0</asrwt>
<pdfrwt beam="1">  1       21 0.16170676E-01 0.30000000E+03</pdfrwt>
<pdfrwt beam="2">0</pdfrwt>
<totfact> 0.35811063E+03</totfact>
</mgrwt>
</event>
<event>
 6    1  0.1274196E-001  0.3000000E+03  0.7818608E-02  0.1093470E+00
         21   -1    0    0  501  502  0.00000000000E+00  0.00000000000E+00  0.14638159925E+01  0.14638159925E+01  0.00000000000E+00 0. -1.
         13   -1    0    0    0    0 -0.00000000000E+00 -0.00000000000E+00 -0.10000000000E+04  0.10000000000E+04  0.00000000000E+00 0.  1.
    9000005    2    1    2  501    0  0.12357080779E+02  0.30021721743E+02 -0.76142810032E+03  0.76214343539E+03  0.59885665327E+01 0.  0.
         13    1    3    3    0    0  0.10324872339E+02  0.25090941572E+02 -0.57602215688E+03  0.57666080459E+03  0.00000000000E+00 0.  1.
          3    1    3    3  501    0  0.20322084403E+01  0.49307801711E+01 -0.18540594345E+03  0.18548263081E+03  0.00000000000E+00 0.  1.
         -3    1    1    2    0  502 -0.12357080779E+02 -0.30021721743E+02 -0.23710808368E+03  0.23932038060E+03  0.00000000000E+00 0. -1.
<mgrwt>
<rscale>  1 0.30000000E+03</rscale>
<asrwt>0</asrwt>
<pdfrwt beam="1">  1       21 0.53229785E-02 0.30000000E+03</pdfrwt>
<pdfrwt beam="2">0</pdfrwt>
<totfact> 0.25884603E+04</totfact>
</mgrwt>
</event>
<event>
 6    1  0.1274196E-001  0.3000000E+03  0.7818608E-02  0.1093470E+00
         21   -1    0    0  501  502  0.00000000000E+00  0.00000000000E+00  0.14439669974E+01  0.14439669974E+01  0.00000000000E+00 0. -1.
         13   -1    0    0    0    0 -0.00000000000E+00 -0.00000000000E+00 -0.10000000000E+04  0.10000000000E+04  0.00000000000E+00 0.  1.
    9000005    2    1    2  501    0 -0.33456548564E+02 -0.17885309189E+02 -0.49824235557E+03  0.49969402853E+03  0.30744653828E+01 0.  0.
         13    1    3    3    0    0 -0.16709763485E+02 -0.85490250486E+01 -0.26617228820E+03  0.26683326072E+03  0.00000000000E+00 0.  1.
          1    1    3    3  501    0 -0.16746785079E+02 -0.93362841404E+01 -0.23207006737E+03  0.23286076780E+03  0.00000000000E+00 0.  1.
         -3    1    1    2    0  502  0.33456548564E+02  0.17885309189E+02 -0.50031367744E+03  0.50174993847E+03  0.00000000000E+00 0. -1.
<mgrwt>
<rscale>  1 0.30000000E+03</rscale>
<asrwt>0</asrwt>
<pdfrwt beam="1">  1       21 0.52508002E-02 0.30000000E+03</pdfrwt>
<pdfrwt beam="2">0</pdfrwt>
<totfact> 0.26496029E+04</totfact>
</mgrwt>
</event>
<event>
 6    1  0.1274196E-001  0.3000000E+03  0.7818608E-02  0.1093470E+00
         21   -1    0    0  501  502  0.00000000000E+00  0.00000000000E+00  0.12796390595E+01  0.12796390595E+01  0.00000000000E+00 0. -1.
         13   -1    0    0    0    0 -0.00000000000E+00 -0.00000000000E+00 -0.10000000000E+04  0.10000000000E+04  0.00000000000E+00 0.  1.
    9000005    2    1    2  501    0 -0.64001267555E+00  0.30315985622E+02 -0.76405337487E+03  0.76466167070E+03  0.32314675868E+01 0.  0.
         13    1    3    3    0    0 -0.19164779927E+01  0.14960375327E+02 -0.37237187063E+03  0.37267720047E+03  0.00000000000E+00 0.  1.
          1    1    3    3  501    0  0.12764653172E+01  0.15355610295E+02 -0.39168150425E+03  0.39198447023E+03  0.00000000000E+00 0.  1.
         -1    1    1    2    0  502  0.64001267555E+00 -0.30315985622E+02 -0.23466698607E+03  0.23661796836E+03  0.00000000000E+00 0. -1.
<mgrwt>
<rscale>  1 0.30000000E+03</rscale>
<asrwt>0</asrwt>
<pdfrwt beam="1">  1       21 0.46532428E-02 0.30000000E+03</pdfrwt>
<pdfrwt beam="2">0</pdfrwt>
<totfact> 0.32552930E+04</totfact>
</mgrwt>
</event>
<event>
 6    1  0.1274196E-001  0.3000000E+03  0.7818608E-02  0.1093470E+00
         21   -1    0    0  501  502  0.00000000000E+00  0.00000000000E+00  0.13836275691E+01  0.13836275691E+01  0.00000000000E+00 0. -1.
         13   -1    0    0    0    0 -0.00000000000E+00 -0.00000000000E+00 -0.10000000000E+04  0.10000000000E+04  0.00000000000E+00 0.  1.
    9000005    2    1    2  501    0  0.35522243898E+01 -0.35958548553E+02 -0.41350874661E+03  0.41516134097E+03  0.79887421208E+01 0.  0.
         13    1    3    3    0    0 -0.61056887115E+00 -0.24863209316E+02 -0.25487351925E+03  0.25608409319E+03  0.00000000000E+00 0.  1.
          3    1    3    3  501    0  0.41627932610E+01 -0.11095339237E+02 -0.15863522736E+03  0.15907724777E+03  0.00000000000E+00 0.  1.
         -1    1    1    2    0  502 -0.35522243898E+01  0.35958548553E+02 -0.58510762582E+03  0.58622228660E+03  0.00000000000E+00 0. -1.
<mgrwt>
<rscale>  1 0.30000000E+03</rscale>
<asrwt>0</asrwt>
<pdfrwt beam="1">  1       21 0.50313836E-02 0.30000000E+03</pdfrwt>
<pdfrwt beam="2">0</pdfrwt>
<totfact> 0.28498992E+04</totfact>
</mgrwt>
</event>
<event>
 6    1  0.1274196E-001  0.3000000E+03  0.7818608E-02  0.1093470E+00
         21   -1    0    0  501  502  0.00000000000E+00  0.00000000000E+00  0.30732645448E+01  0.30732645448E+01  0.00000000000E+00 0. -1.
         13   -1    0    0    0    0 -0.00000000000E+00 -0.00000000000E+00 -0.10000000000E+04  0.10000000000E+04  0.00000000000E+00 0.  1.
    9000005    2    1    2  501    0 -0.41267703738E+02  0.24247867846E+02 -0.25413199103E+03  0.25873798067E+03  0.84434182868E+01 0.  0.
         13    1    3    3    0    0 -0.38047853337E+02  0.23429205509E+02 -0.24449201523E+03  0.24854157062E+03  0.00000000000E+00 0.  1.
          3    1    3    3  501    0 -0.32198504007E+01  0.81866233708E+00 -0.96399757983E+01  0.10196410055E+02  0.00000000000E+00 0.  1.
         -3    1    1    2    0  502  0.41267703738E+02 -0.24247867846E+02 -0.74279474443E+03  0.74433528387E+03  0.00000000000E+00 0. -1.
<mgrwt>
<rscale>  1 0.30000000E+03</rscale>
<asrwt>0</asrwt>
<pdfrwt beam="1">  1       21 0.11175531E-01 0.30000000E+03</pdfrwt>
<pdfrwt beam="2">0</pdfrwt>
<totfact> 0.70482404E+03</totfact>
</mgrwt>
</event>
<event>
 6    1  0.1274196E-001  0.3000000E+03  0.7818608E-02  0.1093470E+00
         21   -1    0    0  501  502  0.00000000000E+00  0.00000000000E+00  0.12772808261E+01  0.12772808261E+01  0.00000000000E+00 0. -1.
         13   -1    0    0    0    0 -0.00000000000E+00 -0.00000000000E+00 -0.10000000000E+04  0.10000000000E+04  0.00000000000E+00 0.  1.
    9000005    2    1    2  501    0  0.20779223286E+02 -0.21707884092E+02 -0.76820432217E+03  0.76880848785E+03  0.50598450710E+01 0.  0.
         13    1    3    3    0    0  0.24266602183E+01 -0.15308411212E+01 -0.11352024934E+03  0.11355650208E+03  0.00000000000E+00 0.  1.
          3    1    3    3  501    0  0.18352563068E+02 -0.20177042971E+02 -0.65468407283E+03  0.65525198577E+03  0.00000000000E+00 0.  1.
         -1    1    1    2    0  502 -0.20779223286E+02  0.21707884092E+02 -0.23051839701E+03  0.23246879298E+03  0.00000000000E+00 0. -1.
<mgrwt>
<rscale>  1 0.30000000E+03</rscale>
<asrwt>0</asrwt>
<pdfrwt beam="1">  1       21 0.46446673E-02 0.30000000E+03</pdfrwt>
<pdfrwt beam="2">0</pdfrwt>
<totfact> 0.32655144E+04</totfact>
</mgrwt>
</event>
<event>
 6    1  0.1274196E-001  0.3000000E+03  0.7818608E-02  0.1093470E+00
         21   -1    0    0  501  502  0.00000000000E+00  0.00000000000E+00  0.25110036849E+01  0.25110036849E+01  0.00000000000E+00 0. -1.
         13   -1    0    0    0    0 -0.00000000000E+00 -0.00000000000E+00 -0.10000000000E+04  0.10000000000E+04  0.00000000000E+00 0.  1.
    9000005    2    1    2  501    0 -0.21362319542E+02  0.23930926827E+02 -0.88369036331E+03  0.88427747701E+03  0.29933582690E+01 0.  0.
         13    1    3    3    0    0 -0.35909526984E+01  0.30151798910E+01 -0.15298818571E+03  0.15306002488E+03  0.00000000000E+00 0.  1.
          1    1    3    3  501    0 -0.17771366844E+02  0.20915746936E+02 -0.73070217760E+03  0.73121745213E+03  0.00000000000E+00 0.  1.
         -1    1    1    2    0  502  0.21362319542E+02 -0.23930926827E+02 -0.11379863301E+03  0.11823352667E+03  0.00000000000E+00 0. -1.
<mgrwt>
<rscale>  1 0.30000000E+03</rscale>
<asrwt>0</asrwt>
<pdfrwt beam="1">  1       21 0.91309417E-02 0.30000000E+03</pdfrwt>
<pdfrwt beam="2">0</pdfrwt>
<totfact> 0.10115707E+04</totfact>
</mgrwt>
</event>
<event>
 6    1  0.1274196E-001  0.3000000E+03  0.7818608E-02  0.1093470E+00
         21   -1    0    0  501  502  0.00000000000E+00  0.00000000000E+00  0.16955007970E+01  0.16955007970E+01  0.00000000000E+00 0. -1.
         13   -1    0    0    0    0 -0.00000000000E+00 -0.00000000000E+00 -0.10000000000E+04  0.10000000000E+04  0.00000000000E+00 0.  1.
    9000005    2    1    2  501    0 -0.32700382782E+02 -0.23214150889E+02 -0.61022022309E+03  0.61154473865E+03  0.31677863272E+01 0.  0.
         13    1    3    3    0    0 -0.28324777626E+01 -0.28596199847E+01 -0.71762091519E+02  0.71874878336E+02  0.00000000000E+00 0.  1.
          1    1    3    3  501    0 -0.29867905019E+02 -0.20354530904E+02 -0.53845813157E+03  0.53966986032E+03  0.00000000000E+00 0.  1.
         -3    1    1    2    0  502  0.32700382782E+02  0.23214150889E+02 -0.38808427611E+03  0.39015076214E+03  0.00000000000E+00 0. -1.
<mgrwt>
<rscale>  1 0.30000000E+03</rscale>
<asrwt>0</asrwt>
<pdfrwt beam="1">  1       21 0.61654704E-02 0.30000000E+03</pdfrwt>
<pdfrwt beam="2">0</pdfrwt>
<totfact> 0.20105309E+04</totfact>
</mgrwt>
</event>
<event>
 6    1  0.1274196E-001  0.3000000E+03  0.7818608E-02  0.1093470E+00
         21   -1    0    0  501  502  0.00000000000E+00  0.00000000000E+00  0.14201555790E+01  0.14201555790E+01  0.00000000000E+00 0. -1.
         13   -1    0    0    0    0 -0.00000000000E+00 -0.00000000000E+00 -0.10000000000E+04  0.10000000000E+04  0.00000000000E+00 0.  1.
    9000005    2    1    2  501    0 -0.12152736853E+02  0.35262485464E+02 -0.56400730921E+03  0.56524998208E+03  0.34879077155E+01 0.  0.
         13    1    3    3    0    0 -0.84165802298E+01  0.22471526525E+02 -0.33870323457E+03  0.33955218957E+03  0.00000000000E+00 0.  1.
          1    1    3    3  501    0 -0.37361566237E+01  0.12790958939E+02 -0.22530407464E+03  0.22569779251E+03  0.00000000000E+00 0.  1.
         -1    1    1    2    0  502  0.12152736853E+02 -0.35262485464E+02 -0.43457253521E+03  0.43617017350E+03  0.00000000000E+00 0. -1.
<mgrwt>
<rscale>  1 0.30000000E+03</rscale>
<asrwt>0</asrwt>
<pdfrwt beam="1">  1       21 0.51642130E-02 0.30000000E+03</pdfrwt>
<pdfrwt beam="2">0</pdfrwt>
<totfact> 0.27259526E+04</totfact>
</mgrwt>
</event>
<event>
 6    1  0.1274196E-001  0.3000000E+03  0.7818608E-02  0.1093470E+00
         21   -1    0    0  501  502  0.00000000000E+00  0.00000000000E+00  0.22073449324E+01  0.22073449324E+01  0.00000000000E+00 0. -1.
         13   -1    0    0    0    0 -0.00000000000E+00 -0.00000000000E+00 -0.10000000000E+04  0.10000000000E+04  0.00000000000E+00 0.  1.
    9000005    2    1    2  501    0 -0.23491487946E+02 -0.39286721521E+02 -0.39102660007E+03  0.39371712973E+03  0.40099614081E+01 0.  0.
         13    1    3    3    0    0 -0.23641857126E+02 -0.39068953311E+02 -0.38949719705E+03  0.39216499976E+03  0.00000000000E+00 0.  1.
          3    1    3    3  501    0  0.15036918011E+00 -0.21776821004E+00 -0.15294030121E+01  0.15521299743E+01  0.00000000000E+00 0.  1.
         -1    1    1    2    0  502  0.23491487946E+02  0.39286721521E+02 -0.60676605500E+03  0.60849021520E+03  0.00000000000E+00 0. -1.
<mgrwt>
<rscale>  1 0.30000000E+03</rscale>
<asrwt>0</asrwt>
<pdfrwt beam="1">  1       21 0.80267258E-02 0.30000000E+03</pdfrwt>
<pdfrwt beam="2">0</pdfrwt>
<totfact> 0.12699250E+04</totfact>
</mgrwt>
</event>
<event>
 6    1  0.1274196E-001  0.3000000E+03  0.7818608E-02  0.1093470E+00
         21   -1    0    0  501  502  0.00000000000E+00  0.00000000000E+00  0.28922394465E+01  0.28922394465E+01  0.00000000000E+00 0. -1.
         13   -1    0    0    0    0 -0.00000000000E+00 -0.00000000000E+00 -0.10000000000E+04  0.10000000000E+04  0.00000000000E+00 0.  1.
    9000005    2    1    2  501    0  0.52994938807E+02 -0.79109044132E+01 -0.46229406849E+03  0.46540109425E+03  0.33655339529E+01 0.  0.
         13    1    3    3    0    0  0.29810583406E+02 -0.48765393724E+01 -0.24647687116E+03  0.24832096073E+03  0.00000000000E+00 0.  1.
          1    1    3    3  501    0  0.23184355401E+02 -0.30343650409E+01 -0.21581719733E+03  0.21708013352E+03  0.00000000000E+00 0.  1.
         -3    1    1    2    0  502 -0.52994938807E+02  0.79109044132E+01 -0.53481369206E+03  0.53749114519E+03  0.00000000000E+00 0. -1.
<mgrwt>
<rscale>  1 0.30000000E+03</rscale>
<asrwt>0</asrwt>
<pdfrwt beam="1">  1       21 0.10517257E-01 0.30000000E+03</pdfrwt>
<pdfrwt beam="2">0</pdfrwt>
<totfact> 0.78606944E+03</totfact>
</mgrwt>
</event>
<event>
 6    1  0.1274196E-001  0.3000000E+03  0.7818608E-02  0.1093470E+00
         21   -1    0    0  501  502  0.00000000000E+00  0.00000000000E+00  0.14563746649E+01  0.14563746649E+01  0.00000000000E+00 0. -1.
         13   -1    0    0    0    0 -0.00000000000E+00 -0.00000000000E+00 -0.10000000000E+04  0.10000000000E+04  0.00000000000E+00 0.  1.
    9000005    2    1    2  501    0 -0.26452904164E+02  0.15115077588E+02 -0.80031434521E+03  0.80089947698E+03  0.29494698066E+01 0.  0.
         13    1    3    3    0    0 -0.16430554491E+02  0.80695273022E+01 -0.45608744228E+03  0.45645463674E+03  0.00000000000E+00 0.  1.
          1    1    3    3  501    0 -0.10022349674E+02  0.70455502861E+01 -0.34422690293E+03  0.34444484024E+03  0.00000000000E+00 0.  1.
         -3    1    1    2    0  502  0.26452904164E+02 -0.15115077588E+02 -0.19822928013E+03  0.20055689768E+03  0.00000000000E+00 0. -1.
<mgrwt>
<rscale>  1 0.30000000E+03</rscale>
<asrwt>0</asrwt>
<pdfrwt beam="1">  1       21 0.52959190E-02 0.30000000E+03</pdfrwt>
<pdfrwt beam="2">0</pdfrwt>
<totfact> 0.26111241E+04</totfact>
</mgrwt>
</event>
<event>
 6    1  0.1274196E-001  0.3000000E+03  0.7818608E-02  0.1093470E+00
         21   -1    0    0  501  502  0.00000000000E+00  0.00000000000E+00  0.12992441446E+01  0.12992441446E+01  0.00000000000E+00 0. -1.
         13   -1    0    0    0    0 -0.00000000000E+00 -0.00000000000E+00 -0.10000000000E+04  0.10000000000E+04  0.00000000000E+00 0.  1.
    9000005    2    1    2  501    0 -0.15208075222E+02  0.29438378715E+02 -0.69487028547E+03  0.69566734393E+03  0.32304937962E+01 0.  0.
         13    1    3    3    0    0 -0.30682029117E+01  0.70761652427E+01 -0.18951985852E+03  0.18967673225E+03  0.00000000000E+00 0.  1.
          1    1    3    3  501    0 -0.12139872310E+02  0.22362213472E+02 -0.50535042694E+03  0.50599061168E+03  0.00000000000E+00 0.  1.
         -1    1    1    2    0  502  0.15208075222E+02 -0.29438378715E+02 -0.30383047039E+03  0.30563190022E+03  0.00000000000E+00 0. -1.
<mgrwt>
<rscale>  1 0.30000000E+03</rscale>
<asrwt>0</asrwt>
<pdfrwt beam="1">  1       21 0.47245341E-02 0.30000000E+03</pdfrwt>
<pdfrwt beam="2">0</pdfrwt>
<totfact> 0.31722250E+04</totfact>
</mgrwt>
</event>
<event>
 6    1  0.1274196E-001  0.3000000E+03  0.7818608E-02  0.1093470E+00
         21   -1    0    0  501  502  0.00000000000E+00  0.00000000000E+00  0.10435122170E+01  0.10435122170E+01  0.00000000000E+00 0. -1.
         13   -1    0    0    0    0 -0.00000000000E+00 -0.00000000000E+00 -0.10000000000E+04  0.10000000000E+04  0.00000000000E+00 0.  1.
    9000005    2    1    2  501    0  0.27192722599E+02  0.16387358928E+02 -0.57900113812E+03  0.57988975715E+03  0.46714890861E+01 0.  0.
         13    1    3    3    0    0  0.20095284382E+02  0.11445190775E+02 -0.45504656649E+03  0.45563383382E+03  0.00000000000E+00 0.  1.
          3    1    3    3  501    0  0.70974382170E+01  0.49421681529E+01 -0.12395457163E+03  0.12425592333E+03  0.00000000000E+00 0.  1.
         -1    1    1    2    0  502 -0.27192722599E+02 -0.16387358928E+02 -0.41995534966E+03  0.42115375506E+03  0.00000000000E+00 0. -1.
<mgrwt>
<rscale>  1 0.30000000E+03</rscale>
<asrwt>0</asrwt>
<pdfrwt beam="1">  1       21 0.37945979E-02 0.30000000E+03</pdfrwt>
<pdfrwt beam="2">0</pdfrwt>
<totfact> 0.45945767E+04</totfact>
</mgrwt>
</event>
<event>
 6    1  0.1274196E-001  0.3000000E+03  0.7818608E-02  0.1093470E+00
         21   -1    0    0  501  502  0.00000000000E+00  0.00000000000E+00  0.22966098774E+01  0.22966098774E+01  0.00000000000E+00 0. -1.
         13   -1    0    0    0    0 -0.00000000000E+00 -0.00000000000E+00 -0.10000000000E+04  0.10000000000E+04  0.00000000000E+00 0.  1.
    9000005    2    1    2  501    0 -0.32045825542E+02 -0.33749265503E+02 -0.61689067403E+03  0.61865058475E+03  0.29145243560E+01 0.  0.
         13    1    3    3    0    0 -0.11982674947E+01 -0.18636508298E+01 -0.23807527457E+02  0.23910403657E+02  0.00000000000E+00 0.  1.
          1    1    3    3  501    0 -0.30847558047E+02 -0.31885614673E+02 -0.59308314657E+03  0.59474018110E+03  0.00000000000E+00 0.  1.
         -1    1    1    2    0  502  0.32045825542E+02  0.33749265503E+02 -0.38081271609E+03  0.38364602512E+03  0.00000000000E+00 0. -1.
<mgrwt>
<rscale>  1 0.30000000E+03</rscale>
<asrwt>0</asrwt>
<pdfrwt beam="1">  1       21 0.83513263E-02 0.30000000E+03</pdfrwt>
<pdfrwt beam="2">0</pdfrwt>
<totfact> 0.11843898E+04</totfact>
</mgrwt>
</event>
<event>
 6    1  0.1274196E-001  0.3000000E+03  0.7818608E-02  0.1093470E+00
         21   -1    0    0  501  502  0.00000000000E+00  0.00000000000E+00  0.10901504603E+01  0.10901504603E+01  0.00000000000E+00 0. -1.
         13   -1    0    0    0    0 -0.00000000000E+00 -0.00000000000E+00 -0.10000000000E+04  0.10000000000E+04  0.00000000000E+00 0.  1.
    9000005    2    1    2  501    0 -0.12001876396E+01 -0.30269628863E+02 -0.69356970228E+03  0.69425094761E+03  0.52683435882E+01 0.  0.
         13    1    3    3    0    0 -0.20257629651E+01 -0.19866281290E+02 -0.40396550917E+03  0.40445878090E+03  0.00000000000E+00 0.  1.
          1    1    3    3  501    0  0.82557532547E+00 -0.10403347572E+02 -0.28960419311E+03  0.28979216670E+03  0.00000000000E+00 0.  1.
         -3    1    1    2    0  502  0.12001876396E+01  0.30269628863E+02 -0.30534014725E+03  0.30683920285E+03  0.00000000000E+00 0. -1.
<mgrwt>
<rscale>  1 0.30000000E+03</rscale>
<asrwt>0</asrwt>
<pdfrwt beam="1">  1       21 0.39641919E-02 0.30000000E+03</pdfrwt>
<pdfrwt beam="2">0</pdfrwt>
<totfact> 0.42688764E+04</totfact>
</mgrwt>
</event>
<event>
 6    1  0.1274196E-001  0.3000000E+03  0.7818608E-02  0.1093470E+00
         21   -1    0    0  501  502  0.00000000000E+00  0.00000000000E+00  0.32184680302E+01  0.32184680302E+01  0.00000000000E+00 0. -1.
         13   -1    0    0    0    0 -0.00000000000E+00 -0.00000000000E+00 -0.10000000000E+04  0.10000000000E+04  0.00000000000E+00 0.  1.
    9000005    2    1    2  501    0  0.19342334053E+02  0.44653891167E+02 -0.75561821028E+03  0.75719439683E+03  0.40470972709E+01 0.  0.
         13    1    3    3    0    0  0.19986208925E+01  0.71869393271E+01 -0.10044975454E+03  0.10072636085E+03  0.00000000000E+00 0.  1.
          1    1    3    3  501    0  0.17343713160E+02  0.37466951839E+02 -0.65516845574E+03  0.65646803598E+03  0.00000000000E+00 0.  1.
         -3    1    1    2    0  502 -0.19342334053E+02 -0.44653891167E+02 -0.24116332169E+03  0.24602407120E+03  0.00000000000E+00 0. -1.
<mgrwt>
<rscale>  1 0.30000000E+03</rscale>
<asrwt>0</asrwt>
<pdfrwt beam="1">  1       21 0.11703545E-01 0.30000000E+03</pdfrwt>
<pdfrwt beam="2">0</pdfrwt>
<totfact> 0.64845375E+03</totfact>
</mgrwt>
</event>
<event>
 6    1  0.1274196E-001  0.3000000E+03  0.7818608E-02  0.1093470E+00
         21   -1    0    0  501  502  0.00000000000E+00  0.00000000000E+00  0.58463715011E+01  0.58463715011E+01  0.00000000000E+00 0. -1.
         13   -1    0    0    0    0 -0.00000000000E+00 -0.00000000000E+00 -0.10000000000E+04  0.10000000000E+04  0.00000000000E+00 0.  1.
    9000005    2    1    2  501    0  0.11921846937E+02 -0.46829435567E+02 -0.88645984227E+03  0.88780791141E+03  0.75305460102E+01 0.  0.
         13    1    3    3    0    0  0.53310528590E+01 -0.10724798245E+02 -0.18322866491E+03  0.18361967505E+03  0.00000000000E+00 0.  1.
          3    1    3    3  501    0  0.65907940776E+01 -0.36104637322E+02 -0.70323117736E+03  0.70418823635E+03  0.00000000000E+00 0.  1.
         -3    1    1    2    0  502 -0.11921846937E+02  0.46829435567E+02 -0.10769378623E+03  0.11803846010E+03  0.00000000000E+00 0. -1.
<mgrwt>
<rscale>  1 0.30000000E+03</rscale>
<asrwt>0</asrwt>
<pdfrwt beam="1">  1       21 0.21259578E-01 0.30000000E+03</pdfrwt>
<pdfrwt beam="2">0</pdfrwt>
<totfact> 0.21345319E+03</totfact>
</mgrwt>
</event>
<event>
 6    1  0.1274196E-001  0.3000000E+03  0.7818608E-02  0.1093470E+00
         21   -1    0    0  501  502  0.00000000000E+00  0.00000000000E+00  0.34092955819E+01  0.34092955819E+01  0.00000000000E+00 0. -1.
         13   -1    0    0    0    0 -0.00000000000E+00 -0.00000000000E+00 -0.10000000000E+04  0.10000000000E+04  0.00000000000E+00 0.  1.
    9000005    2    1    2  501    0 -0.49714988526E+01 -0.35193072949E+02 -0.89624202951E+03  0.89695214580E+03  0.31793404806E+01 0.  0.
         13    1    3    3    0    0 -0.49655982627E+01 -0.31760079103E+02 -0.82808920942E+03  0.82871291684E+03  0.00000000000E+00 0.  1.
          1    1    3    3  501    0 -0.59005898940E-02 -0.34329938457E+01 -0.68152820092E+02  0.68239228952E+02  0.00000000000E+00 0.  1.
         -1    1    1    2    0  502  0.49714988526E+01  0.35193072949E+02 -0.10034867491E+03  0.10645714979E+03  0.00000000000E+00 0. -1.
<mgrwt>
<rscale>  1 0.30000000E+03</rscale>
<asrwt>0</asrwt>
<pdfrwt beam="1">  1       21 0.12397465E-01 0.30000000E+03</pdfrwt>
<pdfrwt beam="2">0</pdfrwt>
<totfact> 0.58406401E+03</totfact>
</mgrwt>
</event>
<event>
 6    1  0.1274196E-001  0.3000000E+03  0.7818608E-02  0.1093470E+00
         21   -1    0    0  501  502  0.00000000000E+00  0.00000000000E+00  0.16663326721E+01  0.16663326721E+01  0.00000000000E+00 0. -1.
         13   -1    0    0    0    0 -0.00000000000E+00 -0.00000000000E+00 -0.10000000000E+04  0.10000000000E+04  0.00000000000E+00 0.  1.
    9000005    2    1    2  501    0 -0.31826860736E+02 -0.22713177348E+02 -0.64121117566E+03  0.64240972307E+03  0.31053197558E+01 0.  0.
         13    1    3    3    0    0 -0.26595625737E+02 -0.17558209280E+02 -0.51525143896E+03  0.51623605392E+03  0.00000000000E+00 0.  1.
          3    1    3    3  501    0 -0.52312349985E+01 -0.51549680676E+01 -0.12595973671E+03  0.12617366915E+03  0.00000000000E+00 0.  1.
         -3    1    1    2    0  502  0.31826860736E+02  0.22713177348E+02 -0.35712249167E+03  0.35925660960E+03  0.00000000000E+00 0. -1.
<mgrwt>
<rscale>  1 0.30000000E+03</rscale>
<asrwt>0</asrwt>
<pdfrwt beam="1">  1       21 0.60594043E-02 0.30000000E+03</pdfrwt>
<pdfrwt beam="2">0</pdfrwt>
<totfact> 0.20716587E+04</totfact>
</mgrwt>
</event>
<event>
 6    1  0.1274196E-001  0.3000000E+03  0.7818608E-02  0.1093470E+00
         21   -1    0    0  501  502  0.00000000000E+00  0.00000000000E+00  0.22495808301E+01  0.22495808301E+01  0.00000000000E+00 0. -1.
         13   -1    0    0    0    0 -0.00000000000E+00 -0.00000000000E+00 -0.10000000000E+04  0.10000000000E+04  0.00000000000E+00 0.  1.
    9000005    2    1    2  501    0 -0.37295573026E+02  0.29230328427E+02 -0.50269497892E+03  0.50493151281E+03  0.28668660065E+01 0.  0.
         13    1    3    3    0    0 -0.15148885514E+02  0.11197881330E+02 -0.18614561920E+03  0.18709642655E+03  0.00000000000E+00 0.  1.
          1    1    3    3  501    0 -0.22146687511E+02  0.18032447098E+02 -0.31654935972E+03  0.31783508626E+03  0.00000000000E+00 0.  1.
         -3    1    1    2    0  502  0.37295573026E+02 -0.29230328427E+02 -0.49505544025E+03  0.49731806802E+03  0.00000000000E+00 0. -1.
<mgrwt>
<rscale>  1 0.30000000E+03</rscale>
<asrwt>0</asrwt>
<pdfrwt beam="1">  1       21 0.81803112E-02 0.30000000E+03</pdfrwt>
<pdfrwt beam="2">0</pdfrwt>
<totfact> 0.12283131E+04</totfact>
</mgrwt>
</event>
<event>
 6    1  0.1274196E-001  0.3000000E+03  0.7818608E-02  0.1093470E+00
         21   -1    0    0  501  502  0.00000000000E+00  0.00000000000E+00  0.15636398536E+01  0.15636398536E+01  0.00000000000E+00 0. -1.
         13   -1    0    0    0    0 -0.00000000000E+00 -0.00000000000E+00 -0.10000000000E+04  0.10000000000E+04  0.00000000000E+00 0.  1.
    9000005    2    1    2  501    0  0.20970830635E+02 -0.31247177245E+02 -0.65106768159E+03  0.65216249408E+03  0.32604992274E+01 0.  0.
         13    1    3    3    0    0  0.18605306324E+02 -0.26070927581E+02 -0.56455986046E+03  0.56546767081E+03  0.00000000000E+00 0.  1.
          1    1    3    3  501    0  0.23655243116E+01 -0.51762496645E+01 -0.86507821124E+02  0.86694823268E+02  0.00000000000E+00 0.  1.
         -3    1    1    2    0  502 -0.20970830635E+02  0.31247177245E+02 -0.34736867856E+03  0.34940114577E+03  0.00000000000E+00 0. -1.
<mgrwt>
<rscale>  1 0.30000000E+03</rscale>
<asrwt>0</asrwt>
<pdfrwt beam="1">  1       21 0.56859751E-02 0.30000000E+03</pdfrwt>
<pdfrwt beam="2">0</pdfrwt>
<totfact> 0.23115965E+04</totfact>
</mgrwt>
</event>
<event>
 6    1  0.1274196E-001  0.3000000E+03  0.7818608E-02  0.1093470E+00
         21   -1    0    0  501  502  0.00000000000E+00  0.00000000000E+00  0.13353323508E+01  0.13353323508E+01  0.00000000000E+00 0. -1.
         13   -1    0    0    0    0 -0.00000000000E+00 -0.00000000000E+00 -0.10000000000E+04  0.10000000000E+04  0.00000000000E+00 0.  1.
    9000005    2    1    2  501    0 -0.50020680186E+00 -0.30174963922E+02 -0.78085531904E+03  0.78144515295E+03  0.32740104806E+01 0.  0.
         13    1    3    3    0    0  0.10299887055E+01 -0.15451377887E+02 -0.42524899931E+03  0.42553086535E+03  0.00000000000E+00 0.  1.
          3    1    3    3  501    0 -0.15301955074E+01 -0.14723586035E+02 -0.35560631973E+03  0.35591428760E+03  0.00000000000E+00 0.  1.
         -3    1    1    2    0  502  0.50020680186E+00  0.30174963922E+02 -0.21780934861E+03  0.21989017940E+03  0.00000000000E+00 0. -1.
<mgrwt>
<rscale>  1 0.30000000E+03</rscale>
<asrwt>0</asrwt>
<pdfrwt beam="1">  1       21 0.48557642E-02 0.30000000E+03</pdfrwt>
<pdfrwt beam="2">0</pdfrwt>
<totfact> 0.30277422E+04</totfact>
</mgrwt>
</event>
<event>
 6    1  0.1274196E-001  0.3000000E+03  0.7818608E-02  0.1093470E+00
         21   -1    0    0  501  502  0.00000000000E+00  0.00000000000E+00  0.23807470946E+01  0.23807470946E+01  0.00000000000E+00 0. -1.
         13   -1    0    0    0    0 -0.00000000000E+00 -0.00000000000E+00 -0.10000000000E+04  0.10000000000E+04  0.00000000000E+00 0.  1.
    9000005    2    1    2  501    0  0.30416729638E+02  0.58669383123E+01 -0.88590363557E+03  0.88644982989E+03  0.29070587520E+01 0.  0.
         13    1    3    3    0    0  0.23071326246E+02  0.56747117034E+01 -0.66877991357E+03  0.66920180905E+03  0.00000000000E+00 0.  1.
          1    1    3    3  501    0  0.73454033923E+01  0.19222660889E+00 -0.21712372200E+03  0.21724802084E+03  0.00000000000E+00 0.  1.
         -3    1    1    2    0  502 -0.30416729638E+02 -0.58669383123E+01 -0.11171561734E+03  0.11593091720E+03  0.00000000000E+00 0. -1.
<mgrwt>
<rscale>  1 0.30000000E+03</rscale>
<asrwt>0</asrwt>
<pdfrwt beam="1">  1       21 0.86572804E-02 0.30000000E+03</pdfrwt>
<pdfrwt beam="2">0</pdfrwt>
<totfact> 0.11115756E+04</totfact>
</mgrwt>
</event>
<event>
 6    1  0.1274196E-001  0.3000000E+03  0.7818608E-02  0.1093470E+00
         21   -1    0    0  501  502  0.00000000000E+00  0.00000000000E+00  0.34897263092E+01  0.34897263092E+01  0.00000000000E+00 0. -1.
         13   -1    0    0    0    0 -0.00000000000E+00 -0.00000000000E+00 -0.10000000000E+04  0.10000000000E+04  0.00000000000E+00 0.  1.
    9000005    2    1    2  501    0 -0.39882039225E+02  0.35196636337E+02 -0.28178579424E+03  0.28678862977E+03  0.38863948039E+01 0.  0.
         13    1    3    3    0    0 -0.34441287651E+02  0.29060028175E+02 -0.23286210372E+03  0.23718230727E+03  0.00000000000E+00 0.  1.
          3    1    3    3  501    0 -0.54407515739E+01  0.61366081621E+01 -0.48923690522E+02  0.49606322498E+02  0.00000000000E+00 0.  1.
         -1    1    1    2    0  502  0.39882039225E+02 -0.35196636337E+02 -0.71472447945E+03  0.71670109654E+03  0.00000000000E+00 0. -1.
<mgrwt>
<rscale>  1 0.30000000E+03</rscale>
<asrwt>0</asrwt>
<pdfrwt beam="1">  1       21 0.12689941E-01 0.30000000E+03</pdfrwt>
<pdfrwt beam="2">0</pdfrwt>
<totfact> 0.55977289E+03</totfact>
</mgrwt>
</event>
<event>
 6    1  0.1274196E-001  0.3000000E+03  0.7818608E-02  0.1093470E+00
         21   -1    0    0  501  502  0.00000000000E+00  0.00000000000E+00  0.14519277237E+01  0.14519277237E+01  0.00000000000E+00 0. -1.
         13   -1    0    0    0    0 -0.00000000000E+00 -0.00000000000E+00 -0.10000000000E+04  0.10000000000E+04  0.00000000000E+00 0.  1.
    9000005    2    1    2  501    0 -0.95421676386E+01  0.34481598450E+02 -0.65701130678E+03  0.65804634277E+03  0.90054647471E+01 0.  0.
         13    1    3    3    0    0 -0.79529617284E+01  0.34349406620E+02 -0.63424537235E+03  0.63522462459E+03  0.00000000000E+00 0.  1.
          3    1    3    3  501    0 -0.15892059102E+01  0.13219182937E+00 -0.22765934432E+02  0.22821718180E+02  0.00000000000E+00 0.  1.
         -1    1    1    2    0  502  0.95421676386E+01 -0.34481598450E+02 -0.34153676549E+03  0.34340558496E+03  0.00000000000E+00 0. -1.
<mgrwt>
<rscale>  1 0.30000000E+03</rscale>
<asrwt>0</asrwt>
<pdfrwt beam="1">  1       21 0.52797483E-02 0.30000000E+03</pdfrwt>
<pdfrwt beam="2">0</pdfrwt>
<totfact> 0.26248149E+04</totfact>
</mgrwt>
</event>
<event>
 6    1  0.1274196E-001  0.3000000E+03  0.7818608E-02  0.1093470E+00
         21   -1    0    0  501  502  0.00000000000E+00  0.00000000000E+00  0.21605997154E+01  0.21605997154E+01  0.00000000000E+00 0. -1.
         13   -1    0    0    0    0 -0.00000000000E+00 -0.00000000000E+00 -0.10000000000E+04  0.10000000000E+04  0.00000000000E+00 0.  1.
    9000005    2    1    2  501    0  0.39584897793E+02 -0.16461643954E+02 -0.69165012642E+03  0.69298456364E+03  0.31238131084E+01 0.  0.
         13    1    3    3    0    0  0.31564654088E+02 -0.14155714088E+02 -0.54404043106E+03  0.54513915862E+03  0.00000000000E+00 0.  1.
          1    1    3    3  501    0  0.80202437054E+01 -0.23059298664E+01 -0.14760969536E+03  0.14784540502E+03  0.00000000000E+00 0.  1.
         -1    1    1    2    0  502 -0.39584897793E+02  0.16461643954E+02 -0.30618927386E+03  0.30917603608E+03  0.00000000000E+00 0. -1.
<mgrwt>
<rscale>  1 0.30000000E+03</rscale>
<asrwt>0</asrwt>
<pdfrwt beam="1">  1       21 0.78567428E-02 0.30000000E+03</pdfrwt>
<pdfrwt beam="2">0</pdfrwt>
<totfact> 0.13185581E+04</totfact>
</mgrwt>
</event>
<event>
 6    1  0.1274196E-001  0.3000000E+03  0.7818608E-02  0.1093470E+00
         21   -1    0    0  501  502  0.00000000000E+00  0.00000000000E+00  0.20845617340E+01  0.20845617340E+01  0.00000000000E+00 0. -1.
         13   -1    0    0    0    0 -0.00000000000E+00 -0.00000000000E+00 -0.10000000000E+04  0.10000000000E+04  0.00000000000E+00 0.  1.
    9000005    2    1    2  501    0 -0.37775456344E+02 -0.54280822059E+01 -0.77339379690E+03  0.77434256600E+03  0.34634173935E+01 0.  0.
         13    1    3    3    0    0 -0.15267991759E+02 -0.37527736173E+01 -0.33224318892E+03  0.33261498984E+03  0.00000000000E+00 0.  1.
          3    1    3    3  501    0 -0.22507464585E+02 -0.16753085886E+01 -0.44115060798E+03  0.44172757616E+03  0.00000000000E+00 0.  1.
         -1    1    1    2    0  502  0.37775456344E+02  0.54280822059E+01 -0.22452164136E+03  0.22774199573E+03  0.00000000000E+00 0. -1.
<mgrwt>
<rscale>  1 0.30000000E+03</rscale>
<asrwt>0</asrwt>
<pdfrwt beam="1">  1       21 0.75802405E-02 0.30000000E+03</pdfrwt>
<pdfrwt beam="2">0</pdfrwt>
<totfact> 0.14040342E+04</totfact>
</mgrwt>
</event>
<event>
 6    1  0.1274196E-001  0.3000000E+03  0.7818608E-02  0.1093470E+00
         21   -1    0    0  501  502  0.00000000000E+00  0.00000000000E+00  0.19069505516E+01  0.19069505516E+01  0.00000000000E+00 0. -1.
         13   -1    0    0    0    0 -0.00000000000E+00 -0.00000000000E+00 -0.10000000000E+04  0.10000000000E+04  0.00000000000E+00 0.  1.
    9000005    2    1    2  501    0  0.27840469662E+01 -0.32488478968E+02 -0.83193073690E+03  0.83257542279E+03  0.31355141396E+01 0.  0.
         13    1    3    3    0    0  0.15324435231E+01 -0.51531512458E+01 -0.12674033626E+03  0.12685431087E+03  0.00000000000E+00 0.  1.
          3    1    3    3  501    0  0.12516034431E+01 -0.27335327723E+02 -0.70519040064E+03  0.70572111192E+03  0.00000000000E+00 0.  1.
         -3    1    1    2    0  502 -0.27840469662E+01  0.32488478968E+02 -0.16616231254E+03  0.16933152776E+03  0.00000000000E+00 0. -1.
<mgrwt>
<rscale>  1 0.30000000E+03</rscale>
<asrwt>0</asrwt>
<pdfrwt beam="1">  1       21 0.69343803E-02 0.30000000E+03</pdfrwt>
<pdfrwt beam="2">0</pdfrwt>
<totfact> 0.16401843E+04</totfact>
</mgrwt>
</event>
<event>
 6    1  0.1274196E-001  0.3000000E+03  0.7818608E-02  0.1093470E+00
         21   -1    0    0  501  502  0.00000000000E+00  0.00000000000E+00  0.18861896194E+01  0.18861896194E+01  0.00000000000E+00 0. -1.
         13   -1    0    0    0    0 -0.00000000000E+00 -0.00000000000E+00 -0.10000000000E+04  0.10000000000E+04  0.00000000000E+00 0.  1.
    9000005    2    1    2  501    0  0.30004331530E+02  0.71691848706E+01 -0.85144868469E+03  0.85201185487E+03  0.27714723486E+01 0.  0.
         13    1    3    3    0    0  0.53495676576E+01  0.45902039397E+00 -0.16757219552E+03  0.16765819182E+03  0.00000000000E+00 0.  1.
          3    1    3    3  501    0  0.24654763873E+02  0.67101644766E+01 -0.68387648917E+03  0.68435366305E+03  0.00000000000E+00 0.  1.
         -3    1    1    2    0  502 -0.30004331530E+02 -0.71691848706E+01 -0.14666512569E+03  0.14987433475E+03  0.00000000000E+00 0. -1.
<mgrwt>
<rscale>  1 0.30000000E+03</rscale>
<asrwt>0</asrwt>
<pdfrwt beam="1">  1       21 0.68588858E-02 0.30000000E+03</pdfrwt>
<pdfrwt beam="2">0</pdfrwt>
<totfact> 0.16716936E+04</totfact>
</mgrwt>
</event>
<event>
 6    1  0.1274196E-001  0.3000000E+03  0.7818608E-02  0.1093470E+00
         21   -1    0    0  501  502  0.00000000000E+00  0.00000000000E+00  0.19204316961E+01  0.19204316961E+01  0.00000000000E+00 0. -1.
         13   -1    0    0    0    0 -0.00000000000E+00 -0.00000000000E+00 -0.10000000000E+04  0.10000000000E+04  0.00000000000E+00 0.  1.
    9000005    2    1    2  501    0 -0.24852075824E+02 -0.35195334511E+02 -0.46918862737E+03  0.47127745884E+03  0.10398937896E+02 0.  0.
         13    1    3    3    0    0 -0.97051264238E+01 -0.64909919482E+01 -0.10577887857E+03  0.10642130241E+03  0.00000000000E+00 0.  1.
          3    1    3    3  501    0 -0.15146949400E+02 -0.28704342563E+02 -0.36340974881E+03  0.36485615643E+03  0.00000000000E+00 0.  1.
         -3    1    1    2    0  502  0.24852075824E+02  0.35195334511E+02 -0.52889094093E+03  0.53064297286E+03  0.00000000000E+00 0. -1.
<mgrwt>
<rscale>  1 0.30000000E+03</rscale>
<asrwt>0</asrwt>
<pdfrwt beam="1">  1       21 0.69834027E-02 0.30000000E+03</pdfrwt>
<pdfrwt beam="2">0</pdfrwt>
<totfact> 0.16202078E+04</totfact>
</mgrwt>
</event>
<event>
 6    1  0.1274196E-001  0.3000000E+03  0.7818608E-02  0.1093470E+00
         21   -1    0    0  501  502  0.00000000000E+00  0.00000000000E+00  0.36299061361E+01  0.36299061361E+01  0.00000000000E+00 0. -1.
         13   -1    0    0    0    0 -0.00000000000E+00 -0.00000000000E+00 -0.10000000000E+04  0.10000000000E+04  0.00000000000E+00 0.  1.
    9000005    2    1    2  501    0  0.28437886998E+02 -0.43410785968E+02 -0.75038937241E+03  0.75223435112E+03  0.88937631132E+01 0.  0.
         13    1    3    3    0    0  0.19216384112E+02 -0.21828404807E+02 -0.39194555808E+03  0.39302298810E+03  0.00000000000E+00 0.  1.
          1    1    3    3  501    0  0.92215028860E+01 -0.21582381161E+02 -0.35844381433E+03  0.35921136302E+03  0.00000000000E+00 0.  1.
         -1    1    1    2    0  502 -0.28437886998E+02  0.43410785968E+02 -0.24598072145E+03  0.25139555501E+03  0.00000000000E+00 0. -1.
<mgrwt>
<rscale>  1 0.30000000E+03</rscale>
<asrwt>0</asrwt>
<pdfrwt beam="1">  1       21 0.13199687E-01 0.30000000E+03</pdfrwt>
<pdfrwt beam="2">0</pdfrwt>
<totfact> 0.52093890E+03</totfact>
</mgrwt>
</event>
<event>
 6    1  0.1274196E-001  0.3000000E+03  0.7818608E-02  0.1093470E+00
         21   -1    0    0  501  502  0.00000000000E+00  0.00000000000E+00  0.37571326619E+01  0.37571326619E+01  0.00000000000E+00 0. -1.
         13   -1    0    0    0    0 -0.00000000000E+00 -0.00000000000E+00 -0.10000000000E+04  0.10000000000E+04  0.00000000000E+00 0.  1.
    9000005    2    1    2  501    0 -0.32161119281E+02  0.35688992463E+02 -0.80945094758E+03  0.81088602787E+03  0.41559453189E+01 0.  0.
         13    1    3    3    0    0 -0.23777266985E+02  0.28518598551E+02 -0.60662258827E+03  0.60775787407E+03  0.00000000000E+00 0.  1.
          3    1    3    3  501    0 -0.83838522959E+01  0.71703939118E+01 -0.20282835931E+03  0.20312815380E+03  0.00000000000E+00 0.  1.
         -3    1    1    2    0  502  0.32161119281E+02 -0.35688992463E+02 -0.18679191976E+03  0.19287110479E+03  0.00000000000E+00 0. -1.
<mgrwt>
<rscale>  1 0.30000000E+03</rscale>
<asrwt>0</asrwt>
<pdfrwt beam="1">  1       21 0.13662329E-01 0.30000000E+03</pdfrwt>
<pdfrwt beam="2">0</pdfrwt>
<totfact> 0.48909980E+03</totfact>
</mgrwt>
</event>
<event>
 6    1  0.1274196E-001  0.3000000E+03  0.7818608E-02  0.1093470E+00
         21   -1    0    0  501  502  0.00000000000E+00  0.00000000000E+00  0.20500687069E+01  0.20500687069E+01  0.00000000000E+00 0. -1.
         13   -1    0    0    0    0 -0.00000000000E+00 -0.00000000000E+00 -0.10000000000E+04  0.10000000000E+04  0.00000000000E+00 0.  1.
    9000005    2    1    2  501    0  0.20586050172E+02 -0.36354113503E+02 -0.69072892870E+03  0.69200144113E+03  0.37595940584E+01 0.  0.
         13    1    3    3    0    0  0.41719064901E+01 -0.85527844429E+01 -0.18273794630E+03  0.18298555119E+03  0.00000000000E+00 0.  1.
          1    1    3    3  501    0  0.16414143682E+02 -0.27801329060E+02 -0.50799098240E+03  0.50901588994E+03  0.00000000000E+00 0.  1.
         -3    1    1    2    0  502 -0.20586050172E+02  0.36354113503E+02 -0.30722100259E+03  0.31004862758E+03  0.00000000000E+00 0. -1.
<mgrwt>
<rscale>  1 0.30000000E+03</rscale>
<asrwt>0</asrwt>
<pdfrwt beam="1">  1       21 0.74548110E-02 0.30000000E+03</pdfrwt>
<pdfrwt beam="2">0</pdfrwt>
<totfact> 0.14456606E+04</totfact>
</mgrwt>
</event>
<event>
 6    1  0.1274196E-001  0.3000000E+03  0.7818608E-02  0.1093470E+00
         21   -1    0    0  501  502  0.00000000000E+00  0.00000000000E+00  0.21307168522E+01  0.21307168522E+01  0.00000000000E+00 0. -1.
         13   -1    0    0    0    0 -0.00000000000E+00 -0.00000000000E+00 -0.10000000000E+04  0.10000000000E+04  0.00000000000E+00 0.  1.
    9000005    2    1    2  501    0  0.44333375083E+01 -0.38239376824E+02 -0.77495812712E+03  0.77592000114E+03  0.31376676528E+01 0.  0.
         13    1    3    3    0    0  0.40009774555E+01 -0.22972268441E+02 -0.45271152292E+03  0.45331165429E+03  0.00000000000E+00 0.  1.
          1    1    3    3  501    0  0.43236005279E+00 -0.15267108383E+02 -0.32224660421E+03  0.32260834685E+03  0.00000000000E+00 0.  1.
         -3    1    1    2    0  502 -0.44333375083E+01  0.38239376824E+02 -0.22291115603E+03  0.22621071571E+03  0.00000000000E+00 0. -1.
<mgrwt>
<rscale>  1 0.30000000E+03</rscale>
<asrwt>0</asrwt>
<pdfrwt beam="1">  1       21 0.77480776E-02 0.30000000E+03</pdfrwt>
<pdfrwt beam="2">0</pdfrwt>
<totfact> 0.13511671E+04</totfact>
</mgrwt>
</event>
<event>
 6    1  0.1274196E-001  0.3000000E+03  0.7818608E-02  0.1093470E+00
         21   -1    0    0  501  502  0.00000000000E+00  0.00000000000E+00  0.19178110833E+01  0.19178110833E+01  0.00000000000E+00 0. -1.
         13   -1    0    0    0    0 -0.00000000000E+00 -0.00000000000E+00 -0.10000000000E+04  0.10000000000E+04  0.00000000000E+00 0.  1.
    9000005    2    1    2  501    0 -0.91533826862E+01 -0.36933873797E+02 -0.74609867876E+03  0.74707749865E+03  0.36952806773E+01 0.  0.
         13    1    3    3    0    0 -0.60536120865E+01 -0.21127415114E+02 -0.39798130499E+03  0.39858767292E+03  0.00000000000E+00 0.  1.
          1    1    3    3  501    0 -0.30997705997E+01 -0.15806458683E+02 -0.34811737378E+03  0.34848982573E+03  0.00000000000E+00 0.  1.
         -1    1    1    2    0  502  0.91533826862E+01  0.36933873797E+02 -0.25198351016E+03  0.25484031243E+03  0.00000000000E+00 0. -1.
<mgrwt>
<rscale>  1 0.30000000E+03</rscale>
<asrwt>0</asrwt>
<pdfrwt beam="1">  1       21 0.69738732E-02 0.30000000E+03</pdfrwt>
<pdfrwt beam="2">0</pdfrwt>
<totfact> 0.16240618E+04</totfact>
</mgrwt>
</event>
<event>
 6    1  0.1274196E-001  0.3000000E+03  0.7818608E-02  0.1093470E+00
         21   -1    0    0  501  502  0.00000000000E+00  0.00000000000E+00  0.98590608938E+00  0.98590608938E+00  0.00000000000E+00 0. -1.
         13   -1    0    0    0    0 -0.00000000000E+00 -0.00000000000E+00 -0.10000000000E+04  0.10000000000E+04  0.00000000000E+00 0.  1.
    9000005    2    1    2  501    0 -0.92899735938E+01 -0.28526937494E+02 -0.36408075917E+03  0.36534416002E+03  0.46331734236E+01 0.  0.
         13    1    3    3    0    0 -0.69531091169E+01 -0.16515689625E+02 -0.19527772066E+03  0.19609819458E+03  0.00000000000E+00 0.  1.
          1    1    3    3  501    0 -0.23368644769E+01 -0.12011247869E+02 -0.16880303850E+03  0.16924596544E+03  0.00000000000E+00 0.  1.
         -3    1    1    2    0  502  0.92899735938E+01  0.28526937494E+02 -0.63493333474E+03  0.63564174607E+03  0.00000000000E+00 0. -1.
<mgrwt>
<rscale>  1 0.30000000E+03</rscale>
<asrwt>0</asrwt>
<pdfrwt beam="1">  1       21 0.35851206E-02 0.30000000E+03</pdfrwt>
<pdfrwt beam="2">0</pdfrwt>
<totfact> 0.50540099E+04</totfact>
</mgrwt>
</event>
<event>
 6    1  0.1274196E-001  0.3000000E+03  0.7818608E-02  0.1093470E+00
         21   -1    0    0  501  502  0.00000000000E+00  0.00000000000E+00  0.34575809491E+01  0.34575809491E+01  0.00000000000E+00 0. -1.
         13   -1    0    0    0    0 -0.00000000000E+00 -0.00000000000E+00 -0.10000000000E+04  0.10000000000E+04  0.00000000000E+00 0.  1.
    9000005    2    1    2  501    0 -0.41207394912E+02 -0.15884266274E+02 -0.82934857555E+03  0.83052944381E+03  0.31205696189E+01 0.  0.
         13    1    3    3    0    0 -0.15835357983E+01 -0.11322360406E+00 -0.36889853722E+02  0.36923999144E+02  0.00000000000E+00 0.  1.
          3    1    3    3  501    0 -0.39623859113E+02 -0.15771042670E+02 -0.79245872183E+03  0.79360544466E+03  0.00000000000E+00 0.  1.
         -3    1    1    2    0  502  0.41207394912E+02  0.15884266274E+02 -0.16719384350E+03  0.17292813714E+03  0.00000000000E+00 0. -1.
<mgrwt>
<rscale>  1 0.30000000E+03</rscale>
<asrwt>0</asrwt>
<pdfrwt beam="1">  1       21 0.12573048E-01 0.30000000E+03</pdfrwt>
<pdfrwt beam="2">0</pdfrwt>
<totfact> 0.56929429E+03</totfact>
</mgrwt>
</event>
<event>
 6    1  0.1274196E-001  0.3000000E+03  0.7818608E-02  0.1093470E+00
         21   -1    0    0  501  502  0.00000000000E+00  0.00000000000E+00  0.10532987389E+01  0.10532987389E+01  0.00000000000E+00 0. -1.
         13   -1    0    0    0    0 -0.00000000000E+00 -0.00000000000E+00 -0.10000000000E+04  0.10000000000E+04  0.00000000000E+00 0.  1.
    9000005    2    1    2  501    0 -0.15918312839E+02 -0.26671865121E+02 -0.35945631355E+03  0.36080901954E+03  0.30864473930E+01 0.  0.
         13    1    3    3    0    0 -0.12809772893E+02 -0.19425756943E+02 -0.27787385537E+03  0.27884642693E+03  0.00000000000E+00 0.  1.
          1    1    3    3  501    0 -0.31085399460E+01 -0.72461081779E+01 -0.81582458182E+02  0.81962592609E+02  0.00000000000E+00 0.  1.
         -1    1    1    2    0  502  0.15918312839E+02  0.26671865121E+02 -0.63949038771E+03  0.64024427920E+03  0.00000000000E+00 0. -1.
<mgrwt>
<rscale>  1 0.30000000E+03</rscale>
<asrwt>0</asrwt>
<pdfrwt beam="1">  1       21 0.38301853E-02 0.30000000E+03</pdfrwt>
<pdfrwt beam="2">0</pdfrwt>
<totfact> 0.45230696E+04</totfact>
</mgrwt>
</event>
<event>
 6    1  0.1274196E-001  0.3000000E+03  0.7818608E-02  0.1093470E+00
         21   -1    0    0  501  502  0.00000000000E+00  0.00000000000E+00  0.21341977545E+01  0.21341977545E+01  0.00000000000E+00 0. -1.
         13   -1    0    0    0    0 -0.00000000000E+00 -0.00000000000E+00 -0.10000000000E+04  0.10000000000E+04  0.00000000000E+00 0.  1.
    9000005    2    1    2  501    0 -0.70319730462E+01 -0.34241271549E+02 -0.17294355375E+03  0.17647165810E+03  0.32954525391E+01 0.  0.
         13    1    3    3    0    0 -0.12125393221E+01 -0.12788514370E+02 -0.59489924681E+02  0.60861050680E+02  0.00000000000E+00 0.  1.
          1    1    3    3  501    0 -0.58194337241E+01 -0.21452757179E+02 -0.11345362907E+03  0.11561060742E+03  0.00000000000E+00 0.  1.
         -1    1    1    2    0  502  0.70319730462E+01  0.34241271549E+02 -0.82492224850E+03  0.82566253965E+03  0.00000000000E+00 0. -1.
<mgrwt>
<rscale>  1 0.30000000E+03</rscale>
<asrwt>0</asrwt>
<pdfrwt beam="1">  1       21 0.77607355E-02 0.30000000E+03</pdfrwt>
<pdfrwt beam="2">0</pdfrwt>
<totfact> 0.13473051E+04</totfact>
</mgrwt>
</event>
<event>
 6    1  0.1274196E-001  0.3000000E+03  0.7818608E-02  0.1093470E+00
         21   -1    0    0  501  502  0.00000000000E+00  0.00000000000E+00  0.79789739554E+01  0.79789739554E+01  0.00000000000E+00 0. -1.
         13   -1    0    0    0    0 -0.00000000000E+00 -0.00000000000E+00 -0.10000000000E+04  0.10000000000E+04  0.00000000000E+00 0.  1.
    9000005    2    1    2  501    0  0.17591192569E+02  0.66373177834E+02 -0.17447057379E+03  0.18755006736E+03  0.44942026073E+01 0.  0.
         13    1    3    3    0    0  0.13859408757E+02  0.44420845518E+02 -0.11637544829E+03  0.12533371331E+03  0.00000000000E+00 0.  1.
          1    1    3    3  501    0  0.37317838123E+01  0.21952332316E+02 -0.58095125500E+02  0.62216354051E+02  0.00000000000E+00 0.  1.
         -1    1    1    2    0  502 -0.17591192569E+02 -0.66373177834E+02 -0.81755045226E+03  0.82042890660E+03  0.00000000000E+00 0. -1.
<mgrwt>
<rscale>  1 0.30000000E+03</rscale>
<asrwt>0</asrwt>
<pdfrwt beam="1">  1       21 0.29014512E-01 0.30000000E+03</pdfrwt>
<pdfrwt beam="2">0</pdfrwt>
<totfact> 0.11622310E+03</totfact>
</mgrwt>
</event>
<event>
 6    1  0.1274196E-001  0.3000000E+03  0.7818608E-02  0.1093470E+00
         21   -1    0    0  501  502  0.00000000000E+00  0.00000000000E+00  0.54826905262E+01  0.54826905262E+01  0.00000000000E+00 0. -1.
         13   -1    0    0    0    0 -0.00000000000E+00 -0.00000000000E+00 -0.10000000000E+04  0.10000000000E+04  0.00000000000E+00 0.  1.
    9000005    2    1    2  501    0 -0.37573271656E+02 -0.25948800601E+02 -0.89287857880E+03  0.89405772667E+03  0.46873401871E+01 0.  0.
         13    1    3    3    0    0 -0.22298773493E+02 -0.12722896958E+02 -0.48499450980E+03  0.48567353432E+03  0.00000000000E+00 0.  1.
          1    1    3    3  501    0 -0.15274498163E+02 -0.13225903643E+02 -0.40788406900E+03  0.40838419235E+03  0.00000000000E+00 0.  1.
         -1    1    1    2    0  502  0.37573271656E+02  0.25948800601E+02 -0.10163873068E+03  0.11142496385E+03  0.00000000000E+00 0. -1.
<mgrwt>
<rscale>  1 0.30000000E+03</rscale>
<asrwt>0</asrwt>
<pdfrwt beam="1">  1       21 0.19937099E-01 0.30000000E+03</pdfrwt>
<pdfrwt beam="2">0</pdfrwt>
<totfact> 0.24136897E+03</totfact>
</mgrwt>
</event>
<event>
 6    1  0.1274196E-001  0.3000000E+03  0.7818608E-02  0.1093470E+00
         21   -1    0    0  501  502  0.00000000000E+00  0.00000000000E+00  0.48782695764E+01  0.48782695764E+01  0.00000000000E+00 0. -1.
         13   -1    0    0    0    0 -0.00000000000E+00 -0.00000000000E+00 -0.10000000000E+04  0.10000000000E+04  0.00000000000E+00 0.  1.
    9000005    2    1    2  501    0  0.20009031230E+01 -0.39286654386E+02 -0.91267251003E+03  0.91352555331E+03  0.32219799940E+01 0.  0.
         13    1    3    3    0    0  0.77863135558E+00 -0.32674151224E+02 -0.73682348132E+03  0.73754799780E+03  0.00000000000E+00 0.  1.
          1    1    3    3  501    0  0.12222717674E+01 -0.66125031620E+01 -0.17584902871E+03  0.17597755551E+03  0.00000000000E+00 0.  1.
         -3    1    1    2    0  502 -0.20009031230E+01  0.39286654386E+02 -0.82449220394E+02  0.91352716269E+02  0.00000000000E+00 0. -1.
<mgrwt>
<rscale>  1 0.30000000E+03</rscale>
<asrwt>0</asrwt>
<pdfrwt beam="1">  1       21 0.17739200E-01 0.30000000E+03</pdfrwt>
<pdfrwt beam="2">0</pdfrwt>
<totfact> 0.30111338E+03</totfact>
</mgrwt>
</event>
<event>
 6    1  0.1274196E-001  0.3000000E+03  0.7818608E-02  0.1093470E+00
         21   -1    0    0  501  502  0.00000000000E+00  0.00000000000E+00  0.22935409904E+01  0.22935409904E+01  0.00000000000E+00 0. -1.
         13   -1    0    0    0    0 -0.00000000000E+00 -0.00000000000E+00 -0.10000000000E+04  0.10000000000E+04  0.00000000000E+00 0.  1.
    9000005    2    1    2  501    0 -0.40131614643E+02 -0.10452428829E+02 -0.25057926907E+03  0.25401629443E+03  0.38089355001E+01 0.  0.
         13    1    3    3    0    0 -0.38754218259E+02 -0.94952709816E+01 -0.24296236183E+03  0.24621689396E+03  0.00000000000E+00 0.  1.
          3    1    3    3  501    0 -0.13773963843E+01 -0.95715784743E+00 -0.76169072308E+01  0.77994004710E+01  0.00000000000E+00 0.  1.
         -1    1    1    2    0  502  0.40131614643E+02  0.10452428829E+02 -0.74712718994E+03  0.74827724656E+03  0.00000000000E+00 0. -1.
<mgrwt>
<rscale>  1 0.30000000E+03</rscale>
<asrwt>0</asrwt>
<pdfrwt beam="1">  1       21 0.83401666E-02 0.30000000E+03</pdfrwt>
<pdfrwt beam="2">0</pdfrwt>
<totfact> 0.11871822E+04</totfact>
</mgrwt>
</event>
<event>
 6    1  0.1274196E-001  0.3000000E+03  0.7818608E-02  0.1093470E+00
         21   -1    0    0  501  502  0.00000000000E+00  0.00000000000E+00  0.15083091289E+01  0.15083091289E+01  0.00000000000E+00 0. -1.
         13   -1    0    0    0    0 -0.00000000000E+00 -0.00000000000E+00 -0.10000000000E+04  0.10000000000E+04  0.00000000000E+00 0.  1.
    9000005    2    1    2  501    0  0.22300448848E+02 -0.31525067321E+02 -0.47261530456E+03  0.47421606230E+03  0.49505301331E+01 0.  0.
         13    1    3    3    0    0  0.10768721051E+02 -0.12160946899E+02 -0.17773020374E+03  0.17847094806E+03  0.00000000000E+00 0.  1.
          1    1    3    3  501    0  0.11531727797E+02 -0.19364120422E+02 -0.29488510082E+03  0.29574511423E+03  0.00000000000E+00 0.  1.
         -1    1    1    2    0  502 -0.22300448848E+02  0.31525067321E+02 -0.52587638631E+03  0.52729224683E+03  0.00000000000E+00 0. -1.
<mgrwt>
<rscale>  1 0.30000000E+03</rscale>
<asrwt>0</asrwt>
<pdfrwt beam="1">  1       21 0.54847720E-02 0.30000000E+03</pdfrwt>
<pdfrwt beam="2">0</pdfrwt>
<totfact> 0.24590765E+04</totfact>
</mgrwt>
</event>
<event>
 6    1  0.1274196E-001  0.3000000E+03  0.7818608E-02  0.1093470E+00
         21   -1    0    0  501  502  0.00000000000E+00  0.00000000000E+00  0.10224045259E+01  0.10224045259E+01  0.00000000000E+00 0. -1.
         13   -1    0    0    0    0 -0.00000000000E+00 -0.00000000000E+00 -0.10000000000E+04  0.10000000000E+04  0.00000000000E+00 0.  1.
    9000005    2    1    2  501    0 -0.31835026837E+02  0.10012483790E+00 -0.47662605774E+03  0.47770165400E+03  0.36044913816E+01 0.  0.
         13    1    3    3    0    0 -0.14972091228E+02 -0.80848974039E+00 -0.20070052928E+03  0.20125983112E+03  0.00000000000E+00 0.  1.
          1    1    3    3  501    0 -0.16862935609E+02  0.90861457829E+00 -0.27592552846E+03  0.27644182287E+03  0.00000000000E+00 0.  1.
         -1    1    1    2    0  502  0.31835026837E+02 -0.10012483790E+00 -0.52235153774E+03  0.52332075053E+03  0.00000000000E+00 0. -1.
<mgrwt>
<rscale>  1 0.30000000E+03</rscale>
<asrwt>0</asrwt>
<pdfrwt beam="1">  1       21 0.37178425E-02 0.30000000E+03</pdfrwt>
<pdfrwt beam="2">0</pdfrwt>
<totfact> 0.47549906E+04</totfact>
</mgrwt>
</event>
<event>
 6    1  0.1274196E-001  0.3000000E+03  0.7818608E-02  0.1093470E+00
         21   -1    0    0  501  502  0.00000000000E+00  0.00000000000E+00  0.18725748541E+01  0.18725748541E+01  0.00000000000E+00 0. -1.
         13   -1    0    0    0    0 -0.00000000000E+00 -0.00000000000E+00 -0.10000000000E+04  0.10000000000E+04  0.00000000000E+00 0.  1.
    9000005    2    1    2  501    0  0.51845882702E+01  0.40605689741E+02 -0.33930618001E+03  0.34178081227E+03  0.31205520258E+01 0.  0.
         13    1    3    3    0    0  0.18115843085E+01  0.55921025883E+01 -0.48967745235E+02  0.49319301723E+02  0.00000000000E+00 0.  1.
          1    1    3    3  501    0  0.33730039617E+01  0.35013587153E+02 -0.29033843478E+03  0.29246151054E+03  0.00000000000E+00 0.  1.
         -1    1    1    2    0  502 -0.51845882702E+01 -0.40605689741E+02 -0.65882124514E+03  0.66009176259E+03  0.00000000000E+00 0. -1.
<mgrwt>
<rscale>  1 0.30000000E+03</rscale>
<asrwt>0</asrwt>
<pdfrwt beam="1">  1       21 0.68093775E-02 0.30000000E+03</pdfrwt>
<pdfrwt beam="2">0</pdfrwt>
<totfact> 0.16928635E+04</totfact>
</mgrwt>
</event>
<event>
 6    1  0.1274196E-001  0.3000000E+03  0.7818608E-02  0.1093470E+00
         21   -1    0    0  501  502  0.00000000000E+00  0.00000000000E+00  0.27033434589E+01  0.27033434589E+01  0.00000000000E+00 0. -1.
         13   -1    0    0    0    0 -0.00000000000E+00 -0.00000000000E+00 -0.10000000000E+04  0.10000000000E+04  0.00000000000E+00 0.  1.
    9000005    2    1    2  501    0  0.92984265352E+01  0.35619084724E+02 -0.85243962294E+03  0.85324184301E+03  0.36265648885E+01 0.  0.
         13    1    3    3    0    0  0.75617389545E+01  0.32918358721E+02 -0.78203753263E+03  0.78276656845E+03  0.00000000000E+00 0.  1.
          3    1    3    3  501    0  0.17366875807E+01  0.27007260025E+01 -0.70402090310E+02  0.70475274562E+02  0.00000000000E+00 0.  1.
         -3    1    1    2    0  502 -0.92984265352E+01 -0.35619084724E+02 -0.14485703360E+03  0.14946150045E+03  0.00000000000E+00 0. -1.
<mgrwt>
<rscale>  1 0.30000000E+03</rscale>
<asrwt>0</asrwt>
<pdfrwt beam="1">  1       21 0.98303606E-02 0.30000000E+03</pdfrwt>
<pdfrwt beam="2">0</pdfrwt>
<totfact> 0.88701400E+03</totfact>
</mgrwt>
</event>
<event>
 6    1  0.1274196E-001  0.3000000E+03  0.7818608E-02  0.1093470E+00
         21   -1    0    0  501  502  0.00000000000E+00  0.00000000000E+00  0.37929205767E+01  0.37929205767E+01  0.00000000000E+00 0. -1.
         13   -1    0    0    0    0 -0.00000000000E+00 -0.00000000000E+00 -0.10000000000E+04  0.10000000000E+04  0.00000000000E+00 0.  1.
    9000005    2    1    2  501    0  0.30774662703E+02  0.14523307466E+02 -0.80821883652E+02  0.87775419128E+02  0.37869515019E+01 0.  0.
         13    1    3    3    0    0  0.15997923576E+02  0.55159844926E+01 -0.41110150127E+02  0.44456766494E+02  0.00000000000E+00 0.  1.
          1    1    3    3  501    0  0.14776739127E+02  0.90073229735E+01 -0.39711733525E+02  0.43318652633E+02  0.00000000000E+00 0.  1.
         -3    1    1    2    0  502 -0.30774662703E+02 -0.14523307466E+02 -0.91538519577E+03  0.91601750145E+03  0.00000000000E+00 0. -1.
<mgrwt>
<rscale>  1 0.30000000E+03</rscale>
<asrwt>0</asrwt>
<pdfrwt beam="1">  1       21 0.13792468E-01 0.30000000E+03</pdfrwt>
<pdfrwt beam="2">0</pdfrwt>
<totfact> 0.48066916E+03</totfact>
</mgrwt>
</event>
<event>
 6    1  0.1274196E-001  0.3000000E+03  0.7818608E-02  0.1093470E+00
         21   -1    0    0  501  502  0.00000000000E+00  0.00000000000E+00  0.27406375327E+01  0.27406375327E+01  0.00000000000E+00 0. -1.
         13   -1    0    0    0    0 -0.00000000000E+00 -0.00000000000E+00 -0.10000000000E+04  0.10000000000E+04  0.00000000000E+00 0.  1.
    9000005    2    1    2  501    0  0.30461014817E+02 -0.17301819538E+02 -0.87101884871E+03  0.87172959336E+03  0.33797542178E+01 0.  0.
         13    1    3    3    0    0  0.34975116683E+01 -0.17906834979E+01 -0.74467439289E+02  0.74571030901E+02  0.00000000000E+00 0.  1.
          3    1    3    3  501    0  0.26963503149E+02 -0.15511136040E+02 -0.79655140942E+03  0.79715856246E+03  0.00000000000E+00 0.  1.
         -1    1    1    2    0  502 -0.30461014817E+02  0.17301819538E+02 -0.12624051376E+03  0.13101104418E+03  0.00000000000E+00 0. -1.
<mgrwt>
<rscale>  1 0.30000000E+03</rscale>
<asrwt>0</asrwt>
<pdfrwt beam="1">  1       21 0.99659757E-02 0.30000000E+03</pdfrwt>
<pdfrwt beam="2">0</pdfrwt>
<totfact> 0.86557453E+03</totfact>
</mgrwt>
</event>
<event>
 6    1  0.1274196E-001  0.3000000E+03  0.7818608E-02  0.1093470E+00
         21   -1    0    0  501  502  0.00000000000E+00  0.00000000000E+00  0.24672322219E+01  0.24672322219E+01  0.00000000000E+00 0. -1.
         13   -1    0    0    0    0 -0.00000000000E+00 -0.00000000000E+00 -0.10000000000E+04  0.10000000000E+04  0.00000000000E+00 0.  1.
    9000005    2    1    2  501    0  0.38403672122E+02  0.48263939705E+01 -0.81140544988E+03  0.81235801472E+03  0.69716478308E+01 0.  0.
         13    1    3    3    0    0  0.15422979057E+02  0.52499431007E+01 -0.35732936780E+03  0.35770058328E+03  0.00000000000E+00 0.  1.
          1    1    3    3  501    0  0.22980693065E+02 -0.42354913016E+00 -0.45407608208E+03  0.45465743144E+03  0.00000000000E+00 0.  1.
         -1    1    1    2    0  502 -0.38403672122E+02 -0.48263939705E+01 -0.18612731790E+03  0.19010921750E+03  0.00000000000E+00 0. -1.
<mgrwt>
<rscale>  1 0.30000000E+03</rscale>
<asrwt>0</asrwt>
<pdfrwt beam="1">  1       21 0.89717725E-02 0.30000000E+03</pdfrwt>
<pdfrwt beam="2">0</pdfrwt>
<totfact> 0.10436000E+04</totfact>
</mgrwt>
</event>
<event>
 6    1  0.1274196E-001  0.3000000E+03  0.7818608E-02  0.1093470E+00
         21   -1    0    0  501  502  0.00000000000E+00  0.00000000000E+00  0.17833240322E+01  0.17833240322E+01  0.00000000000E+00 0. -1.
         13   -1    0    0    0    0 -0.00000000000E+00 -0.00000000000E+00 -0.10000000000E+04  0.10000000000E+04  0.00000000000E+00 0.  1.
    9000005    2    1    2  501    0  0.27781653796E+02 -0.25914440140E+02 -0.71111715599E+03  0.71218098829E+03  0.84126122000E+01 0.  0.
         13    1    3    3    0    0  0.26240098999E+02 -0.20815580972E+02 -0.62917056504E+03  0.63006145027E+03  0.00000000000E+00 0.  1.
          3    1    3    3  501    0  0.15415547972E+01 -0.50988591680E+01 -0.81946590957E+02  0.82119538026E+02  0.00000000000E+00 0.  1.
         -1    1    1    2    0  502 -0.27781653796E+02  0.25914440140E+02 -0.28709951998E+03  0.28960233574E+03  0.00000000000E+00 0. -1.
<mgrwt>
<rscale>  1 0.30000000E+03</rscale>
<asrwt>0</asrwt>
<pdfrwt beam="1">  1       21 0.64848283E-02 0.30000000E+03</pdfrwt>
<pdfrwt beam="2">0</pdfrwt>
<totfact> 0.18424434E+04</totfact>
</mgrwt>
</event>
<event>
 6    1  0.1274196E-001  0.3000000E+03  0.7818608E-02  0.1093470E+00
         21   -1    0    0  501  502  0.00000000000E+00  0.00000000000E+00  0.12980966609E+01  0.12980966609E+01  0.00000000000E+00 0. -1.
         13   -1    0    0    0    0 -0.00000000000E+00 -0.00000000000E+00 -0.10000000000E+04  0.10000000000E+04  0.00000000000E+00 0.  1.
    9000005    2    1    2  501    0 -0.29311089968E+02  0.98124457635E+01 -0.75564838604E+03  0.75628700230E+03  0.31815783240E+01 0.  0.
         13    1    3    3    0    0 -0.21921370232E+02  0.58522414197E+01 -0.55067570731E+03  0.55114293049E+03  0.00000000000E+00 0.  1.
          3    1    3    3  501    0 -0.73897197355E+01  0.39602043439E+01 -0.20497267873E+03  0.20514407181E+03  0.00000000000E+00 0.  1.
         -3    1    1    2    0  502  0.29311089968E+02 -0.98124457635E+01 -0.24305351730E+03  0.24501109436E+03  0.00000000000E+00 0. -1.
<mgrwt>
<rscale>  1 0.30000000E+03</rscale>
<asrwt>0</asrwt>
<pdfrwt beam="1">  1       21 0.47203614E-02 0.30000000E+03</pdfrwt>
<pdfrwt beam="2">0</pdfrwt>
<totfact> 0.31769950E+04</totfact>
</mgrwt>
</event>
<event>
 6    1  0.1274196E-001  0.3000000E+03  0.7818608E-02  0.1093470E+00
         21   -1    0    0  501  502  0.00000000000E+00  0.00000000000E+00  0.12587828307E+02  0.12587828307E+02  0.00000000000E+00 0. -1.
         13   -1    0    0    0    0 -0.00000000000E+00 -0.00000000000E+00 -0.10000000000E+04  0.10000000000E+04  0.00000000000E+00 0.  1.
    9000005    2    1    2  501    0 -0.10732209987E+03 -0.31256156041E+02 -0.46539150679E+03  0.47873339590E+03  0.10071213898E+02 0.  0.
         13    1    3    3    0    0 -0.49618377860E+02 -0.10629809680E+02 -0.22546868798E+03  0.23110842809E+03  0.00000000000E+00 0.  1.
          3    1    3    3  501    0 -0.57703722013E+02 -0.20626346361E+02 -0.23992281881E+03  0.24762496781E+03  0.00000000000E+00 0.  1.
         -1    1    1    2    0  502  0.10732209987E+03  0.31256156041E+02 -0.52202066490E+03  0.53385443240E+03  0.00000000000E+00 0. -1.
<mgrwt>
<rscale>  1 0.30000000E+03</rscale>
<asrwt>0</asrwt>
<pdfrwt beam="1">  1       21 0.45774018E-01 0.30000000E+03</pdfrwt>
<pdfrwt beam="2">0</pdfrwt>
<totfact> 0.45427874E+02</totfact>
</mgrwt>
</event>
<event>
 6    1  0.1274196E-001  0.3000000E+03  0.7818608E-02  0.1093470E+00
         21   -1    0    0  501  502  0.00000000000E+00  0.00000000000E+00  0.19657249078E+01  0.19657249078E+01  0.00000000000E+00 0. -1.
         13   -1    0    0    0    0 -0.00000000000E+00 -0.00000000000E+00 -0.10000000000E+04  0.10000000000E+04  0.00000000000E+00 0.  1.
    9000005    2    1    2  501    0 -0.28774518931E+02 -0.19992861294E+02 -0.80168137058E+03  0.80251109209E+03  0.10165901282E+02 0.  0.
         13    1    3    3    0    0 -0.17153628530E+02 -0.12410504395E+02 -0.36866724786E+03  0.36927470430E+03  0.00000000000E+00 0.  1.
          3    1    3    3  501    0 -0.11620890401E+02 -0.75823568984E+01 -0.43301412272E+03  0.43323638779E+03  0.00000000000E+00 0.  1.
         -1    1    1    2    0  502  0.28774518931E+02  0.19992861294E+02 -0.19635290451E+03  0.19945463282E+03  0.00000000000E+00 0. -1.
<mgrwt>
<rscale>  1 0.30000000E+03</rscale>
<asrwt>0</asrwt>
<pdfrwt beam="1">  1       21 0.71481056E-02 0.30000000E+03</pdfrwt>
<pdfrwt beam="2">0</pdfrwt>
<totfact> 0.15557442E+04</totfact>
</mgrwt>
</event>
<event>
 6    1  0.1274196E-001  0.3000000E+03  0.7818608E-02  0.1093470E+00
         21   -1    0    0  501  502  0.00000000000E+00  0.00000000000E+00  0.14755304020E+01  0.14755304020E+01  0.00000000000E+00 0. -1.
         13   -1    0    0    0    0 -0.00000000000E+00 -0.00000000000E+00 -0.10000000000E+04  0.10000000000E+04  0.00000000000E+00 0.  1.
    9000005    2    1    2  501    0  0.16246648316E+02 -0.30787317057E+02 -0.70994594364E+03  0.71080496410E+03  0.29396629360E+01 0.  0.
         13    1    3    3    0    0  0.24169764996E+01 -0.67883752350E+01 -0.13487722823E+03  0.13506957655E+03  0.00000000000E+00 0.  1.
          3    1    3    3  501    0  0.13829671816E+02 -0.23998941822E+02 -0.57506871541E+03  0.57573538755E+03  0.00000000000E+00 0.  1.
         -1    1    1    2    0  502 -0.16246648316E+02  0.30787317057E+02 -0.28857852596E+03  0.29067056631E+03  0.00000000000E+00 0. -1.
<mgrwt>
<rscale>  1 0.30000000E+03</rscale>
<asrwt>0</asrwt>
<pdfrwt beam="1">  1       21 0.53655764E-02 0.30000000E+03</pdfrwt>
<pdfrwt beam="2">0</pdfrwt>
<totfact> 0.25533934E+04</totfact>
</mgrwt>
</event>
<event>
 6    1  0.1274196E-001  0.3000000E+03  0.7818608E-02  0.1093470E+00
         21   -1    0    0  501  502  0.00000000000E+00  0.00000000000E+00  0.19667755995E+02  0.19667755995E+02  0.00000000000E+00 0. -1.
         13   -1    0    0    0    0 -0.00000000000E+00 -0.00000000000E+00 -0.10000000000E+04  0.10000000000E+04  0.00000000000E+00 0.  1.
    9000005    2    1    2  501    0 -0.12493941648E+03 -0.10905331499E+02 -0.71825444942E+03  0.72912764781E+03  0.29813840060E+01 0.  0.
         13    1    3    3    0    0 -0.95254349936E+02 -0.70432202518E+01 -0.54624567847E+03  0.55453344298E+03  0.00000000000E+00 0.  1.
          1    1    3    3  501    0 -0.29685066549E+02 -0.38621112469E+01 -0.17200877095E+03  0.17459420484E+03  0.00000000000E+00 0.  1.
         -3    1    1    2    0  502  0.12493941648E+03  0.10905331499E+02 -0.26207779459E+03  0.29054010818E+03  0.00000000000E+00 0. -1.
<mgrwt>
<rscale>  1 0.30000000E+03</rscale>
<asrwt>0</asrwt>
<pdfrwt beam="1">  1       21 0.71519264E-01 0.30000000E+03</pdfrwt>
<pdfrwt beam="2">0</pdfrwt>
<totfact> 0.16778284E+02</totfact>
</mgrwt>
</event>
<event>
 6    1  0.1274196E-001  0.3000000E+03  0.7818608E-02  0.1093470E+00
         21   -1    0    0  501  502  0.00000000000E+00  0.00000000000E+00  0.12766976367E+01  0.12766976367E+01  0.00000000000E+00 0. -1.
         13   -1    0    0    0    0 -0.00000000000E+00 -0.00000000000E+00 -0.10000000000E+04  0.10000000000E+04  0.00000000000E+00 0.  1.
    9000005    2    1    2  501    0  0.29445493914E+02 -0.13616991022E+02 -0.30581234640E+03  0.30760670949E+03  0.69452831901E+01 0.  0.
         13    1    3    3    0    0  0.27732143909E+02 -0.13456407093E+02 -0.29882399609E+03  0.30040959928E+03  0.00000000000E+00 0.  1.
          3    1    3    3  501    0  0.17133500050E+01 -0.16058392941E+00 -0.69883503048E+01  0.71971102132E+01  0.00000000000E+00 0.  1.
         -1    1    1    2    0  502 -0.29445493914E+02  0.13616991022E+02 -0.69291095597E+03  0.69366998815E+03  0.00000000000E+00 0. -1.
<mgrwt>
<rscale>  1 0.30000000E+03</rscale>
<asrwt>0</asrwt>
<pdfrwt beam="1">  1       21 0.46425467E-02 0.30000000E+03</pdfrwt>
<pdfrwt beam="2">0</pdfrwt>
<totfact> 0.32680499E+04</totfact>
</mgrwt>
</event>
<event>
 6    1  0.1274196E-001  0.3000000E+03  0.7818608E-02  0.1093470E+00
         21   -1    0    0  501  502  0.00000000000E+00  0.00000000000E+00  0.17497604768E+01  0.17497604768E+01  0.00000000000E+00 0. -1.
         13   -1    0    0    0    0 -0.00000000000E+00 -0.00000000000E+00 -0.10000000000E+04  0.10000000000E+04  0.00000000000E+00 0.  1.
    9000005    2    1    2  501    0  0.10036270220E+02 -0.39771566027E+02 -0.40407595049E+03  0.40616132042E+03  0.26721255037E+01 0.  0.
         13    1    3    3    0    0  0.21042508679E+01 -0.57782530560E+01 -0.67969957549E+02  0.68247572919E+02  0.00000000000E+00 0.  1.
          1    1    3    3  501    0  0.79320193521E+01 -0.33993312971E+02 -0.33610599294E+03  0.33791374750E+03  0.00000000000E+00 0.  1.
         -1    1    1    2    0  502 -0.10036270220E+02  0.39771566027E+02 -0.59417428903E+03  0.59558844006E+03  0.00000000000E+00 0. -1.
<mgrwt>
<rscale>  1 0.30000000E+03</rscale>
<asrwt>0</asrwt>
<pdfrwt beam="1">  1       21 0.63627788E-02 0.30000000E+03</pdfrwt>
<pdfrwt beam="2">0</pdfrwt>
<totfact> 0.19040196E+04</totfact>
</mgrwt>
</event>
<event>
 6    1  0.1274196E-001  0.3000000E+03  0.7818608E-02  0.1093470E+00
         21   -1    0    0  501  502  0.00000000000E+00  0.00000000000E+00  0.15424421096E+01  0.15424421096E+01  0.00000000000E+00 0. -1.
         13   -1    0    0    0    0 -0.00000000000E+00 -0.00000000000E+00 -0.10000000000E+04  0.10000000000E+04  0.00000000000E+00 0.  1.
    9000005    2    1    2  501    0 -0.14883330953E+02  0.33386891797E+02 -0.68081611087E+03  0.68180460114E+03  0.32770761679E+01 0.  0.
         13    1    3    3    0    0 -0.48148607366E+01  0.87402518519E+01 -0.16423909225E+03  0.16454195303E+03  0.00000000000E+00 0.  1.
          1    1    3    3  501    0 -0.10068470216E+02  0.24646639945E+02 -0.51657701863E+03  0.51726264811E+03  0.00000000000E+00 0.  1.
         -1    1    1    2    0  502  0.14883330953E+02 -0.33386891797E+02 -0.31764144702E+03  0.31973784097E+03  0.00000000000E+00 0. -1.
<mgrwt>
<rscale>  1 0.30000000E+03</rscale>
<asrwt>0</asrwt>
<pdfrwt beam="1">  1       21 0.56088922E-02 0.30000000E+03</pdfrwt>
<pdfrwt beam="2">0</pdfrwt>
<totfact> 0.23664499E+04</totfact>
</mgrwt>
</event>
<event>
 6    1  0.1274196E-001  0.3000000E+03  0.7818608E-02  0.1093470E+00
         21   -1    0    0  501  502  0.00000000000E+00  0.00000000000E+00  0.20593363603E+01  0.20593363603E+01  0.00000000000E+00 0. -1.
         13   -1    0    0    0    0 -0.00000000000E+00 -0.00000000000E+00 -0.10000000000E+04  0.10000000000E+04  0.00000000000E+00 0.  1.
    9000005    2    1    2  501    0  0.17906614053E+00  0.30904595458E+02 -0.86561718345E+03  0.86617471804E+03  0.32261140839E+01 0.  0.
         13    1    3    3    0    0  0.13679667391E+01  0.23108325054E+02 -0.66375231115E+03  0.66415585262E+03  0.00000000000E+00 0.  1.
          3    1    3    3  501    0 -0.11889005986E+01  0.77962704042E+01 -0.20186487230E+03  0.20201886542E+03  0.00000000000E+00 0.  1.
         -3    1    1    2    0  502 -0.17906614053E+00 -0.30904595458E+02 -0.13232348019E+03  0.13588461832E+03  0.00000000000E+00 0. -1.
<mgrwt>
<rscale>  1 0.30000000E+03</rscale>
<asrwt>0</asrwt>
<pdfrwt beam="1">  1       21 0.74885116E-02 0.30000000E+03</pdfrwt>
<pdfrwt beam="2">0</pdfrwt>
<totfact> 0.14342907E+04</totfact>
</mgrwt>
</event>
<event>
 6    1  0.1274196E-001  0.3000000E+03  0.7818608E-02  0.1093470E+00
         21   -1    0    0  501  502  0.00000000000E+00  0.00000000000E+00  0.28609899174E+01  0.28609899174E+01  0.00000000000E+00 0. -1.
         13   -1    0    0    0    0 -0.00000000000E+00 -0.00000000000E+00 -0.10000000000E+04  0.10000000000E+04  0.00000000000E+00 0.  1.
    9000005    2    1    2  501    0 -0.27103369682E+02  0.41198964174E+02 -0.69206723324E+03  0.69382905577E+03  0.31234610142E+01 0.  0.
         13    1    3    3    0    0 -0.24513214585E+02  0.35424326789E+02 -0.59977321600E+03  0.60131829446E+03  0.00000000000E+00 0.  1.
          1    1    3    3  501    0 -0.25901550972E+01  0.57746373852E+01 -0.92294017238E+02  0.92510761311E+02  0.00000000000E+00 0.  1.
         -3    1    1    2    0  502  0.27103369682E+02 -0.41198964174E+02 -0.30507177685E+03  0.30903193415E+03  0.00000000000E+00 0. -1.
<mgrwt>
<rscale>  1 0.30000000E+03</rscale>
<asrwt>0</asrwt>
<pdfrwt beam="1">  1       21 0.10403622E-01 0.30000000E+03</pdfrwt>
<pdfrwt beam="2">0</pdfrwt>
<totfact> 0.80152264E+03</totfact>
</mgrwt>
</event>
<event>
 6    1  0.1274196E-001  0.3000000E+03  0.7818608E-02  0.1093470E+00
         21   -1    0    0  501  502  0.00000000000E+00  0.00000000000E+00  0.20940856941E+01  0.20940856941E+01  0.00000000000E+00 0. -1.
         13   -1    0    0    0    0 -0.00000000000E+00 -0.00000000000E+00 -0.10000000000E+04  0.10000000000E+04  0.00000000000E+00 0.  1.
    9000005    2    1    2  501    0  0.32167949659E+02 -0.10977142194E+02 -0.83416072954E+03  0.83485844305E+03  0.30368720050E+01 0.  0.
         13    1    3    3    0    0  0.25395972932E+02 -0.98510221672E+01 -0.67745431231E+03  0.67800172813E+03  0.00000000000E+00 0.  1.
          1    1    3    3  501    0  0.67719767272E+01 -0.11261200269E+01 -0.15670641723E+03  0.15685671492E+03  0.00000000000E+00 0.  1.
         -3    1    1    2    0  502 -0.32167949659E+02  0.10977142194E+02 -0.16374518476E+03  0.16723564264E+03  0.00000000000E+00 0. -1.
<mgrwt>
<rscale>  1 0.30000000E+03</rscale>
<asrwt>0</asrwt>
<pdfrwt beam="1">  1       21 0.76148731E-02 0.30000000E+03</pdfrwt>
<pdfrwt beam="2">0</pdfrwt>
<totfact> 0.13928666E+04</totfact>
</mgrwt>
</event>
<event>
 6    1  0.1274196E-001  0.3000000E+03  0.7818608E-02  0.1093470E+00
         21   -1    0    0  501  502  0.00000000000E+00  0.00000000000E+00  0.19621351218E+01  0.19621351218E+01  0.00000000000E+00 0. -1.
         13   -1    0    0    0    0 -0.00000000000E+00 -0.00000000000E+00 -0.10000000000E+04  0.10000000000E+04  0.00000000000E+00 0.  1.
    9000005    2    1    2  501    0 -0.16673424781E+02 -0.28910087810E+02 -0.18432836543E+03  0.18756852896E+03  0.95504178759E+01 0.  0.
         13    1    3    3    0    0 -0.17875525470E+02 -0.26130501653E+02 -0.16610957362E+03  0.16909975746E+03  0.00000000000E+00 0.  1.
          3    1    3    3  501    0  0.12021006895E+01 -0.27795861565E+01 -0.18218791815E+02  0.18468771494E+02  0.00000000000E+00 0.  1.
         -1    1    1    2    0  502  0.16673424781E+02  0.28910087810E+02 -0.81370949945E+03  0.81439360616E+03  0.00000000000E+00 0. -1.
<mgrwt>
<rscale>  1 0.30000000E+03</rscale>
<asrwt>0</asrwt>
<pdfrwt beam="1">  1       21 0.71350519E-02 0.30000000E+03</pdfrwt>
<pdfrwt beam="2">0</pdfrwt>
<totfact> 0.15607094E+04</totfact>
</mgrwt>
</event>
<event>
 6    1  0.1274196E-001  0.3000000E+03  0.7818608E-02  0.1093470E+00
         21   -1    0    0  501  502  0.00000000000E+00  0.00000000000E+00  0.10072730701E+01  0.10072730701E+01  0.00000000000E+00 0. -1.
         13   -1    0    0    0    0 -0.00000000000E+00 -0.00000000000E+00 -0.10000000000E+04  0.10000000000E+04  0.00000000000E+00 0.  1.
    9000005    2    1    2  501    0  0.22857486240E+02  0.21098362152E+02 -0.59638821879E+03  0.59720287050E+03  0.21807007422E+01 0.  0.
         13    1    3    3    0    0  0.15559687890E+02  0.13916633592E+02 -0.41828457889E+03  0.41880516415E+03  0.00000000000E+00 0.  1.
          1    1    3    3  501    0  0.72977983502E+01  0.71817285606E+01 -0.17810363990E+03  0.17839770636E+03  0.00000000000E+00 0.  1.
         -1    1    1    2    0  502 -0.22857486240E+02 -0.21098362152E+02 -0.40260450814E+03  0.40380440257E+03  0.00000000000E+00 0. -1.
<mgrwt>
<rscale>  1 0.30000000E+03</rscale>
<asrwt>0</asrwt>
<pdfrwt beam="1">  1       21 0.36628189E-02 0.30000000E+03</pdfrwt>
<pdfrwt beam="2">0</pdfrwt>
<totfact> 0.48754826E+04</totfact>
</mgrwt>
</event>
<event>
 6    1  0.1274196E-001  0.3000000E+03  0.7818608E-02  0.1093470E+00
         21   -1    0    0  501  502  0.00000000000E+00  0.00000000000E+00  0.52973767558E+01  0.52973767558E+01  0.00000000000E+00 0. -1.
         13   -1    0    0    0    0 -0.00000000000E+00 -0.00000000000E+00 -0.10000000000E+04  0.10000000000E+04  0.00000000000E+00 0.  1.
    9000005    2    1    2  501    0  0.29501640160E+02  0.21218828927E+02 -0.93282889493E+03  0.93354123605E+03  0.29844129575E+01 0.  0.
         13    1    3    3    0    0  0.67423985376E+01  0.61351315742E+01 -0.25354087331E+03  0.25370469884E+03  0.00000000000E+00 0.  1.
          3    1    3    3  501    0  0.22759241623E+02  0.15083697353E+02 -0.67928802162E+03  0.67983653721E+03  0.00000000000E+00 0.  1.
         -1    1    1    2    0  502 -0.29501640160E+02 -0.21218828927E+02 -0.61873728316E+02  0.71756140705E+02  0.00000000000E+00 0. -1.
<mgrwt>
<rscale>  1 0.30000000E+03</rscale>
<asrwt>0</asrwt>
<pdfrwt beam="1">  1       21 0.19263229E-01 0.30000000E+03</pdfrwt>
<pdfrwt beam="2">0</pdfrwt>
<totfact> 0.25769393E+03</totfact>
</mgrwt>
</event>
<event>
 6    1  0.1274196E-001  0.3000000E+03  0.7818608E-02  0.1093470E+00
         21   -1    0    0  501  502  0.00000000000E+00  0.00000000000E+00  0.22052608311E+01  0.22052608311E+01  0.00000000000E+00 0. -1.
         13   -1    0    0    0    0 -0.00000000000E+00 -0.00000000000E+00 -0.10000000000E+04  0.10000000000E+04  0.00000000000E+00 0.  1.
    9000005    2    1    2  501    0  0.93681389732E+01 -0.45857784296E+02 -0.53043774538E+03  0.53251040451E+03  0.35257314729E+01 0.  0.
         13    1    3    3    0    0  0.92498735469E+01 -0.41744382461E+02 -0.47527726249E+03  0.47719663648E+03  0.00000000000E+00 0.  1.
          3    1    3    3  501    0  0.11826542636E+00 -0.41134018345E+01 -0.55160482891E+02  0.55313768034E+02  0.00000000000E+00 0.  1.
         -1    1    1    2    0  502 -0.93681389732E+01  0.45857784296E+02 -0.46735699379E+03  0.46969485632E+03  0.00000000000E+00 0. -1.
<mgrwt>
<rscale>  1 0.30000000E+03</rscale>
<asrwt>0</asrwt>
<pdfrwt beam="1">  1       21 0.80191472E-02 0.30000000E+03</pdfrwt>
<pdfrwt beam="2">0</pdfrwt>
<totfact> 0.12720341E+04</totfact>
</mgrwt>
</event>
<event>
 6    1  0.1274196E-001  0.3000000E+03  0.7818608E-02  0.1093470E+00
         21   -1    0    0  501  502  0.00000000000E+00  0.00000000000E+00  0.54267073245E+01  0.54267073245E+01  0.00000000000E+00 0. -1.
         13   -1    0    0    0    0 -0.00000000000E+00 -0.00000000000E+00 -0.10000000000E+04  0.10000000000E+04  0.00000000000E+00 0.  1.
    9000005    2    1    2  501    0 -0.29726805156E+02 -0.10146695155E+02 -0.95195551917E+03  0.95248416313E+03  0.44868881221E+01 0.  0.
         13    1    3    3    0    0 -0.44183245973E+01 -0.25244018852E+01 -0.11748844703E+03  0.11759859431E+03  0.00000000000E+00 0.  1.
          3    1    3    3  501    0 -0.25308480559E+02 -0.76222932696E+01 -0.83446707214E+03  0.83488556882E+03  0.00000000000E+00 0.  1.
         -3    1    1    2    0  502  0.29726805156E+02  0.10146695155E+02 -0.42617773504E+02  0.52942544195E+02  0.00000000000E+00 0. -1.
<mgrwt>
<rscale>  1 0.30000000E+03</rscale>
<asrwt>0</asrwt>
<pdfrwt beam="1">  1       21 0.19733523E-01 0.30000000E+03</pdfrwt>
<pdfrwt beam="2">0</pdfrwt>
<totfact> 0.24613876E+03</totfact>
</mgrwt>
</event>
<event>
 6    1  0.1274196E-001  0.3000000E+03  0.7818608E-02  0.1093470E+00
         21   -1    0    0  501  502  0.00000000000E+00  0.00000000000E+00  0.92938024379E+01  0.92938024379E+01  0.00000000000E+00 0. -1.
         13   -1    0    0    0    0 -0.00000000000E+00 -0.00000000000E+00 -0.10000000000E+04  0.10000000000E+04  0.00000000000E+00 0.  1.
    9000005    2    1    2  501    0  0.44699726741E+02 -0.85036430137E+02 -0.46945182884E+03  0.47926042902E+03  0.87337967374E+01 0.  0.
         13    1    3    3    0    0  0.12779911118E+02 -0.17362583130E+02 -0.11348357108E+03  0.11551323009E+03  0.00000000000E+00 0.  1.
          3    1    3    3  501    0  0.31919815622E+02 -0.67673847007E+02 -0.35596825776E+03  0.36374719893E+03  0.00000000000E+00 0.  1.
         -1    1    1    2    0  502 -0.44699726741E+02  0.85036430137E+02 -0.52125436872E+03  0.53003337342E+03  0.00000000000E+00 0. -1.
<mgrwt>
<rscale>  1 0.30000000E+03</rscale>
<asrwt>0</asrwt>
<pdfrwt beam="1">  1       21 0.33795716E-01 0.30000000E+03</pdfrwt>
<pdfrwt beam="2">0</pdfrwt>
<totfact> 0.85475591E+02</totfact>
</mgrwt>
</event>
<event>
 6    1  0.1274196E-001  0.3000000E+03  0.7818608E-02  0.1093470E+00
         21   -1    0    0  501  502  0.00000000000E+00  0.00000000000E+00  0.11197556682E+01  0.11197556682E+01  0.00000000000E+00 0. -1.
         13   -1    0    0    0    0 -0.00000000000E+00 -0.00000000000E+00 -0.10000000000E+04  0.10000000000E+04  0.00000000000E+00 0.  1.
    9000005    2    1    2  501    0  0.33682149511E+01  0.30019267773E+02 -0.71233371275E+03  0.71298538412E+03  0.40420699968E+01 0.  0.
         13    1    3    3    0    0  0.34956342375E+01  0.14751318619E+02 -0.37501251937E+03  0.37531881187E+03  0.00000000000E+00 0.  1.
          1    1    3    3  501    0 -0.12741928635E+00  0.15267949154E+02 -0.33732119338E+03  0.33766657224E+03  0.00000000000E+00 0.  1.
         -1    1    1    2    0  502 -0.33682149511E+01 -0.30019267773E+02 -0.28654653158E+03  0.28813437155E+03  0.00000000000E+00 0. -1.
<mgrwt>
<rscale>  1 0.30000000E+03</rscale>
<asrwt>0</asrwt>
<pdfrwt beam="1">  1       21 0.40718474E-02 0.30000000E+03</pdfrwt>
<pdfrwt beam="2">0</pdfrwt>
<totfact> 0.40804895E+04</totfact>
</mgrwt>
</event>
<event>
 6    1  0.1274196E-001  0.3000000E+03  0.7818608E-02  0.1093470E+00
         21   -1    0    0  501  502  0.00000000000E+00  0.00000000000E+00  0.22467992052E+01  0.22467992052E+01  0.00000000000E+00 0. -1.
         13   -1    0    0    0    0 -0.00000000000E+00 -0.00000000000E+00 -0.10000000000E+04  0.10000000000E+04  0.00000000000E+00 0.  1.
    9000005    2    1    2  501    0  0.38668174388E+02  0.25775231989E+02 -0.40398657641E+03  0.40666439977E+03  0.33451186643E+01 0.  0.
         13    1    3    3    0    0  0.12993295485E+02  0.86097483032E+01 -0.14962755835E+03  0.15043722847E+03  0.00000000000E+00 0.  1.
          1    1    3    3  501    0  0.25674878902E+02  0.17165483686E+02 -0.25435901807E+03  0.25622717130E+03  0.00000000000E+00 0.  1.
         -3    1    1    2    0  502 -0.38668174388E+02 -0.25775231989E+02 -0.59376662438E+03  0.59558239944E+03  0.00000000000E+00 0. -1.
<mgrwt>
<rscale>  1 0.30000000E+03</rscale>
<asrwt>0</asrwt>
<pdfrwt beam="1">  1       21 0.81701962E-02 0.30000000E+03</pdfrwt>
<pdfrwt beam="2">0</pdfrwt>
<totfact> 0.12309888E+04</totfact>
</mgrwt>
</event>
<event>
 6    1  0.1274196E-001  0.3000000E+03  0.7818608E-02  0.1093470E+00
         21   -1    0    0  501  502  0.00000000000E+00  0.00000000000E+00  0.14598020150E+01  0.14598020150E+01  0.00000000000E+00 0. -1.
         13   -1    0    0    0    0 -0.00000000000E+00 -0.00000000000E+00 -0.10000000000E+04  0.10000000000E+04  0.00000000000E+00 0.  1.
    9000005    2    1    2  501    0  0.19450071514E+02 -0.25088441753E+02 -0.24772266832E+03  0.24997148006E+03  0.10558657554E+02 0.  0.
         13    1    3    3    0    0  0.76828222448E+01 -0.10926957852E+02 -0.67374836119E+02  0.68686190080E+02  0.00000000000E+00 0.  1.
          3    1    3    3  501    0  0.11767249269E+02 -0.14161483901E+02 -0.18034783220E+03  0.18128528998E+03  0.00000000000E+00 0.  1.
         -3    1    1    2    0  502 -0.19450071514E+02  0.25088441753E+02 -0.75081752966E+03  0.75148832196E+03  0.00000000000E+00 0. -1.
<mgrwt>
<rscale>  1 0.30000000E+03</rscale>
<asrwt>0</asrwt>
<pdfrwt beam="1">  1       21 0.53083822E-02 0.30000000E+03</pdfrwt>
<pdfrwt beam="2">0</pdfrwt>
<totfact> 0.26006475E+04</totfact>
</mgrwt>
</event>
<event>
 6    1  0.1274196E-001  0.3000000E+03  0.7818608E-02  0.1093470E+00
         21   -1    0    0  501  502  0.00000000000E+00  0.00000000000E+00  0.29398752317E+01  0.29398752317E+01  0.00000000000E+00 0. -1.
         13   -1    0    0    0    0 -0.00000000000E+00 -0.00000000000E+00 -0.10000000000E+04  0.10000000000E+04  0.00000000000E+00 0.  1.
    9000005    2    1    2  501    0 -0.79434398837E+01 -0.53445788867E+02 -0.53534166480E+03  0.53807055288E+03  0.31098593084E+01 0.  0.
         13    1    3    3    0    0 -0.55397538799E+01 -0.32716160276E+02 -0.31498810002E+03  0.31673102023E+03  0.00000000000E+00 0.  1.
          1    1    3    3  501    0 -0.24036860038E+01 -0.20729628591E+02 -0.22035356477E+03  0.22133953265E+03  0.00000000000E+00 0.  1.
         -3    1    1    2    0  502  0.79434398837E+01  0.53445788867E+02 -0.46171845997E+03  0.46486932235E+03  0.00000000000E+00 0. -1.
<mgrwt>
<rscale>  1 0.30000000E+03</rscale>
<asrwt>0</asrwt>
<pdfrwt beam="1">  1       21 0.10690478E-01 0.30000000E+03</pdfrwt>
<pdfrwt beam="2">0</pdfrwt>
<totfact> 0.76336828E+03</totfact>
</mgrwt>
</event>
<event>
 6    1  0.1274196E-001  0.3000000E+03  0.7818608E-02  0.1093470E+00
         21   -1    0    0  501  502  0.00000000000E+00  0.00000000000E+00  0.94505946773E+00  0.94505946773E+00  0.00000000000E+00 0. -1.
         13   -1    0    0    0    0 -0.00000000000E+00 -0.00000000000E+00 -0.10000000000E+04  0.10000000000E+04  0.00000000000E+00 0.  1.
    9000005    2    1    2  501    0 -0.21861968880E+02  0.21021406505E+02 -0.57276074472E+03  0.57357334000E+03  0.34147409116E+01 0.  0.
         13    1    3    3    0    0 -0.10550264738E+02  0.11980327169E+02 -0.32047495668E+03  0.32087230199E+03  0.00000000000E+00 0.  1.
          3    1    3    3  501    0 -0.11311704142E+02  0.90410793370E+01 -0.25228578804E+03  0.25270103801E+03  0.00000000000E+00 0.  1.
         -1    1    1    2    0  502  0.21861968880E+02 -0.21021406505E+02 -0.42629419581E+03  0.42737171946E+03  0.00000000000E+00 0. -1.
<mgrwt>
<rscale>  1 0.30000000E+03</rscale>
<asrwt>0</asrwt>
<pdfrwt beam="1">  1       21 0.34365871E-02 0.30000000E+03</pdfrwt>
<pdfrwt beam="2">0</pdfrwt>
<totfact> 0.54251561E+04</totfact>
</mgrwt>
</event>
<event>
 6    1  0.1274196E-001  0.3000000E+03  0.7818608E-02  0.1093470E+00
         21   -1    0    0  501  502  0.00000000000E+00  0.00000000000E+00  0.12316856320E+01  0.12316856320E+01  0.00000000000E+00 0. -1.
         13   -1    0    0    0    0 -0.00000000000E+00 -0.00000000000E+00 -0.10000000000E+04  0.10000000000E+04  0.00000000000E+00 0.  1.
    9000005    2    1    2  501    0 -0.22553251298E+02 -0.24392418518E+02 -0.65766751621E+03  0.65851694458E+03  0.37901458639E+01 0.  0.
         13    1    3    3    0    0 -0.16183508218E+02 -0.17501341700E+02 -0.43640019098E+03  0.43705071741E+03  0.00000000000E+00 0.  1.
          3    1    3    3  501    0 -0.63697430805E+01 -0.68910768178E+01 -0.22126732523E+03  0.22146622718E+03  0.00000000000E+00 0.  1.
         -1    1    1    2    0  502  0.22553251298E+02  0.24392418518E+02 -0.34110079816E+03  0.34271474105E+03  0.00000000000E+00 0. -1.
<mgrwt>
<rscale>  1 0.30000000E+03</rscale>
<asrwt>0</asrwt>
<pdfrwt beam="1">  1       21 0.44788663E-02 0.30000000E+03</pdfrwt>
<pdfrwt beam="2">0</pdfrwt>
<totfact> 0.34734493E+04</totfact>
</mgrwt>
</event>
<event>
 6    1  0.1274196E-001  0.3000000E+03  0.7818608E-02  0.1093470E+00
         21   -1    0    0  501  502  0.00000000000E+00  0.00000000000E+00  0.23426062233E+01  0.23426062233E+01  0.00000000000E+00 0. -1.
         13   -1    0    0    0    0 -0.00000000000E+00 -0.00000000000E+00 -0.10000000000E+04  0.10000000000E+04  0.00000000000E+00 0.  1.
    9000005    2    1    2  501    0  0.28826198355E+01 -0.42308126567E+02 -0.73966540973E+03  0.74088868887E+03  0.35838336207E+01 0.  0.
         13    1    3    3    0    0  0.38269044065E+00 -0.12606920805E+02 -0.19359406877E+03  0.19400449574E+03  0.00000000000E+00 0.  1.
          3    1    3    3  501    0  0.24999293949E+01 -0.29701205762E+02 -0.54607134097E+03  0.54688419313E+03  0.00000000000E+00 0.  1.
         -3    1    1    2    0  502 -0.28826198355E+01  0.42308126567E+02 -0.25799198404E+03  0.26145391736E+03  0.00000000000E+00 0. -1.
<mgrwt>
<rscale>  1 0.30000000E+03</rscale>
<asrwt>0</asrwt>
<pdfrwt beam="1">  1       21 0.85185860E-02 0.30000000E+03</pdfrwt>
<pdfrwt beam="2">0</pdfrwt>
<totfact> 0.11437122E+04</totfact>
</mgrwt>
</event>
<event>
 6    1  0.1274196E-001  0.3000000E+03  0.7818608E-02  0.1093470E+00
         21   -1    0    0  501  502  0.00000000000E+00  0.00000000000E+00  0.11174342818E+01  0.11174342818E+01  0.00000000000E+00 0. -1.
         13   -1    0    0    0    0 -0.00000000000E+00 -0.00000000000E+00 -0.10000000000E+04  0.10000000000E+04  0.00000000000E+00 0.  1.
    9000005    2    1    2  501    0 -0.31686104080E+02  0.26941000281E+01 -0.64976472167E+03  0.65055426394E+03  0.39229373981E+01 0.  0.
         13    1    3    3    0    0 -0.28643731053E+02  0.34558551999E+01 -0.57394726294E+03  0.57467196460E+03  0.00000000000E+00 0.  1.
          1    1    3    3  501    0 -0.30423730270E+01 -0.76175517181E+00 -0.75817458733E+02  0.75882299341E+02  0.00000000000E+00 0.  1.
         -3    1    1    2    0  502  0.31686104080E+02 -0.26941000281E+01 -0.34911784405E+03  0.35056317034E+03  0.00000000000E+00 0. -1.
<mgrwt>
<rscale>  1 0.30000000E+03</rscale>
<asrwt>0</asrwt>
<pdfrwt beam="1">  1       21 0.40634060E-02 0.30000000E+03</pdfrwt>
<pdfrwt beam="2">0</pdfrwt>
<totfact> 0.40947876E+04</totfact>
</mgrwt>
</event>
<event>
 6    1  0.1274196E-001  0.3000000E+03  0.7818608E-02  0.1093470E+00
         21   -1    0    0  501  502  0.00000000000E+00  0.00000000000E+00  0.37322304516E+01  0.37322304516E+01  0.00000000000E+00 0. -1.
         13   -1    0    0    0    0 -0.00000000000E+00 -0.00000000000E+00 -0.10000000000E+04  0.10000000000E+04  0.00000000000E+00 0.  1.
    9000005    2    1    2  501    0  0.45757450042E+02 -0.13009947630E+01 -0.83028808077E+03  0.83155588507E+03  0.33846868367E+01 0.  0.
         13    1    3    3    0    0  0.20779177621E+01  0.61463182111E+00 -0.43528062482E+02  0.43581965742E+02  0.00000000000E+00 0.  1.
          1    1    3    3  501    0  0.43679532280E+02 -0.19156265841E+01 -0.78676001829E+03  0.78797391933E+03  0.00000000000E+00 0.  1.
         -3    1    1    2    0  502 -0.45757450042E+02  0.13009947630E+01 -0.16597968878E+03  0.17217634538E+03  0.00000000000E+00 0. -1.
<mgrwt>
<rscale>  1 0.30000000E+03</rscale>
<asrwt>0</asrwt>
<pdfrwt beam="1">  1       21 0.13571776E-01 0.30000000E+03</pdfrwt>
<pdfrwt beam="2">0</pdfrwt>
<totfact> 0.49509747E+03</totfact>
</mgrwt>
</event>
<event>
 6    1  0.1274196E-001  0.3000000E+03  0.7818608E-02  0.1093470E+00
         21   -1    0    0  501  502  0.00000000000E+00  0.00000000000E+00  0.11180532239E+01  0.11180532239E+01  0.00000000000E+00 0. -1.
         13   -1    0    0    0    0 -0.00000000000E+00 -0.00000000000E+00 -0.10000000000E+04  0.10000000000E+04  0.00000000000E+00 0.  1.
    9000005    2    1    2  501    0 -0.31861361114E+02  0.92164483524E+01 -0.47199587880E+03  0.47318906379E+03  0.52622465279E+01 0.  0.
         13    1    3    3    0    0 -0.21531405261E+02  0.75002198478E+01 -0.35169678898E+03  0.35243508067E+03  0.00000000000E+00 0.  1.
          3    1    3    3  501    0 -0.10329955853E+02  0.17162285046E+01 -0.12029908982E+03  0.12075398312E+03  0.00000000000E+00 0.  1.
         -3    1    1    2    0  502  0.31861361114E+02 -0.92164483524E+01 -0.52688606798E+03  0.52792898943E+03  0.00000000000E+00 0. -1.
<mgrwt>
<rscale>  1 0.30000000E+03</rscale>
<asrwt>0</asrwt>
<pdfrwt beam="1">  1       21 0.40656567E-02 0.30000000E+03</pdfrwt>
<pdfrwt beam="2">0</pdfrwt>
<totfact> 0.40909677E+04</totfact>
</mgrwt>
</event>
<event>
 6    1  0.1274196E-001  0.3000000E+03  0.7818608E-02  0.1093470E+00
         21   -1    0    0  501  502  0.00000000000E+00  0.00000000000E+00  0.11741127991E+01  0.11741127991E+01  0.00000000000E+00 0. -1.
         13   -1    0    0    0    0 -0.00000000000E+00 -0.00000000000E+00 -0.10000000000E+04  0.10000000000E+04  0.00000000000E+00 0.  1.
    9000005    2    1    2  501    0 -0.52531186037E+01 -0.30364442300E+02 -0.71576362171E+03  0.71643942795E+03  0.42775163924E+01 0.  0.
         13    1    3    3    0    0 -0.36787760813E+01 -0.24344382857E+02 -0.52989191105E+03  0.53046358948E+03  0.00000000000E+00 0.  1.
          3    1    3    3  501    0 -0.15743425224E+01 -0.60200594433E+01 -0.18587171066E+03  0.18597583847E+03  0.00000000000E+00 0.  1.
         -3    1    1    2    0  502  0.52531186037E+01  0.30364442300E+02 -0.28306226549E+03  0.28473468485E+03  0.00000000000E+00 0. -1.
<mgrwt>
<rscale>  1 0.30000000E+03</rscale>
<asrwt>0</asrwt>
<pdfrwt beam="1">  1       21 0.42695101E-02 0.30000000E+03</pdfrwt>
<pdfrwt beam="2">0</pdfrwt>
<totfact> 0.37667228E+04</totfact>
</mgrwt>
</event>
<event>
 6    1  0.1274196E-001  0.3000000E+03  0.7818608E-02  0.1093470E+00
         21   -1    0    0  501  502  0.00000000000E+00  0.00000000000E+00  0.54599503107E+01  0.54599503107E+01  0.00000000000E+00 0. -1.
         13   -1    0    0    0    0 -0.00000000000E+00 -0.00000000000E+00 -0.10000000000E+04  0.10000000000E+04  0.00000000000E+00 0.  1.
    9000005    2    1    2  501    0 -0.57220005435E+02  0.11920104805E+02 -0.80464835698E+03  0.80677660204E+03  0.36454473309E+01 0.  0.
         13    1    3    3    0    0 -0.13633549010E+02  0.42022028022E+01 -0.20762242507E+03  0.20811199764E+03  0.00000000000E+00 0.  1.
          1    1    3    3  501    0 -0.43586456425E+02  0.77179020027E+01 -0.59702593191E+03  0.59866460440E+03  0.00000000000E+00 0.  1.
         -1    1    1    2    0  502  0.57220005435E+02 -0.11920104805E+02 -0.18989169271E+03  0.19868334827E+03  0.00000000000E+00 0. -1.
<mgrwt>
<rscale>  1 0.30000000E+03</rscale>
<asrwt>0</asrwt>
<pdfrwt beam="1">  1       21 0.19854407E-01 0.30000000E+03</pdfrwt>
<pdfrwt beam="2">0</pdfrwt>
<totfact> 0.24329018E+03</totfact>
</mgrwt>
</event>
<event>
 6    1  0.1274196E-001  0.3000000E+03  0.7818608E-02  0.1093470E+00
         21   -1    0    0  501  502  0.00000000000E+00  0.00000000000E+00  0.29412872199E+01  0.29412872199E+01  0.00000000000E+00 0. -1.
         13   -1    0    0    0    0 -0.00000000000E+00 -0.00000000000E+00 -0.10000000000E+04  0.10000000000E+04  0.00000000000E+00 0.  1.
    9000005    2    1    2  501    0  0.27181777220E+02  0.41930719766E+02 -0.69269914364E+03  0.69450688317E+03  0.32669407004E+01 0.  0.
         13    1    3    3    0    0  0.15725775299E+02  0.26472352571E+02 -0.44054907693E+03  0.44162379311E+03  0.00000000000E+00 0.  1.
          3    1    3    3  501    0  0.11456001921E+02  0.15458367195E+02 -0.25215006671E+03  0.25288309006E+03  0.00000000000E+00 0.  1.
         -3    1    1    2    0  502 -0.27181777220E+02 -0.41930719766E+02 -0.30435956914E+03  0.30843440405E+03  0.00000000000E+00 0. -1.
<mgrwt>
<rscale>  1 0.30000000E+03</rscale>
<asrwt>0</asrwt>
<pdfrwt beam="1">  1       21 0.10695612E-01 0.30000000E+03</pdfrwt>
<pdfrwt beam="2">0</pdfrwt>
<totfact> 0.76271061E+03</totfact>
</mgrwt>
</event>
<event>
 6    1  0.1274196E-001  0.3000000E+03  0.7818608E-02  0.1093470E+00
         21   -1    0    0  501  502  0.00000000000E+00  0.00000000000E+00  0.20149173582E+01  0.20149173582E+01  0.00000000000E+00 0. -1.
         13   -1    0    0    0    0 -0.00000000000E+00 -0.00000000000E+00 -0.10000000000E+04  0.10000000000E+04  0.00000000000E+00 0.  1.
    9000005    2    1    2  501    0  0.24161303272E+02 -0.25761151674E+02 -0.80779413585E+03  0.80857241491E+03  0.32524960432E+01 0.  0.
         13    1    3    3    0    0  0.12135416762E+02 -0.14317862784E+02 -0.39840808839E+03  0.39884993974E+03  0.00000000000E+00 0.  1.
          1    1    3    3  501    0  0.12025886510E+02 -0.11443288890E+02 -0.40938604746E+03  0.40972247517E+03  0.00000000000E+00 0.  1.
         -1    1    1    2    0  502 -0.24161303272E+02  0.25761151674E+02 -0.19019094679E+03  0.19344250245E+03  0.00000000000E+00 0. -1.
<mgrwt>
<rscale>  1 0.30000000E+03</rscale>
<asrwt>0</asrwt>
<pdfrwt beam="1">  1       21 0.73269877E-02 0.30000000E+03</pdfrwt>
<pdfrwt beam="2">0</pdfrwt>
<totfact> 0.14900559E+04</totfact>
</mgrwt>
</event>
<event>
 6    1  0.1274196E-001  0.3000000E+03  0.7818608E-02  0.1093470E+00
         21   -1    0    0  501  502  0.00000000000E+00  0.00000000000E+00  0.78669201039E+01  0.78669201039E+01  0.00000000000E+00 0. -1.
         13   -1    0    0    0    0 -0.00000000000E+00 -0.00000000000E+00 -0.10000000000E+04  0.10000000000E+04  0.00000000000E+00 0.  1.
    9000005    2    1    2  501    0 -0.36529299669E+02  0.55299295621E+02 -0.83087270027E+03  0.83351867128E+03  0.33955101284E+01 0.  0.
         13    1    3    3    0    0 -0.21592423640E+02  0.35432425087E+02 -0.51151165387E+03  0.51319183699E+03  0.00000000000E+00 0.  1.
          1    1    3    3  501    0 -0.14936876029E+02  0.19866870534E+02 -0.31936104640E+03  0.32032683429E+03  0.00000000000E+00 0.  1.
         -3    1    1    2    0  502  0.36529299669E+02 -0.55299295621E+02 -0.16126037962E+03  0.17434824882E+03  0.00000000000E+00 0. -1.
<mgrwt>
<rscale>  1 0.30000000E+03</rscale>
<asrwt>0</asrwt>
<pdfrwt beam="1">  1       21 0.28607043E-01 0.30000000E+03</pdfrwt>
<pdfrwt beam="2">0</pdfrwt>
<totfact> 0.11953993E+03</totfact>
</mgrwt>
</event>
<event>
 6    1  0.1274196E-001  0.3000000E+03  0.7818608E-02  0.1093470E+00
         21   -1    0    0  501  502  0.00000000000E+00  0.00000000000E+00  0.12011854827E+01  0.12011854827E+01  0.00000000000E+00 0. -1.
         13   -1    0    0    0    0 -0.00000000000E+00 -0.00000000000E+00 -0.10000000000E+04  0.10000000000E+04  0.00000000000E+00 0.  1.
    9000005    2    1    2  501    0  0.24369376796E+02 -0.24114700254E+02 -0.56566876865E+03  0.56671640793E+03  0.33084580843E+01 0.  0.
         13    1    3    3    0    0  0.21580037662E+02 -0.20236766776E+02 -0.49961844023E+03  0.50049356697E+03  0.00000000000E+00 0.  1.
          1    1    3    3  501    0  0.27893391347E+01 -0.38779334779E+01 -0.66050328423E+02  0.66222840967E+02  0.00000000000E+00 0.  1.
         -3    1    1    2    0  502 -0.24369376796E+02  0.24114700254E+02 -0.43313004586E+03  0.43448477755E+03  0.00000000000E+00 0. -1.
<mgrwt>
<rscale>  1 0.30000000E+03</rscale>
<asrwt>0</asrwt>
<pdfrwt beam="1">  1       21 0.43679564E-02 0.30000000E+03</pdfrwt>
<pdfrwt beam="2">0</pdfrwt>
<totfact> 0.36242259E+04</totfact>
</mgrwt>
</event>
<event>
 6    1  0.1274196E-001  0.3000000E+03  0.7818608E-02  0.1093470E+00
         21   -1    0    0  501  502  0.00000000000E+00  0.00000000000E+00  0.22288768111E+01  0.22288768111E+01  0.00000000000E+00 0. -1.
         13   -1    0    0    0    0 -0.00000000000E+00 -0.00000000000E+00 -0.10000000000E+04  0.10000000000E+04  0.00000000000E+00 0.  1.
    9000005    2    1    2  501    0  0.22538377305E+00  0.32704989323E+02 -0.85978814968E+03  0.86042278349E+03  0.46943471615E+01 0.  0.
         13    1    3    3    0    0  0.21695261176E+01  0.16196163393E+02 -0.39683928607E+03  0.39717558022E+03  0.00000000000E+00 0.  1.
          1    1    3    3  501    0 -0.19441423445E+01  0.16508825930E+02 -0.46294886361E+03  0.46324720327E+03  0.00000000000E+00 0.  1.
         -3    1    1    2    0  502 -0.22538377305E+00 -0.32704989323E+02 -0.13798297351E+03  0.14180609332E+03  0.00000000000E+00 0. -1.
<mgrwt>
<rscale>  1 0.30000000E+03</rscale>
<asrwt>0</asrwt>
<pdfrwt beam="1">  1       21 0.81050237E-02 0.30000000E+03</pdfrwt>
<pdfrwt beam="2">0</pdfrwt>
<totfact> 0.12484455E+04</totfact>
</mgrwt>
</event>
<event>
 6    1  0.1274196E-001  0.3000000E+03  0.7818608E-02  0.1093470E+00
         21   -1    0    0  501  502  0.00000000000E+00  0.00000000000E+00  0.20875796876E+01  0.20875796876E+01  0.00000000000E+00 0. -1.
         13   -1    0    0    0    0 -0.00000000000E+00 -0.00000000000E+00 -0.10000000000E+04  0.10000000000E+04  0.00000000000E+00 0.  1.
    9000005    2    1    2  501    0 -0.32457929969E+02  0.78609188826E+01 -0.84060942371E+03  0.84127855008E+03  0.31755833513E+01 0.  0.
         13    1    3    3    0    0 -0.22889969603E+02  0.44224332638E+01 -0.60905609134E+03  0.60950211733E+03  0.00000000000E+00 0.  1.
          1    1    3    3  501    0 -0.95679603662E+01  0.34384856188E+01 -0.23155333236E+03  0.23177643275E+03  0.00000000000E+00 0.  1.
         -3    1    1    2    0  502  0.32457929969E+02 -0.78609188826E+01 -0.15730299661E+03  0.16080902961E+03  0.00000000000E+00 0. -1.
<mgrwt>
<rscale>  1 0.30000000E+03</rscale>
<asrwt>0</asrwt>
<pdfrwt beam="1">  1       21 0.75912149E-02 0.30000000E+03</pdfrwt>
<pdfrwt beam="2">0</pdfrwt>
<totfact> 0.14004805E+04</totfact>
</mgrwt>
</event>
<event>
 6    1  0.1274196E-001  0.3000000E+03  0.7818608E-02  0.1093470E+00
         21   -1    0    0  501  502  0.00000000000E+00  0.00000000000E+00  0.12571893062E+01  0.12571893062E+01  0.00000000000E+00 0. -1.
         13   -1    0    0    0    0 -0.00000000000E+00 -0.00000000000E+00 -0.10000000000E+04  0.10000000000E+04  0.00000000000E+00 0.  1.
    9000005    2    1    2  501    0  0.33606143278E+02 -0.93345153612E+01 -0.51863454824E+03  0.51988368596E+03  0.89858923286E+01 0.  0.
         13    1    3    3    0    0  0.45788964079E+01  0.17989367804E+01 -0.74860607199E+02  0.75022083256E+02  0.00000000000E+00 0.  1.
          1    1    3    3  501    0  0.29027246870E+02 -0.11133452142E+02 -0.44377394104E+03  0.44486160271E+03  0.00000000000E+00 0.  1.
         -3    1    1    2    0  502 -0.33606143278E+02  0.93345153612E+01 -0.48010826246E+03  0.48137350334E+03  0.00000000000E+00 0. -1.
<mgrwt>
<rscale>  1 0.30000000E+03</rscale>
<asrwt>0</asrwt>
<pdfrwt beam="1">  1       21 0.45716071E-02 0.30000000E+03</pdfrwt>
<pdfrwt beam="2">0</pdfrwt>
<totfact> 0.33546783E+04</totfact>
</mgrwt>
</event>
<event>
 6    1  0.1274196E-001  0.3000000E+03  0.7818608E-02  0.1093470E+00
         21   -1    0    0  501  502  0.00000000000E+00  0.00000000000E+00  0.14554921005E+01  0.14554921005E+01  0.00000000000E+00 0. -1.
         13   -1    0    0    0    0 -0.00000000000E+00 -0.00000000000E+00 -0.10000000000E+04  0.10000000000E+04  0.00000000000E+00 0.  1.
    9000005    2    1    2  501    0 -0.28031025075E+02  0.21836778956E+02 -0.68024832279E+03  0.68118210149E+03  0.29481250364E+01 0.  0.
         13    1    3    3    0    0 -0.11083537161E+02  0.78642685021E+01 -0.28525138986E+03  0.28557494101E+03  0.00000000000E+00 0.  1.
          3    1    3    3  501    0 -0.16947487914E+02  0.13972510454E+02 -0.39499693293E+03  0.39560716047E+03  0.00000000000E+00 0.  1.
         -1    1    1    2    0  502  0.28031025075E+02 -0.21836778956E+02 -0.31829618511E+03  0.32027339061E+03  0.00000000000E+00 0. -1.
<mgrwt>
<rscale>  1 0.30000000E+03</rscale>
<asrwt>0</asrwt>
<pdfrwt beam="1">  1       21 0.52927097E-02 0.30000000E+03</pdfrwt>
<pdfrwt beam="2">0</pdfrwt>
<totfact> 0.26138324E+04</totfact>
</mgrwt>
</event>
<event>
 6    1  0.1274196E-001  0.3000000E+03  0.7818608E-02  0.1093470E+00
         21   -1    0    0  501  502  0.00000000000E+00  0.00000000000E+00  0.32675849523E+01  0.32675849523E+01  0.00000000000E+00 0. -1.
         13   -1    0    0    0    0 -0.00000000000E+00 -0.00000000000E+00 -0.10000000000E+04  0.10000000000E+04  0.00000000000E+00 0.  1.
    9000005    2    1    2  501    0  0.31907713196E+02 -0.23390974328E+02 -0.86025050374E+03  0.86116708546E+03  0.35468373451E+01 0.  0.
         13    1    3    3    0    0  0.11210146313E+02 -0.10262332009E+02 -0.34021543896E+03  0.34055473531E+03  0.00000000000E+00 0.  1.
          1    1    3    3  501    0  0.20697566883E+02 -0.13128642319E+02 -0.52003506478E+03  0.52061235015E+03  0.00000000000E+00 0.  1.
         -1    1    1    2    0  502 -0.31907713196E+02  0.23390974328E+02 -0.13648191131E+03  0.14210049949E+03  0.00000000000E+00 0. -1.
<mgrwt>
<rscale>  1 0.30000000E+03</rscale>
<asrwt>0</asrwt>
<pdfrwt beam="1">  1       21 0.11882152E-01 0.30000000E+03</pdfrwt>
<pdfrwt beam="2">0</pdfrwt>
<totfact> 0.63090575E+03</totfact>
</mgrwt>
</event>
<event>
 6    1  0.1274196E-001  0.3000000E+03  0.7818608E-02  0.1093470E+00
         21   -1    0    0  501  502  0.00000000000E+00  0.00000000000E+00  0.11827181292E+01  0.11827181292E+01  0.00000000000E+00 0. -1.
         13   -1    0    0    0    0 -0.00000000000E+00 -0.00000000000E+00 -0.10000000000E+04  0.10000000000E+04  0.00000000000E+00 0.  1.
    9000005    2    1    2  501    0 -0.32760552529E+02  0.81306018284E+01 -0.59216850277E+03  0.59313542916E+03  0.25963759411E+01 0.  0.
         13    1    3    3    0    0 -0.15404448112E+02  0.26400783614E+01 -0.26310931465E+03  0.26357309895E+03  0.00000000000E+00 0.  1.
          3    1    3    3  501    0 -0.17356104418E+02  0.54905234670E+01 -0.32905918812E+03  0.32956233021E+03  0.00000000000E+00 0.  1.
         -3    1    1    2    0  502  0.32760552529E+02 -0.81306018284E+01 -0.40664877910E+03  0.40804728896E+03  0.00000000000E+00 0. -1.
<mgrwt>
<rscale>  1 0.30000000E+03</rscale>
<asrwt>0</asrwt>
<pdfrwt beam="1">  1       21 0.43008023E-02 0.30000000E+03</pdfrwt>
<pdfrwt beam="2">0</pdfrwt>
<totfact> 0.37205004E+04</totfact>
</mgrwt>
</event>
<event>
 6    1  0.1274196E-001  0.3000000E+03  0.7818608E-02  0.1093470E+00
         21   -1    0    0  501  502  0.00000000000E+00  0.00000000000E+00  0.61655157510E+01  0.61655157510E+01  0.00000000000E+00 0. -1.
         13   -1    0    0    0    0 -0.00000000000E+00 -0.00000000000E+00 -0.10000000000E+04  0.10000000000E+04  0.00000000000E+00 0.  1.
    9000005    2    1    2  501    0 -0.25001100514E+02  0.47802610439E+02 -0.86148174432E+03  0.86324108692E+03  0.11146019349E+02 0.  0.
         13    1    3    3    0    0 -0.12659742856E+02  0.17136015293E+02 -0.27194884524E+03  0.27278212283E+03  0.00000000000E+00 0.  1.
          1    1    3    3  501    0 -0.12341357658E+02  0.30666595146E+02 -0.58953289908E+03  0.59045896408E+03  0.00000000000E+00 0.  1.
         -3    1    1    2    0  502  0.25001100514E+02 -0.47802610439E+02 -0.13235273992E+03  0.14292442883E+03  0.00000000000E+00 0. -1.
<mgrwt>
<rscale>  1 0.30000000E+03</rscale>
<asrwt>0</asrwt>
<pdfrwt beam="1">  1       21 0.22420105E-01 0.30000000E+03</pdfrwt>
<pdfrwt beam="2">0</pdfrwt>
<totfact> 0.19270446E+03</totfact>
</mgrwt>
</event>
<event>
 6    1  0.1274196E-001  0.3000000E+03  0.7818608E-02  0.1093470E+00
         21   -1    0    0  501  502  0.00000000000E+00  0.00000000000E+00  0.22882499657E+01  0.22882499657E+01  0.00000000000E+00 0. -1.
         13   -1    0    0    0    0 -0.00000000000E+00 -0.00000000000E+00 -0.10000000000E+04  0.10000000000E+04  0.00000000000E+00 0.  1.
    9000005    2    1    2  501    0 -0.18944234999E+02 -0.40142228066E+02 -0.68452925809E+03  0.68597581617E+03  0.34975240033E+01 0.  0.
         13    1    3    3    0    0 -0.18504290072E+01 -0.68292606203E+01 -0.11340857050E+03  0.11362907529E+03  0.00000000000E+00 0.  1.
          3    1    3    3  501    0 -0.17093805992E+02 -0.33312967445E+02 -0.57112068759E+03  0.57234674088E+03  0.00000000000E+00 0.  1.
         -1    1    1    2    0  502  0.18944234999E+02  0.40142228066E+02 -0.31318249195E+03  0.31631243380E+03  0.00000000000E+00 0. -1.
<mgrwt>
<rscale>  1 0.30000000E+03</rscale>
<asrwt>0</asrwt>
<pdfrwt beam="1">  1       21 0.83209265E-02 0.30000000E+03</pdfrwt>
<pdfrwt beam="2">0</pdfrwt>
<totfact> 0.11920201E+04</totfact>
</mgrwt>
</event>
<event>
 6    1  0.1274196E-001  0.3000000E+03  0.7818608E-02  0.1093470E+00
         21   -1    0    0  501  502  0.00000000000E+00  0.00000000000E+00  0.24094041687E+01  0.24094041687E+01  0.00000000000E+00 0. -1.
         13   -1    0    0    0    0 -0.00000000000E+00 -0.00000000000E+00 -0.10000000000E+04  0.10000000000E+04  0.00000000000E+00 0.  1.
    9000005    2    1    2  501    0 -0.43946187481E+02  0.13851715586E+02 -0.32982491834E+03  0.33305588214E+03  0.43135194879E+01 0.  0.
         13    1    3    3    0    0 -0.23121711558E+02  0.53462132253E+01 -0.17726150156E+03  0.17884304704E+03  0.00000000000E+00 0.  1.
          3    1    3    3  501    0 -0.20824475923E+02  0.85055023603E+01 -0.15256341679E+03  0.15421283510E+03  0.00000000000E+00 0.  1.
         -3    1    1    2    0  502  0.43946187481E+02 -0.13851715586E+02 -0.66776567749E+03  0.66935352203E+03  0.00000000000E+00 0. -1.
<mgrwt>
<rscale>  1 0.30000000E+03</rscale>
<asrwt>0</asrwt>
<pdfrwt beam="1">  1       21 0.87614882E-02 0.30000000E+03</pdfrwt>
<pdfrwt beam="2">0</pdfrwt>
<totfact> 0.10883252E+04</totfact>
</mgrwt>
</event>
<event>
 6    1  0.1274196E-001  0.3000000E+03  0.7818608E-02  0.1093470E+00
         21   -1    0    0  501  502  0.00000000000E+00  0.00000000000E+00  0.48808490342E+01  0.48808490342E+01  0.00000000000E+00 0. -1.
         13   -1    0    0    0    0 -0.00000000000E+00 -0.00000000000E+00 -0.10000000000E+04  0.10000000000E+04  0.00000000000E+00 0.  1.
    9000005    2    1    2  501    0  0.32562989154E+02 -0.37638112374E+02 -0.14547537581E+03  0.15378066666E+03  0.29039124425E+01 0.  0.
         13    1    3    3    0    0  0.28875783493E+02 -0.34216799077E+02 -0.12856211701E+03  0.13613529352E+03  0.00000000000E+00 0.  1.
          3    1    3    3  501    0  0.36872056616E+01 -0.34213132968E+01 -0.16913258800E+02  0.17645373147E+02  0.00000000000E+00 0.  1.
         -1    1    1    2    0  502 -0.32562989154E+02  0.37638112374E+02 -0.84964377516E+03  0.85110018237E+03  0.00000000000E+00 0. -1.
<mgrwt>
<rscale>  1 0.30000000E+03</rscale>
<asrwt>0</asrwt>
<pdfrwt beam="1">  1       21 0.17748579E-01 0.30000000E+03</pdfrwt>
<pdfrwt beam="2">0</pdfrwt>
<totfact> 0.30081418E+03</totfact>
</mgrwt>
</event>
<event>
 6    1  0.1274196E-001  0.3000000E+03  0.7818608E-02  0.1093470E+00
         21   -1    0    0  501  502  0.00000000000E+00  0.00000000000E+00  0.25091809989E+01  0.25091809989E+01  0.00000000000E+00 0. -1.
         13   -1    0    0    0    0 -0.00000000000E+00 -0.00000000000E+00 -0.10000000000E+04  0.10000000000E+04  0.00000000000E+00 0.  1.
    9000005    2    1    2  501    0 -0.24964014571E+02 -0.36820052850E+02 -0.72593195690E+03  0.72733081357E+03  0.73476529709E+01 0.  0.
         13    1    3    3    0    0 -0.22834951093E+02 -0.35241231726E+02 -0.65166932640E+03  0.65302089581E+03  0.00000000000E+00 0.  1.
          3    1    3    3  501    0 -0.21290634784E+01 -0.15788211239E+01 -0.74262630501E+02  0.74309917752E+02  0.00000000000E+00 0.  1.
         -3    1    1    2    0  502  0.24964014571E+02  0.36820052850E+02 -0.27155886210E+03  0.27517836743E+03  0.00000000000E+00 0. -1.
<mgrwt>
<rscale>  1 0.30000000E+03</rscale>
<asrwt>0</asrwt>
<pdfrwt beam="1">  1       21 0.91243138E-02 0.30000000E+03</pdfrwt>
<pdfrwt beam="2">0</pdfrwt>
<totfact> 0.10128746E+04</totfact>
</mgrwt>
</event>
<event>
 6    1  0.1274196E-001  0.3000000E+03  0.7818608E-02  0.1093470E+00
         21   -1    0    0  501  502  0.00000000000E+00  0.00000000000E+00  0.10760968127E+01  0.10760968127E+01  0.00000000000E+00 0. -1.
         13   -1    0    0    0    0 -0.00000000000E+00 -0.00000000000E+00 -0.10000000000E+04  0.10000000000E+04  0.00000000000E+00 0.  1.
    9000005    2    1    2  501    0 -0.11260388443E+02  0.28548960916E+02 -0.32750199278E+03  0.32895317555E+03  0.32858651162E+01 0.  0.
         13    1    3    3    0    0 -0.87216181851E+01  0.18031753929E+02 -0.20765680564E+03  0.20862061188E+03  0.00000000000E+00 0.  1.
          1    1    3    3  501    0 -0.25387702577E+01  0.10517206987E+02 -0.11984518714E+03  0.12033256366E+03  0.00000000000E+00 0.  1.
         -1    1    1    2    0  502  0.11260388443E+02 -0.28548960916E+02 -0.67142191040E+03  0.67212292126E+03  0.00000000000E+00 0. -1.
<mgrwt>
<rscale>  1 0.30000000E+03</rscale>
<asrwt>0</asrwt>
<pdfrwt beam="1">  1       21 0.39130876E-02 0.30000000E+03</pdfrwt>
<pdfrwt beam="2">0</pdfrwt>
<totfact> 0.43631095E+04</totfact>
</mgrwt>
</event>
<event>
 6    1  0.1274196E-001  0.3000000E+03  0.7818608E-02  0.1093470E+00
         21   -1    0    0  501  502  0.00000000000E+00  0.00000000000E+00  0.11647764024E+01  0.11647764024E+01  0.00000000000E+00 0. -1.
         13   -1    0    0    0    0 -0.00000000000E+00 -0.00000000000E+00 -0.10000000000E+04  0.10000000000E+04  0.00000000000E+00 0.  1.
    9000005    2    1    2  501    0  0.33251646611E+02  0.50264819873E+00 -0.49217812771E+03  0.49341745985E+03  0.10749680301E+02 0.  0.
         13    1    3    3    0    0  0.76143219269E+01 -0.31076199693E+01 -0.17093277739E+03  0.17113050455E+03  0.00000000000E+00 0.  1.
          1    1    3    3  501    0  0.25637324684E+02  0.36102681680E+01 -0.32124535032E+03  0.32228695530E+03  0.00000000000E+00 0.  1.
         -1    1    1    2    0  502 -0.33251646611E+02 -0.50264819873E+00 -0.50665709589E+03  0.50774731655E+03  0.00000000000E+00 0. -1.
<mgrwt>
<rscale>  1 0.30000000E+03</rscale>
<asrwt>0</asrwt>
<pdfrwt beam="1">  1       21 0.42355595E-02 0.30000000E+03</pdfrwt>
<pdfrwt beam="2">0</pdfrwt>
<totfact> 0.38178883E+04</totfact>
</mgrwt>
</event>
<event>
 6    1  0.1274196E-001  0.3000000E+03  0.7818608E-02  0.1093470E+00
         21   -1    0    0  501  502  0.00000000000E+00  0.00000000000E+00  0.10120559916E+01  0.10120559916E+01  0.00000000000E+00 0. -1.
         13   -1    0    0    0    0 -0.00000000000E+00 -0.00000000000E+00 -0.10000000000E+04  0.10000000000E+04  0.00000000000E+00 0.  1.
    9000005    2    1    2  501    0 -0.84131529933E+01  0.30015491120E+02 -0.58392139378E+03  0.58477660343E+03  0.52698154640E+01 0.  0.
         13    1    3    3    0    0 -0.28407941346E+01  0.14460328954E+02 -0.23204178070E+03  0.23250926694E+03  0.00000000000E+00 0.  1.
          1    1    3    3  501    0 -0.55723588587E+01  0.15555162166E+02 -0.35187961308E+03  0.35226733649E+03  0.00000000000E+00 0.  1.
         -3    1    1    2    0  502  0.84131529933E+01 -0.30015491120E+02 -0.41506655023E+03  0.41623545256E+03  0.00000000000E+00 0. -1.
<mgrwt>
<rscale>  1 0.30000000E+03</rscale>
<asrwt>0</asrwt>
<pdfrwt beam="1">  1       21 0.36802114E-02 0.30000000E+03</pdfrwt>
<pdfrwt beam="2">0</pdfrwt>
<totfact> 0.48368810E+04</totfact>
</mgrwt>
</event>
<event>
 6    1  0.1274196E-001  0.3000000E+03  0.7818608E-02  0.1093470E+00
         21   -1    0    0  501  502  0.00000000000E+00  0.00000000000E+00  0.19603087952E+01  0.19603087952E+01  0.00000000000E+00 0. -1.
         13   -1    0    0    0    0 -0.00000000000E+00 -0.00000000000E+00 -0.10000000000E+04  0.10000000000E+04  0.00000000000E+00 0.  1.
    9000005    2    1    2  501    0  0.11777480102E+02 -0.29922235931E+02 -0.84309402221E+03  0.84371300367E+03  0.31706508697E+01 0.  0.
         13    1    3    3    0    0  0.85594362749E+01 -0.24002957123E+02 -0.69127223651E+03  0.69174179494E+03  0.00000000000E+00 0.  1.
          1    1    3    3  501    0  0.32180438271E+01 -0.59192788077E+01 -0.15182178570E+03  0.15197120872E+03  0.00000000000E+00 0.  1.
         -3    1    1    2    0  502 -0.11777480102E+02  0.29922235931E+02 -0.15494566899E+03  0.15824730513E+03  0.00000000000E+00 0. -1.
<mgrwt>
<rscale>  1 0.30000000E+03</rscale>
<asrwt>0</asrwt>
<pdfrwt beam="1">  1       21 0.71284107E-02 0.30000000E+03</pdfrwt>
<pdfrwt beam="2">0</pdfrwt>
<totfact> 0.15632448E+04</totfact>
</mgrwt>
</event>
<event>
 6    1  0.1274196E-001  0.3000000E+03  0.7818608E-02  0.1093470E+00
         21   -1    0    0  501  502  0.00000000000E+00  0.00000000000E+00  0.10756200243E+02  0.10756200243E+02  0.00000000000E+00 0. -1.
         13   -1    0    0    0    0 -0.00000000000E+00 -0.00000000000E+00 -0.10000000000E+04  0.10000000000E+04  0.00000000000E+00 0.  1.
    9000005    2    1    2  501    0  0.65041504146E+02  0.78231371985E+02 -0.59219287595E+03  0.60087819288E+03  0.34140193447E+01 0.  0.
         13    1    3    3    0    0  0.55252793820E+02  0.67159259279E+02 -0.49938066872E+03  0.50689672481E+03  0.00000000000E+00 0.  1.
          1    1    3    3  501    0  0.97887103264E+01  0.11072112706E+02 -0.92812207234E+02  0.93981468073E+02  0.00000000000E+00 0.  1.
         -1    1    1    2    0  502 -0.65041504146E+02 -0.78231371985E+02 -0.39705092381E+03  0.40987800736E+03  0.00000000000E+00 0. -1.
<mgrwt>
<rscale>  1 0.30000000E+03</rscale>
<asrwt>0</asrwt>
<pdfrwt beam="1">  1       21 0.39113538E-01 0.30000000E+03</pdfrwt>
<pdfrwt beam="2">0</pdfrwt>
<totfact> 0.63289061E+02</totfact>
</mgrwt>
</event>
<event>
 6    1  0.1274196E-001  0.3000000E+03  0.7818608E-02  0.1093470E+00
         21   -1    0    0  501  502  0.00000000000E+00  0.00000000000E+00  0.50679597903E+01  0.50679597903E+01  0.00000000000E+00 0. -1.
         13   -1    0    0    0    0 -0.00000000000E+00 -0.00000000000E+00 -0.10000000000E+04  0.10000000000E+04  0.00000000000E+00 0.  1.
    9000005    2    1    2  501    0  0.64446512105E+02  0.19568276910E+02 -0.65964152463E+03  0.66307965558E+03  0.33790878581E+01 0.  0.
         13    1    3    3    0    0  0.37665591830E+02  0.12606518501E+02 -0.40078990198E+03  0.40275323294E+03  0.00000000000E+00 0.  1.
          3    1    3    3  501    0  0.26780920275E+02  0.69617584087E+01 -0.25885162265E+03  0.26032642264E+03  0.00000000000E+00 0.  1.
         -1    1    1    2    0  502 -0.64446512105E+02 -0.19568276910E+02 -0.33529051558E+03  0.34198830422E+03  0.00000000000E+00 0. -1.
<mgrwt>
<rscale>  1 0.30000000E+03</rscale>
<asrwt>0</asrwt>
<pdfrwt beam="1">  1       21 0.18428984E-01 0.30000000E+03</pdfrwt>
<pdfrwt beam="2">0</pdfrwt>
<totfact> 0.28022770E+03</totfact>
</mgrwt>
</event>
<event>
 6    1  0.1274196E-001  0.3000000E+03  0.7818608E-02  0.1093470E+00
         21   -1    0    0  501  502  0.00000000000E+00  0.00000000000E+00  0.18359468916E+01  0.18359468916E+01  0.00000000000E+00 0. -1.
         13   -1    0    0    0    0 -0.00000000000E+00 -0.00000000000E+00 -0.10000000000E+04  0.10000000000E+04  0.00000000000E+00 0.  1.
    9000005    2    1    2  501    0 -0.74509252507E+01  0.40323036308E+02 -0.35662644080E+03  0.35898917545E+03  0.30571669598E+01 0.  0.
         13    1    3    3    0    0 -0.43007080745E+01  0.15535627430E+02 -0.14423892354E+03  0.14513689701E+03  0.00000000000E+00 0.  1.
          1    1    3    3  501    0 -0.31502171762E+01  0.24787408877E+02 -0.21238751725E+03  0.21385227844E+03  0.00000000000E+00 0.  1.
         -3    1    1    2    0  502  0.74509252507E+01 -0.40323036308E+02 -0.64153761231E+03  0.64284677144E+03  0.00000000000E+00 0. -1.
<mgrwt>
<rscale>  1 0.30000000E+03</rscale>
<asrwt>0</asrwt>
<pdfrwt beam="1">  1       21 0.66761846E-02 0.30000000E+03</pdfrwt>
<pdfrwt beam="2">0</pdfrwt>
<totfact> 0.17519050E+04</totfact>
</mgrwt>
</event>
<event>
 6    1  0.1274196E-001  0.3000000E+03  0.7818608E-02  0.1093470E+00
         21   -1    0    0  501  502  0.00000000000E+00  0.00000000000E+00  0.11047015210E+01  0.11047015210E+01  0.00000000000E+00 0. -1.
         13   -1    0    0    0    0 -0.00000000000E+00 -0.00000000000E+00 -0.10000000000E+04  0.10000000000E+04  0.00000000000E+00 0.  1.
    9000005    2    1    2  501    0  0.91499185871E+01  0.31285248043E+02 -0.59085190669E+03  0.59176145028E+03  0.36263812683E+01 0.  0.
         13    1    3    3    0    0  0.90890159699E+01  0.26670284632E+02 -0.50400404656E+03  0.50479103919E+03  0.00000000000E+00 0.  1.
          3    1    3    3  501    0  0.60902617228E-01  0.46149634103E+01 -0.86847860125E+02  0.86970411088E+02  0.00000000000E+00 0.  1.
         -3    1    1    2    0  502 -0.91499185871E+01 -0.31285248043E+02 -0.40804339179E+03  0.40934325124E+03  0.00000000000E+00 0. -1.
<mgrwt>
<rscale>  1 0.30000000E+03</rscale>
<asrwt>0</asrwt>
<pdfrwt beam="1">  1       21 0.40171049E-02 0.30000000E+03</pdfrwt>
<pdfrwt beam="2">0</pdfrwt>
<totfact> 0.41746224E+04</totfact>
</mgrwt>
</event>
<event>
 6    1  0.1274196E-001  0.3000000E+03  0.7818608E-02  0.1093470E+00
         21   -1    0    0  501  502  0.00000000000E+00  0.00000000000E+00  0.54926640693E+01  0.54926640693E+01  0.00000000000E+00 0. -1.
         13   -1    0    0    0    0 -0.00000000000E+00 -0.00000000000E+00 -0.10000000000E+04  0.10000000000E+04  0.00000000000E+00 0.  1.
    9000005    2    1    2  501    0  0.25117331927E+02  0.29112034027E+02 -0.92698931719E+03  0.92779405570E+03  0.37715664254E+01 0.  0.
         13    1    3    3    0    0  0.31237512110E+01  0.23147442906E+01 -0.77039749740E+02  0.77137791664E+02  0.00000000000E+00 0.  1.
          1    1    3    3  501    0  0.21993580716E+02  0.26797289736E+02 -0.84994956745E+03  0.85065626404E+03  0.00000000000E+00 0.  1.
         -3    1    1    2    0  502 -0.25117331927E+02 -0.29112034027E+02 -0.67518018737E+02  0.77698608369E+02  0.00000000000E+00 0. -1.
<mgrwt>
<rscale>  1 0.30000000E+03</rscale>
<asrwt>0</asrwt>
<pdfrwt beam="1">  1       21 0.19973366E-01 0.30000000E+03</pdfrwt>
<pdfrwt beam="2">0</pdfrwt>
<totfact> 0.24053328E+03</totfact>
</mgrwt>
</event>
<event>
 6    1  0.1274196E-001  0.3000000E+03  0.7818608E-02  0.1093470E+00
         21   -1    0    0  501  502  0.00000000000E+00  0.00000000000E+00  0.27678188652E+01  0.27678188652E+01  0.00000000000E+00 0. -1.
         13   -1    0    0    0    0 -0.00000000000E+00 -0.00000000000E+00 -0.10000000000E+04  0.10000000000E+04  0.00000000000E+00 0.  1.
    9000005    2    1    2  501    0 -0.30893173915E+01 -0.30208773693E+02 -0.90711470330E+03  0.90767169012E+03  0.94179733780E+01 0.  0.
         13    1    3    3    0    0 -0.37915939298E+01 -0.43636335109E+01 -0.20362930284E+03  0.20371134101E+03  0.00000000000E+00 0.  1.
          3    1    3    3  501    0  0.70227653830E+00 -0.25845140182E+02 -0.70348540046E+03  0.70396034911E+03  0.00000000000E+00 0.  1.
         -3    1    1    2    0  502  0.30893173915E+01  0.30208773693E+02 -0.90117477838E+02  0.95096128743E+02  0.00000000000E+00 0. -1.
<mgrwt>
<rscale>  1 0.30000000E+03</rscale>
<asrwt>0</asrwt>
<pdfrwt beam="1">  1       21 0.10064817E-01 0.30000000E+03</pdfrwt>
<pdfrwt beam="2">0</pdfrwt>
<totfact> 0.85044311E+03</totfact>
</mgrwt>
</event>
<event>
 6    1  0.1274196E-001  0.3000000E+03  0.7818608E-02  0.1093470E+00
         21   -1    0    0  501  502  0.00000000000E+00  0.00000000000E+00  0.30220195939E+01  0.30220195939E+01  0.00000000000E+00 0. -1.
         13   -1    0    0    0    0 -0.00000000000E+00 -0.00000000000E+00 -0.10000000000E+04  0.10000000000E+04  0.00000000000E+00 0.  1.
    9000005    2    1    2  501    0  0.36109820338E+02 -0.38308826652E+02 -0.64196624656E+03  0.64412814044E+03  0.29856762240E+01 0.  0.
         13    1    3    3    0    0  0.27417725899E+02 -0.30454879614E+02 -0.50893113036E+03  0.51057822793E+03  0.00000000000E+00 0.  1.
          1    1    3    3  501    0  0.86920944395E+01 -0.78539470384E+01 -0.13303511620E+03  0.13354991251E+03  0.00000000000E+00 0.  1.
         -3    1    1    2    0  502 -0.36109820338E+02  0.38308826652E+02 -0.35501173385E+03  0.35889387915E+03  0.00000000000E+00 0. -1.
<mgrwt>
<rscale>  1 0.30000000E+03</rscale>
<asrwt>0</asrwt>
<pdfrwt beam="1">  1       21 0.10989185E-01 0.30000000E+03</pdfrwt>
<pdfrwt beam="2">0</pdfrwt>
<totfact> 0.72648674E+03</totfact>
</mgrwt>
</event>
<event>
 6    1  0.1274196E-001  0.3000000E+03  0.7818608E-02  0.1093470E+00
         21   -1    0    0  501  502  0.00000000000E+00  0.00000000000E+00  0.10246343815E+01  0.10246343815E+01  0.00000000000E+00 0. -1.
         13   -1    0    0    0    0 -0.00000000000E+00 -0.00000000000E+00 -0.10000000000E+04  0.10000000000E+04  0.00000000000E+00 0.  1.
    9000005    2    1    2  501    0 -0.30811644495E+02  0.31936014116E+01 -0.40849928702E+03  0.40973658620E+03  0.72695287149E+01 0.  0.
         13    1    3    3    0    0 -0.17257036762E+02  0.38997543533E+00 -0.26865527116E+03  0.26920923483E+03  0.00000000000E+00 0.  1.
          1    1    3    3  501    0 -0.13554607733E+02  0.28036259763E+01 -0.13984401587E+03  0.14052735137E+03  0.00000000000E+00 0.  1.
         -1    1    1    2    0  502  0.30811644495E+02 -0.31936014116E+01 -0.59047607859E+03  0.59128804818E+03  0.00000000000E+00 0. -1.
<mgrwt>
<rscale>  1 0.30000000E+03</rscale>
<asrwt>0</asrwt>
<pdfrwt beam="1">  1       21 0.37259511E-02 0.30000000E+03</pdfrwt>
<pdfrwt beam="2">0</pdfrwt>
<totfact> 0.47376311E+04</totfact>
</mgrwt>
</event>
<event>
 6    1  0.1274196E-001  0.3000000E+03  0.7818608E-02  0.1093470E+00
         21   -1    0    0  501  502  0.00000000000E+00  0.00000000000E+00  0.11384762947E+01  0.11384762947E+01  0.00000000000E+00 0. -1.
         13   -1    0    0    0    0 -0.00000000000E+00 -0.00000000000E+00 -0.10000000000E+04  0.10000000000E+04  0.00000000000E+00 0.  1.
    9000005    2    1    2  501    0  0.20209073723E+02  0.26814831841E+02 -0.52677325847E+03  0.52785761672E+03  0.40194305715E+01 0.  0.
         13    1    3    3    0    0  0.96124432890E+01  0.13200218193E+02 -0.22516910750E+03  0.22576043010E+03  0.00000000000E+00 0.  1.
          1    1    3    3  501    0  0.10596630434E+02  0.13614613648E+02 -0.30160415097E+03  0.30209718662E+03  0.00000000000E+00 0.  1.
         -1    1    1    2    0  502 -0.20209073723E+02 -0.26814831841E+02 -0.47208826523E+03  0.47328085957E+03  0.00000000000E+00 0. -1.
<mgrwt>
<rscale>  1 0.30000000E+03</rscale>
<asrwt>0</asrwt>
<pdfrwt beam="1">  1       21 0.41399225E-02 0.30000000E+03</pdfrwt>
<pdfrwt beam="2">0</pdfrwt>
<totfact> 0.39679766E+04</totfact>
</mgrwt>
</event>
<event>
 6    1  0.1274196E-001  0.3000000E+03  0.7818608E-02  0.1093470E+00
         21   -1    0    0  501  502  0.00000000000E+00  0.00000000000E+00  0.12338587113E+01  0.12338587113E+01  0.00000000000E+00 0. -1.
         13   -1    0    0    0    0 -0.00000000000E+00 -0.00000000000E+00 -0.10000000000E+04  0.10000000000E+04  0.00000000000E+00 0.  1.
    9000005    2    1    2  501    0  0.32564047721E+02 -0.52858567478E+01 -0.66903597769E+03  0.66985742884E+03  0.33879266526E+01 0.  0.
         13    1    3    3    0    0  0.27354643949E+02 -0.55011982115E+01 -0.57612702755E+03  0.57680229854E+03  0.00000000000E+00 0.  1.
          1    1    3    3  501    0  0.52094037715E+01  0.21534146374E+00 -0.92908950138E+02  0.93055130301E+02  0.00000000000E+00 0.  1.
         -1    1    1    2    0  502 -0.32564047721E+02  0.52858567478E+01 -0.32973016360E+03  0.33137642987E+03  0.00000000000E+00 0. -1.
<mgrwt>
<rscale>  1 0.30000000E+03</rscale>
<asrwt>0</asrwt>
<pdfrwt beam="1">  1       21 0.44867684E-02 0.30000000E+03</pdfrwt>
<pdfrwt beam="2">0</pdfrwt>
<totfact> 0.34630781E+04</totfact>
</mgrwt>
</event>
<event>
 6    1  0.1274196E-001  0.3000000E+03  0.7818608E-02  0.1093470E+00
         21   -1    0    0  501  502  0.00000000000E+00  0.00000000000E+00  0.12111552174E+01  0.12111552174E+01  0.00000000000E+00 0. -1.
         13   -1    0    0    0    0 -0.00000000000E+00 -0.00000000000E+00 -0.10000000000E+04  0.10000000000E+04  0.00000000000E+00 0.  1.
    9000005    2    1    2  501    0 -0.34592808936E+02  0.27992136292E+01 -0.47939832975E+03  0.48066240137E+03  0.30145473903E+01 0.  0.
         13    1    3    3    0    0 -0.50647557782E+00  0.37747674502E+00 -0.11943544928E+02  0.11960237106E+02  0.00000000000E+00 0.  1.
          3    1    3    3  501    0 -0.34086333358E+02  0.24217368842E+01 -0.46745478482E+03  0.46870216426E+03  0.00000000000E+00 0.  1.
         -3    1    1    2    0  502  0.34592808936E+02 -0.27992136292E+01 -0.51939051503E+03  0.52054875385E+03  0.00000000000E+00 0. -1.
<mgrwt>
<rscale>  1 0.30000000E+03</rscale>
<asrwt>0</asrwt>
<pdfrwt beam="1">  1       21 0.44042101E-02 0.30000000E+03</pdfrwt>
<pdfrwt beam="2">0</pdfrwt>
<totfact> 0.35738456E+04</totfact>
</mgrwt>
</event>
<event>
 6    1  0.1274196E-001  0.3000000E+03  0.7818608E-02  0.1093470E+00
         21   -1    0    0  501  502  0.00000000000E+00  0.00000000000E+00  0.21288000324E+01  0.21288000324E+01  0.00000000000E+00 0. -1.
         13   -1    0    0    0    0 -0.00000000000E+00 -0.00000000000E+00 -0.10000000000E+04  0.10000000000E+04  0.00000000000E+00 0.  1.
    9000005    2    1    2  501    0  0.40670404983E+02  0.12372878760E+02 -0.69274639216E+03  0.69405686313E+03  0.31930283359E+01 0.  0.
         13    1    3    3    0    0  0.57657460220E+01  0.29461878418E+01 -0.10644986710E+03  0.10664660358E+03  0.00000000000E+00 0.  1.
          3    1    3    3  501    0  0.34904658961E+02  0.94266909182E+01 -0.58629652506E+03  0.58741025954E+03  0.00000000000E+00 0.  1.
         -3    1    1    2    0  502 -0.40670404983E+02 -0.12372878760E+02 -0.30512480781E+03  0.30807193691E+03  0.00000000000E+00 0. -1.
<mgrwt>
<rscale>  1 0.30000000E+03</rscale>
<asrwt>0</asrwt>
<pdfrwt beam="1">  1       21 0.77411074E-02 0.30000000E+03</pdfrwt>
<pdfrwt beam="2">0</pdfrwt>
<totfact> 0.13533011E+04</totfact>
</mgrwt>
</event>
<event>
 6    1  0.1274196E-001  0.3000000E+03  0.7818608E-02  0.1093470E+00
         21   -1    0    0  501  502  0.00000000000E+00  0.00000000000E+00  0.98257203663E+00  0.98257203663E+00  0.00000000000E+00 0. -1.
         13   -1    0    0    0    0 -0.00000000000E+00 -0.00000000000E+00 -0.10000000000E+04  0.10000000000E+04  0.00000000000E+00 0.  1.
    9000005    2    1    2  501    0  0.45410873646E+01  0.30917387218E+02 -0.51870987336E+03  0.51965954816E+03  0.30995102014E+01 0.  0.
         13    1    3    3    0    0  0.14566504232E+01  0.12979143294E+02 -0.24129045974E+03  0.24164367559E+03  0.00000000000E+00 0.  1.
          1    1    3    3  501    0  0.30844369413E+01  0.17938243924E+02 -0.27741941362E+03  0.27801587256E+03  0.00000000000E+00 0.  1.
         -1    1    1    2    0  502 -0.45410873646E+01 -0.30917387218E+02 -0.48030755461E+03  0.48132302388E+03  0.00000000000E+00 0. -1.
<mgrwt>
<rscale>  1 0.30000000E+03</rscale>
<asrwt>0</asrwt>
<pdfrwt beam="1">  1       21 0.35729968E-02 0.30000000E+03</pdfrwt>
<pdfrwt beam="2">0</pdfrwt>
<totfact> 0.50827962E+04</totfact>
</mgrwt>
</event>
<event>
 6    1  0.1274196E-001  0.3000000E+03  0.7818608E-02  0.1093470E+00
         21   -1    0    0  501  502  0.00000000000E+00  0.00000000000E+00  0.20242474363E+01  0.20242474363E+01  0.00000000000E+00 0. -1.
         13   -1    0    0    0    0 -0.00000000000E+00 -0.00000000000E+00 -0.10000000000E+04  0.10000000000E+04  0.00000000000E+00 0.  1.
    9000005    2    1    2  501    0 -0.33675293197E+02  0.28553147104E+02 -0.40960790882E+03  0.41200219096E+03  0.42259677341E+01 0.  0.
         13    1    3    3    0    0 -0.29165613137E+02  0.22671347889E+02 -0.34170398890E+03  0.34369497965E+03  0.00000000000E+00 0.  1.
          1    1    3    3  501    0 -0.45096800604E+01  0.58817992153E+01 -0.67903919919E+02  0.68307211307E+02  0.00000000000E+00 0.  1.
         -3    1    1    2    0  502  0.33675293197E+02 -0.28553147104E+02 -0.58836784374E+03  0.59002205648E+03  0.00000000000E+00 0. -1.
<mgrwt>
<rscale>  1 0.30000000E+03</rscale>
<asrwt>0</asrwt>
<pdfrwt beam="1">  1       21 0.73609153E-02 0.30000000E+03</pdfrwt>
<pdfrwt beam="2">0</pdfrwt>
<totfact> 0.14780729E+04</totfact>
</mgrwt>
</event>
<event>
 6    1  0.1274196E-001  0.3000000E+03  0.7818608E-02  0.1093470E+00
         21   -1    0    0  501  502  0.00000000000E+00  0.00000000000E+00  0.22745572265E+01  0.22745572265E+01  0.00000000000E+00 0. -1.
         13   -1    0    0    0    0 -0.00000000000E+00 -0.00000000000E+00 -0.10000000000E+04  0.10000000000E+04  0.00000000000E+00 0.  1.
    9000005    2    1    2  501    0  0.31964722636E+02 -0.16887442873E+01 -0.12936663331E+03  0.13332598721E+03  0.39367121641E+01 0.  0.
         13    1    3    3    0    0  0.25496727910E+02 -0.26880004851E+00 -0.97535360985E+02  0.10081320365E+03  0.00000000000E+00 0.  1.
          3    1    3    3  501    0  0.64679947267E+01 -0.14199442388E+01 -0.31831272321E+02  0.32512783563E+02  0.00000000000E+00 0.  1.
         -1    1    1    2    0  502 -0.31964722636E+02  0.16887442873E+01 -0.86835880947E+03  0.86894857001E+03  0.00000000000E+00 0. -1.
<mgrwt>
<rscale>  1 0.30000000E+03</rscale>
<asrwt>0</asrwt>
<pdfrwt beam="1">  1       21 0.82711346E-02 0.30000000E+03</pdfrwt>
<pdfrwt beam="2">0</pdfrwt>
<totfact> 0.12046814E+04</totfact>
</mgrwt>
</event>
<event>
 6    1  0.1274196E-001  0.3000000E+03  0.7818608E-02  0.1093470E+00
         21   -1    0    0  501  502  0.00000000000E+00  0.00000000000E+00  0.14685838615E+01  0.14685838615E+01  0.00000000000E+00 0. -1.
         13   -1    0    0    0    0 -0.00000000000E+00 -0.00000000000E+00 -0.10000000000E+04  0.10000000000E+04  0.00000000000E+00 0.  1.
    9000005    2    1    2  501    0  0.15363897958E+02 -0.33510003029E+02 -0.63361882525E+03  0.63469867145E+03  0.32585521642E+01 0.  0.
         13    1    3    3    0    0  0.37000138254E+01 -0.61871659021E+01 -0.10706071138E+03  0.10730315487E+03  0.00000000000E+00 0.  1.
          1    1    3    3  501    0  0.11663884132E+02 -0.27322837127E+02 -0.52655811387E+03  0.52739551658E+03  0.00000000000E+00 0.  1.
         -1    1    1    2    0  502 -0.15363897958E+02  0.33510003029E+02 -0.36491259089E+03  0.36676991241E+03  0.00000000000E+00 0. -1.
<mgrwt>
<rscale>  1 0.30000000E+03</rscale>
<asrwt>0</asrwt>
<pdfrwt beam="1">  1       21 0.53403162E-02 0.30000000E+03</pdfrwt>
<pdfrwt beam="2">0</pdfrwt>
<totfact> 0.25740984E+04</totfact>
</mgrwt>
</event>
<event>
 6    1  0.1274196E-001  0.3000000E+03  0.7818608E-02  0.1093470E+00
         21   -1    0    0  501  502  0.00000000000E+00  0.00000000000E+00  0.48973749267E+01  0.48973749267E+01  0.00000000000E+00 0. -1.
         13   -1    0    0    0    0 -0.00000000000E+00 -0.00000000000E+00 -0.10000000000E+04  0.10000000000E+04  0.00000000000E+00 0.  1.
    9000005    2    1    2  501    0 -0.29947267407E+02 -0.34891888937E+02 -0.87621359334E+03  0.87742626210E+03  0.35073538486E+01 0.  0.
         13    1    3    3    0    0 -0.14745021661E+02 -0.19747425303E+02 -0.45860322680E+03  0.45926495197E+03  0.00000000000E+00 0.  1.
          1    1    3    3  501    0 -0.15202245746E+02 -0.15144463634E+02 -0.41761036653E+03  0.41816131013E+03  0.00000000000E+00 0.  1.
         -3    1    1    2    0  502  0.29947267407E+02  0.34891888937E+02 -0.11888903174E+03  0.12747111283E+03  0.00000000000E+00 0. -1.
<mgrwt>
<rscale>  1 0.30000000E+03</rscale>
<asrwt>0</asrwt>
<pdfrwt beam="1">  1       21 0.17808674E-01 0.30000000E+03</pdfrwt>
<pdfrwt beam="2">0</pdfrwt>
<totfact> 0.29890769E+03</totfact>
</mgrwt>
</event>
<event>
 6    1  0.1274196E-001  0.3000000E+03  0.7818608E-02  0.1093470E+00
         21   -1    0    0  501  502  0.00000000000E+00  0.00000000000E+00  0.27747022219E+01  0.27747022219E+01  0.00000000000E+00 0. -1.
         13   -1    0    0    0    0 -0.00000000000E+00 -0.00000000000E+00 -0.10000000000E+04  0.10000000000E+04  0.00000000000E+00 0.  1.
    9000005    2    1    2  501    0  0.11242835212E+02 -0.32261344787E+02 -0.88010493860E+03  0.88077316844E+03  0.30782438234E+01 0.  0.
         13    1    3    3    0    0  0.36551528562E+00 -0.32102382679E+01 -0.98151272622E+02  0.98204437519E+02  0.00000000000E+00 0.  1.
          1    1    3    3  501    0  0.10877319926E+02 -0.29051106519E+02 -0.78195366598E+03  0.78256873092E+03  0.00000000000E+00 0.  1.
         -1    1    1    2    0  502 -0.11242835212E+02  0.32261344787E+02 -0.11712035917E+03  0.12200153378E+03  0.00000000000E+00 0. -1.
<mgrwt>
<rscale>  1 0.30000000E+03</rscale>
<asrwt>0</asrwt>
<pdfrwt beam="1">  1       21 0.10089848E-01 0.30000000E+03</pdfrwt>
<pdfrwt beam="2">0</pdfrwt>
<totfact> 0.84667528E+03</totfact>
</mgrwt>
</event>
<event>
 6    1  0.1274196E-001  0.3000000E+03  0.7818608E-02  0.1093470E+00
         21   -1    0    0  501  502  0.00000000000E+00  0.00000000000E+00  0.21599964809E+01  0.21599964809E+01  0.00000000000E+00 0. -1.
         13   -1    0    0    0    0 -0.00000000000E+00 -0.00000000000E+00 -0.10000000000E+04  0.10000000000E+04  0.00000000000E+00 0.  1.
    9000005    2    1    2  501    0 -0.23303639704E+01 -0.31144711575E+02 -0.86978537903E+03  0.87035176264E+03  0.31877107860E+01 0.  0.
         13    1    3    3    0    0 -0.16597706002E+01 -0.56145335062E+01 -0.16068394067E+03  0.16079056755E+03  0.00000000000E+00 0.  1.
          1    1    3    3  501    0 -0.67059337021E+00 -0.25530178069E+02 -0.70910143836E+03  0.70956119508E+03  0.00000000000E+00 0.  1.
         -1    1    1    2    0  502  0.23303639704E+01  0.31144711575E+02 -0.12805462449E+03  0.13180823384E+03  0.00000000000E+00 0. -1.
<mgrwt>
<rscale>  1 0.30000000E+03</rscale>
<asrwt>0</asrwt>
<pdfrwt beam="1">  1       21 0.78545492E-02 0.30000000E+03</pdfrwt>
<pdfrwt beam="2">0</pdfrwt>
<totfact> 0.13192044E+04</totfact>
</mgrwt>
</event>
<event>
 6    1  0.1274196E-001  0.3000000E+03  0.7818608E-02  0.1093470E+00
         21   -1    0    0  501  502  0.00000000000E+00  0.00000000000E+00  0.17891918084E+01  0.17891918084E+01  0.00000000000E+00 0. -1.
         13   -1    0    0    0    0 -0.00000000000E+00 -0.00000000000E+00 -0.10000000000E+04  0.10000000000E+04  0.00000000000E+00 0.  1.
    9000005    2    1    2  501    0  0.30028929625E+02 -0.14264153241E+02 -0.80832668248E+03  0.80901682896E+03  0.33168123084E+01 0.  0.
         13    1    3    3    0    0  0.21217676729E+02 -0.11626735021E+02 -0.57372586413E+03  0.57423578602E+03  0.00000000000E+00 0.  1.
          1    1    3    3  501    0  0.88112528962E+01 -0.26374182206E+01 -0.23460081835E+03  0.23478104294E+03  0.00000000000E+00 0.  1.
         -3    1    1    2    0  502 -0.30028929625E+02  0.14264153241E+02 -0.18988412571E+03  0.19277236285E+03  0.00000000000E+00 0. -1.
<mgrwt>
<rscale>  1 0.30000000E+03</rscale>
<asrwt>0</asrwt>
<pdfrwt beam="1">  1       21 0.65061658E-02 0.30000000E+03</pdfrwt>
<pdfrwt beam="2">0</pdfrwt>
<totfact> 0.18319946E+04</totfact>
</mgrwt>
</event>
<event>
 6    1  0.1274196E-001  0.3000000E+03  0.7818608E-02  0.1093470E+00
         21   -1    0    0  501  502  0.00000000000E+00  0.00000000000E+00  0.30561114941E+01  0.30561114941E+01  0.00000000000E+00 0. -1.
         13   -1    0    0    0    0 -0.00000000000E+00 -0.00000000000E+00 -0.10000000000E+04  0.10000000000E+04  0.00000000000E+00 0.  1.
    9000005    2    1    2  501    0  0.49788714780E+02 -0.16308033075E+02 -0.65434636893E+03  0.65647577667E+03  0.68122514590E+01 0.  0.
         13    1    3    3    0    0  0.49761823680E+01  0.19938025941E+00 -0.74372679661E+02  0.74539235463E+02  0.00000000000E+00 0.  1.
          1    1    3    3  501    0  0.44812532412E+02 -0.16507413334E+02 -0.57997368927E+03  0.58193654121E+03  0.00000000000E+00 0.  1.
         -3    1    1    2    0  502 -0.49788714780E+02  0.16308033075E+02 -0.34259751958E+03  0.34658033482E+03  0.00000000000E+00 0. -1.
<mgrwt>
<rscale>  1 0.30000000E+03</rscale>
<asrwt>0</asrwt>
<pdfrwt beam="1">  1       21 0.11113156E-01 0.30000000E+03</pdfrwt>
<pdfrwt beam="2">0</pdfrwt>
<totfact> 0.71196550E+03</totfact>
</mgrwt>
</event>
<event>
 6    1  0.1274196E-001  0.3000000E+03  0.7818608E-02  0.1093470E+00
         21   -1    0    0  501  502  0.00000000000E+00  0.00000000000E+00  0.13689789663E+01  0.13689789663E+01  0.00000000000E+00 0. -1.
         13   -1    0    0    0    0 -0.00000000000E+00 -0.00000000000E+00 -0.10000000000E+04  0.10000000000E+04  0.00000000000E+00 0.  1.
    9000005    2    1    2  501    0 -0.34443005878E+00  0.31826115552E+02 -0.24814024074E+03  0.25020359667E+03  0.39039013825E+01 0.  0.
         13    1    3    3    0    0  0.33557856396E+00  0.14941373253E+02 -0.13126372386E+03  0.13211178013E+03  0.00000000000E+00 0.  1.
          3    1    3    3  501    0 -0.68000862274E+00  0.16884742299E+02 -0.11687651688E+03  0.11809181654E+03  0.00000000000E+00 0.  1.
         -3    1    1    2    0  502  0.34443005878E+00 -0.31826115552E+02 -0.75049078029E+03  0.75116538230E+03  0.00000000000E+00 0. -1.
<mgrwt>
<rscale>  1 0.30000000E+03</rscale>
<asrwt>0</asrwt>
<pdfrwt beam="1">  1       21 0.49781158E-02 0.30000000E+03</pdfrwt>
<pdfrwt beam="2">0</pdfrwt>
<totfact> 0.29020831E+04</totfact>
</mgrwt>
</event>
<event>
 6    1  0.1274196E-001  0.3000000E+03  0.7818608E-02  0.1093470E+00
         21   -1    0    0  501  502  0.00000000000E+00  0.00000000000E+00  0.19519901533E+01  0.19519901533E+01  0.00000000000E+00 0. -1.
         13   -1    0    0    0    0 -0.00000000000E+00 -0.00000000000E+00 -0.10000000000E+04  0.10000000000E+04  0.00000000000E+00 0.  1.
    9000005    2    1    2  501    0 -0.79812998912E+01  0.42938685531E+02 -0.43107530489E+03  0.43329965346E+03  0.39037594223E+01 0.  0.
         13    1    3    3    0    0 -0.12727661143E+01  0.10226277793E+02 -0.87219273776E+02  0.87825955213E+02  0.00000000000E+00 0.  1.
          1    1    3    3  501    0 -0.67085337769E+01  0.32712407739E+02 -0.34385603112E+03  0.34547369825E+03  0.00000000000E+00 0.  1.
         -1    1    1    2    0  502  0.79812998912E+01 -0.42938685531E+02 -0.56697270496E+03  0.56865233669E+03  0.00000000000E+00 0. -1.
<mgrwt>
<rscale>  1 0.30000000E+03</rscale>
<asrwt>0</asrwt>
<pdfrwt beam="1">  1       21 0.70981610E-02 0.30000000E+03</pdfrwt>
<pdfrwt beam="2">0</pdfrwt>
<totfact> 0.15748727E+04</totfact>
</mgrwt>
</event>
<event>
 6    1  0.1274196E-001  0.3000000E+03  0.7818608E-02  0.1093470E+00
         21   -1    0    0  501  502  0.00000000000E+00  0.00000000000E+00  0.20083875241E+01  0.20083875241E+01  0.00000000000E+00 0. -1.
         13   -1    0    0    0    0 -0.00000000000E+00 -0.00000000000E+00 -0.10000000000E+04  0.10000000000E+04  0.00000000000E+00 0.  1.
    9000005    2    1    2  501    0 -0.31963081511E+02  0.28329960778E+02 -0.64643636207E+03  0.64786813374E+03  0.53780350646E+01 0.  0.
         13    1    3    3    0    0 -0.20189392659E+02  0.15020558009E+02 -0.35532601435E+03  0.35621595306E+03  0.00000000000E+00 0.  1.
          3    1    3    3  501    0 -0.11773688852E+02  0.13309402770E+02 -0.29111034771E+03  0.29165218068E+03  0.00000000000E+00 0.  1.
         -1    1    1    2    0  502  0.31963081511E+02 -0.28329960778E+02 -0.35155525041E+03  0.35414025378E+03  0.00000000000E+00 0. -1.
<mgrwt>
<rscale>  1 0.30000000E+03</rscale>
<asrwt>0</asrwt>
<pdfrwt beam="1">  1       21 0.73032428E-02 0.30000000E+03</pdfrwt>
<pdfrwt beam="2">0</pdfrwt>
<totfact> 0.14985302E+04</totfact>
</mgrwt>
</event>
<event>
 6    1  0.1274196E-001  0.3000000E+03  0.7818608E-02  0.1093470E+00
         21   -1    0    0  501  502  0.00000000000E+00  0.00000000000E+00  0.23576549364E+01  0.23576549364E+01  0.00000000000E+00 0. -1.
         13   -1    0    0    0    0 -0.00000000000E+00 -0.00000000000E+00 -0.10000000000E+04  0.10000000000E+04  0.00000000000E+00 0.  1.
    9000005    2    1    2  501    0  0.36439356423E+01  0.31784648437E+02 -0.87414869292E+03  0.87478718711E+03  0.96510747610E+01 0.  0.
         13    1    3    3    0    0  0.11561394737E+01  0.67056625983E+01 -0.10164668583E+03  0.10187419354E+03  0.00000000000E+00 0.  1.
          3    1    3    3  501    0  0.24877961686E+01  0.25078985839E+02 -0.77250200709E+03  0.77291299357E+03  0.00000000000E+00 0.  1.
         -1    1    1    2    0  502 -0.36439356423E+01 -0.31784648437E+02 -0.12349365214E+03  0.12757046783E+03  0.00000000000E+00 0. -1.
<mgrwt>
<rscale>  1 0.30000000E+03</rscale>
<asrwt>0</asrwt>
<pdfrwt beam="1">  1       21 0.85733088E-02 0.30000000E+03</pdfrwt>
<pdfrwt beam="2">0</pdfrwt>
<totfact> 0.11308655E+04</totfact>
</mgrwt>
</event>
<event>
 6    1  0.1274196E-001  0.3000000E+03  0.7818608E-02  0.1093470E+00
         21   -1    0    0  501  502  0.00000000000E+00  0.00000000000E+00  0.10673280046E+02  0.10673280046E+02  0.00000000000E+00 0. -1.
         13   -1    0    0    0    0 -0.00000000000E+00 -0.00000000000E+00 -0.10000000000E+04  0.10000000000E+04  0.00000000000E+00 0.  1.
    9000005    2    1    2  501    0 -0.54464883020E+02  0.24774493374E+01 -0.92384258804E+03  0.92546334653E+03  0.49716246995E+01 0.  0.
         13    1    3    3    0    0 -0.44626185073E+02  0.10913278582E+00 -0.75052722146E+03  0.75185279042E+03  0.00000000000E+00 0.  1.
          3    1    3    3  501    0 -0.98386979473E+01  0.23683165516E+01 -0.17331536658E+03  0.17361055611E+03  0.00000000000E+00 0.  1.
         -1    1    1    2    0  502  0.54464883020E+02 -0.24774493374E+01 -0.65484131909E+02  0.85209933514E+02  0.00000000000E+00 0. -1.
<mgrwt>
<rscale>  1 0.30000000E+03</rscale>
<asrwt>0</asrwt>
<pdfrwt beam="1">  1       21 0.38812009E-01 0.30000000E+03</pdfrwt>
<pdfrwt beam="2">0</pdfrwt>
<totfact> 0.64314975E+02</totfact>
</mgrwt>
</event>
<event>
 6    1  0.1274196E-001  0.3000000E+03  0.7818608E-02  0.1093470E+00
         21   -1    0    0  501  502  0.00000000000E+00  0.00000000000E+00  0.47588050209E+01  0.47588050209E+01  0.00000000000E+00 0. -1.
         13   -1    0    0    0    0 -0.00000000000E+00 -0.00000000000E+00 -0.10000000000E+04  0.10000000000E+04  0.00000000000E+00 0.  1.
    9000005    2    1    2  501    0 -0.54260053135E+02  0.34266891300E+02 -0.68112683744E+03  0.68415593102E+03  0.41468135727E+01 0.  0.
         13    1    3    3    0    0 -0.49340081779E+02  0.31313660727E+02 -0.60651057036E+03  0.60931934237E+03  0.00000000000E+00 0.  1.
          1    1    3    3  501    0 -0.49199713566E+01  0.29532305725E+01 -0.74616267077E+02  0.74836588655E+02  0.00000000000E+00 0.  1.
         -3    1    1    2    0  502  0.54260053135E+02 -0.34266891300E+02 -0.31411435754E+03  0.32060287400E+03  0.00000000000E+00 0. -1.
<mgrwt>
<rscale>  1 0.30000000E+03</rscale>
<asrwt>0</asrwt>
<pdfrwt beam="1">  1       21 0.17304782E-01 0.30000000E+03</pdfrwt>
<pdfrwt beam="2">0</pdfrwt>
<totfact> 0.31546750E+03</totfact>
</mgrwt>
</event>
<event>
 6    1  0.1274196E-001  0.3000000E+03  0.7818608E-02  0.1093470E+00
         21   -1    0    0  501  502  0.00000000000E+00  0.00000000000E+00  0.16979570681E+01  0.16979570681E+01  0.00000000000E+00 0. -1.
         13   -1    0    0    0    0 -0.00000000000E+00 -0.00000000000E+00 -0.10000000000E+04  0.10000000000E+04  0.00000000000E+00 0.  1.
    9000005    2    1    2  501    0  0.31986202310E+02  0.25169725096E+02 -0.57283593049E+03  0.57428943465E+03  0.32740327237E+01 0.  0.
         13    1    3    3    0    0  0.22111056410E+02  0.19109589646E+02 -0.40151505518E+03  0.40257721591E+03  0.00000000000E+00 0.  1.
          3    1    3    3  501    0  0.98751458993E+01  0.60601354499E+01 -0.17132087531E+03  0.17171221875E+03  0.00000000000E+00 0.  1.
         -1    1    1    2    0  502 -0.31986202310E+02 -0.25169725096E+02 -0.42546611244E+03  0.42740852242E+03  0.00000000000E+00 0. -1.
<mgrwt>
<rscale>  1 0.30000000E+03</rscale>
<asrwt>0</asrwt>
<pdfrwt beam="1">  1       21 0.61744024E-02 0.30000000E+03</pdfrwt>
<pdfrwt beam="2">0</pdfrwt>
<totfact> 0.20055116E+04</totfact>
</mgrwt>
</event>
<event>
 6    1  0.1274196E-001  0.3000000E+03  0.7818608E-02  0.1093470E+00
         21   -1    0    0  501  502  0.00000000000E+00  0.00000000000E+00  0.10716475480E+01  0.10716475480E+01  0.00000000000E+00 0. -1.
         13   -1    0    0    0    0 -0.00000000000E+00 -0.00000000000E+00 -0.10000000000E+04  0.10000000000E+04  0.00000000000E+00 0.  1.
    9000005    2    1    2  501    0 -0.13622748658E+02  0.29309349103E+02 -0.45877042187E+03  0.45994762554E+03  0.60746217396E+01 0.  0.
         13    1    3    3    0    0 -0.22617839471E+01  0.13529715661E+01 -0.46157004092E+02  0.46232188196E+02  0.00000000000E+00 0.  1.
          1    1    3    3  501    0 -0.11360964711E+02  0.27956377537E+02 -0.41261341778E+03  0.41371543735E+03  0.00000000000E+00 0.  1.
         -1    1    1    2    0  502  0.13622748658E+02 -0.29309349103E+02 -0.54015793058E+03  0.54112402201E+03  0.00000000000E+00 0. -1.
<mgrwt>
<rscale>  1 0.30000000E+03</rscale>
<asrwt>0</asrwt>
<pdfrwt beam="1">  1       21 0.38969084E-02 0.30000000E+03</pdfrwt>
<pdfrwt beam="2">0</pdfrwt>
<totfact> 0.43936233E+04</totfact>
</mgrwt>
</event>
<event>
 6    1  0.1274196E-001  0.3000000E+03  0.7818608E-02  0.1093470E+00
         21   -1    0    0  501  502  0.00000000000E+00  0.00000000000E+00  0.93985841332E+01  0.93985841332E+01  0.00000000000E+00 0. -1.
         13   -1    0    0    0    0 -0.00000000000E+00 -0.00000000000E+00 -0.10000000000E+04  0.10000000000E+04  0.00000000000E+00 0.  1.
    9000005    2    1    2  501    0 -0.21471626149E+02  0.36500647265E+02 -0.94928193347E+03  0.95023248230E+03  0.35004617784E+01 0.  0.
         13    1    3    3    0    0 -0.62568647218E+00  0.24732314785E+00 -0.15072056004E+02  0.15087064807E+02  0.00000000000E+00 0.  1.
          1    1    3    3  501    0 -0.20845939677E+02  0.36253324117E+02 -0.93420987746E+03  0.93514541749E+03  0.00000000000E+00 0.  1.
         -3    1    1    2    0  502  0.21471626149E+02 -0.36500647265E+02 -0.41319482401E+02  0.59166101833E+02  0.00000000000E+00 0. -1.
<mgrwt>
<rscale>  1 0.30000000E+03</rscale>
<asrwt>0</asrwt>
<pdfrwt beam="1">  1       21 0.34176742E-01 0.30000000E+03</pdfrwt>
<pdfrwt beam="2">0</pdfrwt>
<totfact> 0.83544183E+02</totfact>
</mgrwt>
</event>
<event>
 6    1  0.1274196E-001  0.3000000E+03  0.7818608E-02  0.1093470E+00
         21   -1    0    0  501  502  0.00000000000E+00  0.00000000000E+00  0.27219472568E+01  0.27219472568E+01  0.00000000000E+00 0. -1.
         13   -1    0    0    0    0 -0.00000000000E+00 -0.00000000000E+00 -0.10000000000E+04  0.10000000000E+04  0.00000000000E+00 0.  1.
    9000005    2    1    2  501    0 -0.29523753558E+02 -0.10524230725E+02 -0.89918706814E+03  0.89974499490E+03  0.46109520000E+01 0.  0.
         13    1    3    3    0    0 -0.12834928916E+02 -0.27862486350E+01 -0.33195553506E+03  0.33221525528E+03  0.00000000000E+00 0.  1.
          1    1    3    3  501    0 -0.16688824642E+02 -0.77379820903E+01 -0.56723153308E+03  0.56752973962E+03  0.00000000000E+00 0.  1.
         -3    1    1    2    0  502  0.29523753558E+02  0.10524230725E+02 -0.98090984600E+02  0.10297695235E+03  0.00000000000E+00 0. -1.
<mgrwt>
<rscale>  1 0.30000000E+03</rscale>
<asrwt>0</asrwt>
<pdfrwt beam="1">  1       21 0.98980109E-02 0.30000000E+03</pdfrwt>
<pdfrwt beam="2">0</pdfrwt>
<totfact> 0.87621893E+03</totfact>
</mgrwt>
</event>
<event>
 6    1  0.1274196E-001  0.3000000E+03  0.7818608E-02  0.1093470E+00
         21   -1    0    0  501  502  0.00000000000E+00  0.00000000000E+00  0.71164066345E+01  0.71164066345E+01  0.00000000000E+00 0. -1.
         13   -1    0    0    0    0 -0.00000000000E+00 -0.00000000000E+00 -0.10000000000E+04  0.10000000000E+04  0.00000000000E+00 0.  1.
    9000005    2    1    2  501    0  0.46344381962E+02  0.72639003376E+01 -0.91489627612E+03  0.91610768376E+03  0.41864308090E+01 0.  0.
         13    1    3    3    0    0  0.26307373765E+02  0.21654863280E+01 -0.52773715704E+03  0.52839689076E+03  0.00000000000E+00 0.  1.
          3    1    3    3  501    0  0.20037008198E+02  0.50984140096E+01 -0.38715911908E+03  0.38771079300E+03  0.00000000000E+00 0.  1.
         -3    1    1    2    0  502 -0.46344381962E+02 -0.72639003376E+01 -0.77987317243E+02  0.91008722870E+02  0.00000000000E+00 0. -1.
<mgrwt>
<rscale>  1 0.30000000E+03</rscale>
<asrwt>0</asrwt>
<pdfrwt beam="1">  1       21 0.25877897E-01 0.30000000E+03</pdfrwt>
<pdfrwt beam="2">0</pdfrwt>
<totfact> 0.14574531E+03</totfact>
</mgrwt>
</event>
<event>
 6    1  0.1274196E-001  0.3000000E+03  0.7818608E-02  0.1093470E+00
         21   -1    0    0  501  502  0.00000000000E+00  0.00000000000E+00  0.14123153958E+01  0.14123153958E+01  0.00000000000E+00 0. -1.
         13   -1    0    0    0    0 -0.00000000000E+00 -0.00000000000E+00 -0.10000000000E+04  0.10000000000E+04  0.00000000000E+00 0.  1.
    9000005    2    1    2  501    0 -0.24884967563E+02  0.21881300166E+02 -0.73065410439E+03  0.73143739746E+03  0.68697332633E+01 0.  0.
         13    1    3    3    0    0 -0.19888501092E+02  0.13455095869E+02 -0.53328628915E+03  0.53382661818E+03  0.00000000000E+00 0.  1.
          1    1    3    3  501    0 -0.49964664704E+01  0.84262042965E+01 -0.19736781523E+03  0.19761077928E+03  0.00000000000E+00 0.  1.
         -3    1    1    2    0  502  0.24884967563E+02 -0.21881300166E+02 -0.26793358022E+03  0.26997491794E+03  0.00000000000E+00 0. -1.
<mgrwt>
<rscale>  1 0.30000000E+03</rscale>
<asrwt>0</asrwt>
<pdfrwt beam="1">  1       21 0.51357032E-02 0.30000000E+03</pdfrwt>
<pdfrwt beam="2">0</pdfrwt>
<totfact> 0.27518404E+04</totfact>
</mgrwt>
</event>
<event>
 6    1  0.1274196E-001  0.3000000E+03  0.7818608E-02  0.1093470E+00
         21   -1    0    0  501  502  0.00000000000E+00  0.00000000000E+00  0.11311739412E+01  0.11311739412E+01  0.00000000000E+00 0. -1.
         13   -1    0    0    0    0 -0.00000000000E+00 -0.00000000000E+00 -0.10000000000E+04  0.10000000000E+04  0.00000000000E+00 0.  1.
    9000005    2    1    2  501    0  0.29379843435E+01  0.30989148030E+02 -0.67813061289E+03  0.67888598711E+03  0.74897470791E+01 0.  0.
         13    1    3    3    0    0  0.33958768697E+00 -0.77623224469E-01 -0.16009325485E+01  0.16383925620E+01  0.00000000000E+00 0.  1.
          3    1    3    3  501    0  0.25983966565E+01  0.31066771254E+02 -0.67652968034E+03  0.67724759455E+03  0.00000000000E+00 0.  1.
         -1    1    1    2    0  502 -0.29379843435E+01 -0.30989148030E+02 -0.32073821317E+03  0.32224518683E+03  0.00000000000E+00 0. -1.
<mgrwt>
<rscale>  1 0.30000000E+03</rscale>
<asrwt>0</asrwt>
<pdfrwt beam="1">  1       21 0.41133685E-02 0.30000000E+03</pdfrwt>
<pdfrwt beam="2">0</pdfrwt>
<totfact> 0.40112822E+04</totfact>
</mgrwt>
</event>
<event>
 6    1  0.1274196E-001  0.3000000E+03  0.7818608E-02  0.1093470E+00
         21   -1    0    0  501  502  0.00000000000E+00  0.00000000000E+00  0.10457832592E+01  0.10457832592E+01  0.00000000000E+00 0. -1.
         13   -1    0    0    0    0 -0.00000000000E+00 -0.00000000000E+00 -0.10000000000E+04  0.10000000000E+04  0.00000000000E+00 0.  1.
    9000005    2    1    2  501    0  0.17797604328E+02  0.24243480659E+02 -0.68076654826E+03  0.68143994250E+03  0.35778387388E+01 0.  0.
         13    1    3    3    0    0  0.12481019919E+02  0.15833057935E+02 -0.48901944032E+03  0.48943485225E+03  0.00000000000E+00 0.  1.
          1    1    3    3  501    0  0.53165844094E+01  0.84104227238E+01 -0.19174710794E+03  0.19200509026E+03  0.00000000000E+00 0.  1.
         -1    1    1    2    0  502 -0.17797604328E+02 -0.24243480659E+02 -0.31818766848E+03  0.31960584076E+03  0.00000000000E+00 0. -1.
<mgrwt>
<rscale>  1 0.30000000E+03</rscale>
<asrwt>0</asrwt>
<pdfrwt beam="1">  1       21 0.38028562E-02 0.30000000E+03</pdfrwt>
<pdfrwt beam="2">0</pdfrwt>
<totfact> 0.45778254E+04</totfact>
</mgrwt>
</event>
<event>
 6    1  0.1274196E-001  0.3000000E+03  0.7818608E-02  0.1093470E+00
         21   -1    0    0  501  502  0.00000000000E+00  0.00000000000E+00  0.14489326359E+01  0.14489326359E+01  0.00000000000E+00 0. -1.
         13   -1    0    0    0    0 -0.00000000000E+00 -0.00000000000E+00 -0.10000000000E+04  0.10000000000E+04  0.00000000000E+00 0.  1.
    9000005    2    1    2  501    0 -0.14215434611E+02 -0.30635684755E+02 -0.72898126164E+03  0.72977172726E+03  0.35313350494E+01 0.  0.
         13    1    3    3    0    0 -0.13098561471E+02 -0.25330842123E+02 -0.62121048334E+03  0.62186468663E+03  0.00000000000E+00 0.  1.
          1    1    3    3  501    0 -0.11168731405E+01 -0.53048426319E+01 -0.10777077831E+03  0.10790704063E+03  0.00000000000E+00 0.  1.
         -3    1    1    2    0  502  0.14215434611E+02  0.30635684755E+02 -0.26956980572E+03  0.27167720537E+03  0.00000000000E+00 0. -1.
<mgrwt>
<rscale>  1 0.30000000E+03</rscale>
<asrwt>0</asrwt>
<pdfrwt beam="1">  1       21 0.52688571E-02 0.30000000E+03</pdfrwt>
<pdfrwt beam="2">0</pdfrwt>
<totfact> 0.26340987E+04</totfact>
</mgrwt>
</event>
<event>
 6    1  0.1274196E-001  0.3000000E+03  0.7818608E-02  0.1093470E+00
         21   -1    0    0  501  502  0.00000000000E+00  0.00000000000E+00  0.17869442788E+01  0.17869442788E+01  0.00000000000E+00 0. -1.
         13   -1    0    0    0    0 -0.00000000000E+00 -0.00000000000E+00 -0.10000000000E+04  0.10000000000E+04  0.00000000000E+00 0.  1.
    9000005    2    1    2  501    0  0.12295178415E+01 -0.38106678955E+02 -0.71451468343E+03  0.71553810648E+03  0.31493342575E+01 0.  0.
         13    1    3    3    0    0  0.51637187525E+00 -0.36358551452E+02 -0.68192347082E+03  0.68289225429E+03  0.00000000000E+00 0.  1.
          3    1    3    3  501    0  0.71314596628E+00 -0.17481275031E+01 -0.32591212601E+02  0.32645852198E+02  0.00000000000E+00 0.  1.
         -3    1    1    2    0  502 -0.12295178415E+01  0.38106678955E+02 -0.28369837230E+03  0.28624883779E+03  0.00000000000E+00 0. -1.
<mgrwt>
<rscale>  1 0.30000000E+03</rscale>
<asrwt>0</asrwt>
<pdfrwt beam="1">  1       21 0.64979929E-02 0.30000000E+03</pdfrwt>
<pdfrwt beam="2">0</pdfrwt>
<totfact> 0.18359860E+04</totfact>
</mgrwt>
</event>
<event>
 6    1  0.1274196E-001  0.3000000E+03  0.7818608E-02  0.1093470E+00
         21   -1    0    0  501  502  0.00000000000E+00  0.00000000000E+00  0.98855526374E+00  0.98855526374E+00  0.00000000000E+00 0. -1.
         13   -1    0    0    0    0 -0.00000000000E+00 -0.00000000000E+00 -0.10000000000E+04  0.10000000000E+04  0.00000000000E+00 0.  1.
    9000005    2    1    2  501    0 -0.26836196033E+02  0.16022249038E+02 -0.46670171710E+03  0.46776201802E+03  0.37308013798E+01 0.  0.
         13    1    3    3    0    0 -0.61178399700E+01  0.27303402076E+01 -0.81721908929E+02  0.81996055531E+02  0.00000000000E+00 0.  1.
          3    1    3    3  501    0 -0.20718356063E+02  0.13291908831E+02 -0.38497980817E+03  0.38576596249E+03  0.00000000000E+00 0.  1.
         -3    1    1    2    0  502  0.26836196033E+02 -0.16022249038E+02 -0.53230972764E+03  0.53322653724E+03  0.00000000000E+00 0. -1.
<mgrwt>
<rscale>  1 0.30000000E+03</rscale>
<asrwt>0</asrwt>
<pdfrwt beam="1">  1       21 0.35947540E-02 0.30000000E+03</pdfrwt>
<pdfrwt beam="2">0</pdfrwt>
<totfact> 0.50313198E+04</totfact>
</mgrwt>
</event>
<event>
 6    1  0.1274196E-001  0.3000000E+03  0.7818608E-02  0.1093470E+00
         21   -1    0    0  501  502  0.00000000000E+00  0.00000000000E+00  0.31237850994E+01  0.31237850994E+01  0.00000000000E+00 0. -1.
         13   -1    0    0    0    0 -0.00000000000E+00 -0.00000000000E+00 -0.10000000000E+04  0.10000000000E+04  0.00000000000E+00 0.  1.
    9000005    2    1    2  501    0 -0.11324691339E+02  0.40041343405E+02 -0.83307258792E+03  0.83411731769E+03  0.31945428336E+01 0.  0.
         13    1    3    3    0    0 -0.99310550875E+01  0.30525828576E+02 -0.63089367065E+03  0.63170980342E+03  0.00000000000E+00 0.  1.
          1    1    3    3  501    0 -0.13936362515E+01  0.95155148293E+01 -0.20217891727E+03  0.20240751427E+03  0.00000000000E+00 0.  1.
         -3    1    1    2    0  502  0.11324691339E+02 -0.40041343405E+02 -0.16380362698E+03  0.16900646741E+03  0.00000000000E+00 0. -1.
<mgrwt>
<rscale>  1 0.30000000E+03</rscale>
<asrwt>0</asrwt>
<pdfrwt beam="1">  1       21 0.11359242E-01 0.30000000E+03</pdfrwt>
<pdfrwt beam="2">0</pdfrwt>
<totfact> 0.68440516E+03</totfact>
</mgrwt>
</event>
<event>
 6    1  0.1274196E-001  0.3000000E+03  0.7818608E-02  0.1093470E+00
         21   -1    0    0  501  502  0.00000000000E+00  0.00000000000E+00  0.46520703555E+01  0.46520703555E+01  0.00000000000E+00 0. -1.
         13   -1    0    0    0    0 -0.00000000000E+00 -0.00000000000E+00 -0.10000000000E+04  0.10000000000E+04  0.00000000000E+00 0.  1.
    9000005    2    1    2  501    0  0.33317858239E+02 -0.79778851513E+01 -0.93199053188E+03  0.93262508805E+03  0.30784751637E+01 0.  0.
         13    1    3    3    0    0  0.27959755666E+02 -0.60812363808E+01 -0.80225892185E+03  0.80276902473E+03  0.00000000000E+00 0.  1.
          3    1    3    3  501    0  0.53581025732E+01 -0.18966487705E+01 -0.12973161003E+03  0.12985606332E+03  0.00000000000E+00 0.  1.
         -1    1    1    2    0  502 -0.33317858239E+02  0.79778851513E+01 -0.63357397761E+02  0.72026982307E+02  0.00000000000E+00 0. -1.
<mgrwt>
<rscale>  1 0.30000000E+03</rscale>
<asrwt>0</asrwt>
<pdfrwt beam="1">  1       21 0.16916655E-01 0.30000000E+03</pdfrwt>
<pdfrwt beam="2">0</pdfrwt>
<totfact> 0.32916752E+03</totfact>
</mgrwt>
</event>
<event>
 6    1  0.1274196E-001  0.3000000E+03  0.7818608E-02  0.1093470E+00
         21   -1    0    0  501  502  0.00000000000E+00  0.00000000000E+00  0.12642991783E+01  0.12642991783E+01  0.00000000000E+00 0. -1.
         13   -1    0    0    0    0 -0.00000000000E+00 -0.00000000000E+00 -0.10000000000E+04  0.10000000000E+04  0.00000000000E+00 0.  1.
    9000005    2    1    2  501    0 -0.35319262798E+02 -0.33457308139E+01 -0.51241537314E+03  0.51365164003E+03  0.31382227919E+01 0.  0.
         13    1    3    3    0    0 -0.96977589517E+01 -0.20680413473E+01 -0.13134535904E+03  0.13171912035E+03  0.00000000000E+00 0.  1.
          1    1    3    3  501    0 -0.25621503847E+02 -0.12776894666E+01 -0.38107001409E+03  0.38193251968E+03  0.00000000000E+00 0.  1.
         -1    1    1    2    0  502  0.35319262798E+02  0.33457308139E+01 -0.48632032769E+03  0.48761265915E+03  0.00000000000E+00 0. -1.
<mgrwt>
<rscale>  1 0.30000000E+03</rscale>
<asrwt>0</asrwt>
<pdfrwt beam="1">  1       21 0.45974613E-02 0.30000000E+03</pdfrwt>
<pdfrwt beam="2">0</pdfrwt>
<totfact> 0.33226933E+04</totfact>
</mgrwt>
</event>
<event>
 6    1  0.1274196E-001  0.3000000E+03  0.7818608E-02  0.1093470E+00
         21   -1    0    0  501  502  0.00000000000E+00  0.00000000000E+00  0.15496347630E+01  0.15496347630E+01  0.00000000000E+00 0. -1.
         13   -1    0    0    0    0 -0.00000000000E+00 -0.00000000000E+00 -0.10000000000E+04  0.10000000000E+04  0.00000000000E+00 0.  1.
    9000005    2    1    2  501    0  0.10637219924E+02 -0.30842053886E+02 -0.77881066670E+03  0.77950013598E+03  0.31661796950E+01 0.  0.
         13    1    3    3    0    0  0.62764042025E+01 -0.18847364783E+02 -0.43698521299E+03  0.43743650142E+03  0.00000000000E+00 0.  1.
          1    1    3    3  501    0  0.43608157217E+01 -0.11994689104E+02 -0.34182545371E+03  0.34206363456E+03  0.00000000000E+00 0.  1.
         -1    1    1    2    0  502 -0.10637219924E+02  0.30842053886E+02 -0.21963969854E+03  0.22204949878E+03  0.00000000000E+00 0. -1.
<mgrwt>
<rscale>  1 0.30000000E+03</rscale>
<asrwt>0</asrwt>
<pdfrwt beam="1">  1       21 0.56350474E-02 0.30000000E+03</pdfrwt>
<pdfrwt beam="2">0</pdfrwt>
<totfact> 0.23476157E+04</totfact>
</mgrwt>
</event>
<event>
 6    1  0.1274196E-001  0.3000000E+03  0.7818608E-02  0.1093470E+00
         21   -1    0    0  501  502  0.00000000000E+00  0.00000000000E+00  0.11524691651E+01  0.11524691651E+01  0.00000000000E+00 0. -1.
         13   -1    0    0    0    0 -0.00000000000E+00 -0.00000000000E+00 -0.10000000000E+04  0.10000000000E+04  0.00000000000E+00 0.  1.
    9000005    2    1    2  501    0  0.33718888142E+02  0.11347149296E+01 -0.45906587844E+03  0.46031748208E+03  0.35288189383E+01 0.  0.
         13    1    3    3    0    0  0.66354482712E+01  0.14599108367E+01 -0.83177192585E+02  0.83454214272E+02  0.00000000000E+00 0.  1.
          1    1    3    3  501    0  0.27083439871E+02 -0.32519590713E+00 -0.37588868585E+03  0.37686326780E+03  0.00000000000E+00 0.  1.
         -1    1    1    2    0  502 -0.33718888142E+02 -0.11347149296E+01 -0.53978165240E+03  0.54083498709E+03  0.00000000000E+00 0. -1.
<mgrwt>
<rscale>  1 0.30000000E+03</rscale>
<asrwt>0</asrwt>
<pdfrwt beam="1">  1       21 0.41908058E-02 0.30000000E+03</pdfrwt>
<pdfrwt beam="2">0</pdfrwt>
<totfact> 0.38870027E+04</totfact>
</mgrwt>
</event>
<event>
 6    1  0.1274196E-001  0.3000000E+03  0.7818608E-02  0.1093470E+00
         21   -1    0    0  501  502  0.00000000000E+00  0.00000000000E+00  0.12438805329E+01  0.12438805329E+01  0.00000000000E+00 0. -1.
         13   -1    0    0    0    0 -0.00000000000E+00 -0.00000000000E+00 -0.10000000000E+04  0.10000000000E+04  0.00000000000E+00 0.  1.
    9000005    2    1    2  501    0  0.29018504045E+02 -0.84686229186E+01 -0.74849556673E+03  0.74916425937E+03  0.93639172636E+01 0.  0.
         13    1    3    3    0    0  0.72397239657E+01  0.15464553018E+01 -0.13825345523E+03  0.13845151863E+03  0.00000000000E+00 0.  1.
          1    1    3    3  501    0  0.21778780079E+02 -0.10015078220E+02 -0.61024211150E+03  0.61071274074E+03  0.00000000000E+00 0.  1.
         -1    1    1    2    0  502 -0.29018504045E+02  0.84686229186E+01 -0.25026055274E+03  0.25207962117E+03  0.00000000000E+00 0. -1.
<mgrwt>
<rscale>  1 0.30000000E+03</rscale>
<asrwt>0</asrwt>
<pdfrwt beam="1">  1       21 0.45232115E-02 0.30000000E+03</pdfrwt>
<pdfrwt beam="2">0</pdfrwt>
<totfact> 0.34158606E+04</totfact>
</mgrwt>
</event>
<event>
 6    1  0.1274196E-001  0.3000000E+03  0.7818608E-02  0.1093470E+00
         21   -1    0    0  501  502  0.00000000000E+00  0.00000000000E+00  0.13177349669E+01  0.13177349669E+01  0.00000000000E+00 0. -1.
         13   -1    0    0    0    0 -0.00000000000E+00 -0.00000000000E+00 -0.10000000000E+04  0.10000000000E+04  0.00000000000E+00 0.  1.
    9000005    2    1    2  501    0  0.23603624202E+02 -0.19175586349E+02 -0.77179850774E+03  0.77240492731E+03  0.34060228121E+01 0.  0.
         13    1    3    3    0    0  0.21659790029E+02 -0.18551875739E+02 -0.70932077751E+03  0.70989385404E+03  0.00000000000E+00 0.  1.
          1    1    3    3  501    0  0.19438341728E+01 -0.62371060961E+00 -0.62477730227E+02  0.62511073263E+02  0.00000000000E+00 0.  1.
         -3    1    1    2    0  502 -0.23603624202E+02  0.19175586349E+02 -0.22688375729E+03  0.22891280766E+03  0.00000000000E+00 0. -1.
<mgrwt>
<rscale>  1 0.30000000E+03</rscale>
<asrwt>0</asrwt>
<pdfrwt beam="1">  1       21 0.47917736E-02 0.30000000E+03</pdfrwt>
<pdfrwt beam="2">0</pdfrwt>
<totfact> 0.30968797E+04</totfact>
</mgrwt>
</event>
<event>
 6    1  0.1274196E-001  0.3000000E+03  0.7818608E-02  0.1093470E+00
         21   -1    0    0  501  502  0.00000000000E+00  0.00000000000E+00  0.21421557256E+01  0.21421557256E+01  0.00000000000E+00 0. -1.
         13   -1    0    0    0    0 -0.00000000000E+00 -0.00000000000E+00 -0.10000000000E+04  0.10000000000E+04  0.00000000000E+00 0.  1.
    9000005    2    1    2  501    0 -0.80035512684E+01  0.31733303512E+02 -0.85286483070E+03  0.85350153755E+03  0.39237456383E+01 0.  0.
         13    1    3    3    0    0 -0.25421779258E+01  0.47454195169E+01 -0.15636697059E+03  0.15645961513E+03  0.00000000000E+00 0.  1.
          3    1    3    3  501    0 -0.54613733425E+01  0.26987883995E+02 -0.69649786010E+03  0.69704192242E+03  0.00000000000E+00 0.  1.
         -1    1    1    2    0  502  0.80035512684E+01 -0.31733303512E+02 -0.14499301358E+03  0.14864061817E+03  0.00000000000E+00 0. -1.
<mgrwt>
<rscale>  1 0.30000000E+03</rscale>
<asrwt>0</asrwt>
<pdfrwt beam="1">  1       21 0.77896736E-02 0.30000000E+03</pdfrwt>
<pdfrwt beam="2">0</pdfrwt>
<totfact> 0.13385394E+04</totfact>
</mgrwt>
</event>
<event>
 6    1  0.1274196E-001  0.3000000E+03  0.7818608E-02  0.1093470E+00
         21   -1    0    0  501  502  0.00000000000E+00  0.00000000000E+00  0.19480322707E+01  0.19480322707E+01  0.00000000000E+00 0. -1.
         13   -1    0    0    0    0 -0.00000000000E+00 -0.00000000000E+00 -0.10000000000E+04  0.10000000000E+04  0.00000000000E+00 0.  1.
    9000005    2    1    2  501    0  0.35361550156E+02 -0.12767306492E+02 -0.76081536264E+03  0.76175092542E+03  0.33185850481E+01 0.  0.
         13    1    3    3    0    0  0.33233708131E+02 -0.12151388108E+02 -0.72919125401E+03  0.73004932745E+03  0.00000000000E+00 0.  1.
          3    1    3    3  501    0  0.21278420250E+01 -0.61591838381E+00 -0.31624108632E+02  0.31701597971E+02  0.00000000000E+00 0.  1.
         -1    1    1    2    0  502 -0.35361550156E+02  0.12767306492E+02 -0.23723660509E+03  0.24019710685E+03  0.00000000000E+00 0. -1.
<mgrwt>
<rscale>  1 0.30000000E+03</rscale>
<asrwt>0</asrwt>
<pdfrwt beam="1">  1       21 0.70837686E-02 0.30000000E+03</pdfrwt>
<pdfrwt beam="2">0</pdfrwt>
<totfact> 0.15804515E+04</totfact>
</mgrwt>
</event>
<event>
 6    1  0.1274196E-001  0.3000000E+03  0.7818608E-02  0.1093470E+00
         21   -1    0    0  501  502  0.00000000000E+00  0.00000000000E+00  0.16593830674E+01  0.16593830674E+01  0.00000000000E+00 0. -1.
         13   -1    0    0    0    0 -0.00000000000E+00 -0.00000000000E+00 -0.10000000000E+04  0.10000000000E+04  0.00000000000E+00 0.  1.
    9000005    2    1    2  501    0  0.24860373550E+02 -0.20168608523E+02 -0.80830141798E+03  0.80894273074E+03  0.35140258965E+01 0.  0.
         13    1    3    3    0    0  0.60412985581E+01 -0.47825374667E+01 -0.15928795070E+03  0.15947420228E+03  0.00000000000E+00 0.  1.
          3    1    3    3  501    0  0.18819074992E+02 -0.15386071057E+02 -0.64901346727E+03  0.64946852847E+03  0.00000000000E+00 0.  1.
         -3    1    1    2    0  502 -0.24860373550E+02  0.20168608523E+02 -0.19003919896E+03  0.19271665232E+03  0.00000000000E+00 0. -1.
<mgrwt>
<rscale>  1 0.30000000E+03</rscale>
<asrwt>0</asrwt>
<pdfrwt beam="1">  1       21 0.60341330E-02 0.30000000E+03</pdfrwt>
<pdfrwt beam="2">0</pdfrwt>
<totfact> 0.20866495E+04</totfact>
</mgrwt>
</event>
<event>
 6    1  0.1274196E-001  0.3000000E+03  0.7818608E-02  0.1093470E+00
         21   -1    0    0  501  502  0.00000000000E+00  0.00000000000E+00  0.31069647172E+01  0.31069647172E+01  0.00000000000E+00 0. -1.
         13   -1    0    0    0    0 -0.00000000000E+00 -0.00000000000E+00 -0.10000000000E+04  0.10000000000E+04  0.00000000000E+00 0.  1.
    9000005    2    1    2  501    0 -0.51820811364E+02 -0.35669324522E+01 -0.67980175904E+03  0.68178936954E+03  0.28624000860E+01 0.  0.
         13    1    3    3    0    0 -0.14991524402E+02  0.12512428171E+00 -0.18832915232E+03  0.18892493502E+03  0.00000000000E+00 0.  1.
          3    1    3    3  501    0 -0.36829286961E+02 -0.36920567339E+01 -0.49147260672E+03  0.49286443452E+03  0.00000000000E+00 0.  1.
         -3    1    1    2    0  502  0.51820811364E+02  0.35669324522E+01 -0.31709127625E+03  0.32131759517E+03  0.00000000000E+00 0. -1.
<mgrwt>
<rscale>  1 0.30000000E+03</rscale>
<asrwt>0</asrwt>
<pdfrwt beam="1">  1       21 0.11298077E-01 0.30000000E+03</pdfrwt>
<pdfrwt beam="2">0</pdfrwt>
<totfact> 0.69110362E+03</totfact>
</mgrwt>
</event>
<event>
 6    1  0.1274196E-001  0.3000000E+03  0.7818608E-02  0.1093470E+00
         21   -1    0    0  501  502  0.00000000000E+00  0.00000000000E+00  0.18433009770E+01  0.18433009770E+01  0.00000000000E+00 0. -1.
         13   -1    0    0    0    0 -0.00000000000E+00 -0.00000000000E+00 -0.10000000000E+04  0.10000000000E+04  0.00000000000E+00 0.  1.
    9000005    2    1    2  501    0 -0.49090509803E+01  0.34378696687E+02 -0.79252447654E+03  0.79329929006E+03  0.47669824811E+01 0.  0.
         13    1    3    3    0    0 -0.27260743157E+01  0.25976229397E+02 -0.63321362411E+03  0.63375207276E+03  0.00000000000E+00 0.  1.
          3    1    3    3  501    0 -0.21829766646E+01  0.84024672901E+01 -0.15931085243E+03  0.15954721729E+03  0.00000000000E+00 0.  1.
         -1    1    1    2    0  502  0.49090509803E+01 -0.34378696687E+02 -0.20563222248E+03  0.20854401092E+03  0.00000000000E+00 0. -1.
<mgrwt>
<rscale>  1 0.30000000E+03</rscale>
<asrwt>0</asrwt>
<pdfrwt beam="1">  1       21 0.67029268E-02 0.30000000E+03</pdfrwt>
<pdfrwt beam="2">0</pdfrwt>
<totfact> 0.17397994E+04</totfact>
</mgrwt>
</event>
<event>
 6    1  0.1274196E-001  0.3000000E+03  0.7818608E-02  0.1093470E+00
         21   -1    0    0  501  502  0.00000000000E+00  0.00000000000E+00  0.21997388906E+01  0.21997388906E+01  0.00000000000E+00 0. -1.
         13   -1    0    0    0    0 -0.00000000000E+00 -0.00000000000E+00 -0.10000000000E+04  0.10000000000E+04  0.00000000000E+00 0.  1.
    9000005    2    1    2  501    0 -0.27686305590E+02 -0.28835772489E+02 -0.76041755995E+03  0.76147462574E+03  0.32721355841E+01 0.  0.
         13    1    3    3    0    0 -0.44049535691E+01 -0.63993263239E+01 -0.15316990112E+03  0.15336679432E+03  0.00000000000E+00 0.  1.
          1    1    3    3  501    0 -0.23281352021E+02 -0.22436446165E+02 -0.60724765883E+03  0.60810783141E+03  0.00000000000E+00 0.  1.
         -3    1    1    2    0  502  0.27686305590E+02  0.28835772489E+02 -0.23738270116E+03  0.24072511316E+03  0.00000000000E+00 0. -1.
<mgrwt>
<rscale>  1 0.30000000E+03</rscale>
<asrwt>0</asrwt>
<pdfrwt beam="1">  1       21 0.79990674E-02 0.30000000E+03</pdfrwt>
<pdfrwt beam="2">0</pdfrwt>
<totfact> 0.12776485E+04</totfact>
</mgrwt>
</event>
<event>
 6    1  0.1274196E-001  0.3000000E+03  0.7818608E-02  0.1093470E+00
         21   -1    0    0  501  502  0.00000000000E+00  0.00000000000E+00  0.20594462323E+01  0.20594462323E+01  0.00000000000E+00 0. -1.
         13   -1    0    0    0    0 -0.00000000000E+00 -0.00000000000E+00 -0.10000000000E+04  0.10000000000E+04  0.00000000000E+00 0.  1.
    9000005    2    1    2  501    0  0.10726820570E+02 -0.30035224529E+02 -0.85512560800E+03  0.85572664701E+03  0.33331010354E+01 0.  0.
         13    1    3    3    0    0  0.80088132315E+00 -0.55160277845E+01 -0.13313269084E+03  0.13324932024E+03  0.00000000000E+00 0.  1.
          3    1    3    3  501    0  0.99259392467E+01 -0.24519196745E+02 -0.72199291716E+03  0.72247732678E+03  0.00000000000E+00 0.  1.
         -1    1    1    2    0  502 -0.10726820570E+02  0.30035224529E+02 -0.14281494577E+03  0.14633279922E+03  0.00000000000E+00 0. -1.
<mgrwt>
<rscale>  1 0.30000000E+03</rscale>
<asrwt>0</asrwt>
<pdfrwt beam="1">  1       21 0.74889112E-02 0.30000000E+03</pdfrwt>
<pdfrwt beam="2">0</pdfrwt>
<totfact> 0.14341567E+04</totfact>
</mgrwt>
</event>
<event>
 6    1  0.1274196E-001  0.3000000E+03  0.7818608E-02  0.1093470E+00
         21   -1    0    0  501  502  0.00000000000E+00  0.00000000000E+00  0.51262665689E+01  0.51262665689E+01  0.00000000000E+00 0. -1.
         13   -1    0    0    0    0 -0.00000000000E+00 -0.00000000000E+00 -0.10000000000E+04  0.10000000000E+04  0.00000000000E+00 0.  1.
    9000005    2    1    2  501    0 -0.30412909134E+01 -0.69491303075E+02 -0.61554578086E+03  0.61947359089E+03  0.35539875055E+01 0.  0.
         13    1    3    3    0    0 -0.39545403626E+00 -0.46589614657E+01 -0.34277938515E+02  0.34595366376E+02  0.00000000000E+00 0.  1.
          1    1    3    3  501    0 -0.26458368771E+01 -0.64832341609E+02 -0.58126784234E+03  0.58487822452E+03  0.00000000000E+00 0.  1.
         -3    1    1    2    0  502  0.30412909134E+01  0.69491303075E+02 -0.37932795257E+03  0.38565267568E+03  0.00000000000E+00 0. -1.
<mgrwt>
<rscale>  1 0.30000000E+03</rscale>
<asrwt>0</asrwt>
<pdfrwt beam="1">  1       21 0.18641009E-01 0.30000000E+03</pdfrwt>
<pdfrwt beam="2">0</pdfrwt>
<totfact> 0.27423528E+03</totfact>
</mgrwt>
</event>
<event>
 6    1  0.1274196E-001  0.3000000E+03  0.7818608E-02  0.1093470E+00
         21   -1    0    0  501  502  0.00000000000E+00  0.00000000000E+00  0.13374907089E+01  0.13374907089E+01  0.00000000000E+00 0. -1.
         13   -1    0    0    0    0 -0.00000000000E+00 -0.00000000000E+00 -0.10000000000E+04  0.10000000000E+04  0.00000000000E+00 0.  1.
    9000005    2    1    2  501    0 -0.16246970667E+02 -0.28757493900E+02 -0.71226098445E+03  0.71303766250E+03  0.40050804364E+01 0.  0.
         13    1    3    3    0    0 -0.48769501277E+01 -0.54131786629E+01 -0.16639257193E+03  0.16655201932E+03  0.00000000000E+00 0.  1.
          1    1    3    3  501    0 -0.11370020539E+02 -0.23344315237E+02 -0.54586841252E+03  0.54648564318E+03  0.00000000000E+00 0.  1.
         -1    1    1    2    0  502  0.16246970667E+02  0.28757493900E+02 -0.28640152485E+03  0.28829982821E+03  0.00000000000E+00 0. -1.
<mgrwt>
<rscale>  1 0.30000000E+03</rscale>
<asrwt>0</asrwt>
<pdfrwt beam="1">  1       21 0.48636128E-02 0.30000000E+03</pdfrwt>
<pdfrwt beam="2">0</pdfrwt>
<totfact> 0.30194286E+04</totfact>
</mgrwt>
</event>
<event>
 6    1  0.1274196E-001  0.3000000E+03  0.7818608E-02  0.1093470E+00
         21   -1    0    0  501  502  0.00000000000E+00  0.00000000000E+00  0.16138765398E+01  0.16138765398E+01  0.00000000000E+00 0. -1.
         13   -1    0    0    0    0 -0.00000000000E+00 -0.00000000000E+00 -0.10000000000E+04  0.10000000000E+04  0.00000000000E+00 0.  1.
    9000005    2    1    2  501    0  0.39771308063E+02 -0.31788940969E+01 -0.54588471442E+03  0.54735691458E+03  0.41962101597E+01 0.  0.
         13    1    3    3    0    0  0.31932016724E+02 -0.41067095868E+01 -0.44645798462E+03  0.44761730394E+03  0.00000000000E+00 0.  1.
          1    1    3    3  501    0  0.78392913393E+01  0.92781548983E+00 -0.99426729802E+02  0.99739610634E+02  0.00000000000E+00 0.  1.
         -1    1    1    2    0  502 -0.39771308063E+02  0.31788940969E+01 -0.45250140904E+03  0.45425696196E+03  0.00000000000E+00 0. -1.
<mgrwt>
<rscale>  1 0.30000000E+03</rscale>
<asrwt>0</asrwt>
<pdfrwt beam="1">  1       21 0.58686543E-02 0.30000000E+03</pdfrwt>
<pdfrwt beam="2">0</pdfrwt>
<totfact> 0.21891241E+04</totfact>
</mgrwt>
</event>
<event>
 6    1  0.1274196E-001  0.3000000E+03  0.7818608E-02  0.1093470E+00
         21   -1    0    0  501  502  0.00000000000E+00  0.00000000000E+00  0.36909412656E+01  0.36909412656E+01  0.00000000000E+00 0. -1.
         13   -1    0    0    0    0 -0.00000000000E+00 -0.00000000000E+00 -0.10000000000E+04  0.10000000000E+04  0.00000000000E+00 0.  1.
    9000005    2    1    2  501    0 -0.33400063082E+02  0.27107081226E+02 -0.85212669101E+03  0.85322860967E+03  0.53670067934E+01 0.  0.
         13    1    3    3    0    0 -0.18702647171E+02  0.11757059976E+02 -0.44166214671E+03  0.44221427985E+03  0.00000000000E+00 0.  1.
          3    1    3    3  501    0 -0.14697415911E+02  0.15350021250E+02 -0.41046454430E+03  0.41101432982E+03  0.00000000000E+00 0.  1.
         -3    1    1    2    0  502  0.33400063082E+02 -0.27107081226E+02 -0.14418236773E+03  0.15046233160E+03  0.00000000000E+00 0. -1.
<mgrwt>
<rscale>  1 0.30000000E+03</rscale>
<asrwt>0</asrwt>
<pdfrwt beam="1">  1       21 0.13421633E-01 0.30000000E+03</pdfrwt>
<pdfrwt beam="2">0</pdfrwt>
<totfact> 0.50528789E+03</totfact>
</mgrwt>
</event>
<event>
 6    1  0.1274196E-001  0.3000000E+03  0.7818608E-02  0.1093470E+00
         21   -1    0    0  501  502  0.00000000000E+00  0.00000000000E+00  0.25569458526E+01  0.25569458526E+01  0.00000000000E+00 0. -1.
         13   -1    0    0    0    0 -0.00000000000E+00 -0.00000000000E+00 -0.10000000000E+04  0.10000000000E+04  0.00000000000E+00 0.  1.
    9000005    2    1    2  501    0 -0.44659576301E+02  0.18056293286E+02 -0.64982385860E+03  0.65161590722E+03  0.34257634985E+01 0.  0.
         13    1    3    3    0    0 -0.33132017826E+02  0.14713994368E+02 -0.49920283732E+03  0.50051743728E+03  0.00000000000E+00 0.  1.
          3    1    3    3  501    0 -0.11527558474E+02  0.33422989181E+01 -0.15062102128E+03  0.15109846994E+03  0.00000000000E+00 0.  1.
         -1    1    1    2    0  502  0.44659576301E+02 -0.18056293286E+02 -0.34761919555E+03  0.35094103863E+03  0.00000000000E+00 0. -1.
<mgrwt>
<rscale>  1 0.30000000E+03</rscale>
<asrwt>0</asrwt>
<pdfrwt beam="1">  1       21 0.92980045E-02 0.30000000E+03</pdfrwt>
<pdfrwt beam="2">0</pdfrwt>
<totfact> 0.97952260E+03</totfact>
</mgrwt>
</event>
<event>
 6    1  0.1274196E-001  0.3000000E+03  0.7818608E-02  0.1093470E+00
         21   -1    0    0  501  502  0.00000000000E+00  0.00000000000E+00  0.13555434073E+01  0.13555434073E+01  0.00000000000E+00 0. -1.
         13   -1    0    0    0    0 -0.00000000000E+00 -0.00000000000E+00 -0.10000000000E+04  0.10000000000E+04  0.00000000000E+00 0.  1.
    9000005    2    1    2  501    0  0.12622631892E+02  0.29714060430E+02 -0.73806436593E+03  0.73878319171E+03  0.43977133332E+01 0.  0.
         13    1    3    3    0    0  0.66964726348E+01  0.11418788425E+02 -0.33166522432E+03  0.33192928840E+03  0.00000000000E+00 0.  1.
          3    1    3    3  501    0  0.59261592570E+01  0.18295272006E+02 -0.40639914161E+03  0.40685390332E+03  0.00000000000E+00 0.  1.
         -1    1    1    2    0  502 -0.12622631892E+02 -0.29714060430E+02 -0.26058009066E+03  0.26257235169E+03  0.00000000000E+00 0. -1.
<mgrwt>
<rscale>  1 0.30000000E+03</rscale>
<asrwt>0</asrwt>
<pdfrwt beam="1">  1       21 0.49292591E-02 0.30000000E+03</pdfrwt>
<pdfrwt beam="2">0</pdfrwt>
<totfact> 0.29512669E+04</totfact>
</mgrwt>
</event>
<event>
 6    1  0.1274196E-001  0.3000000E+03  0.7818608E-02  0.1093470E+00
         21   -1    0    0  501  502  0.00000000000E+00  0.00000000000E+00  0.12346750142E+01  0.12346750142E+01  0.00000000000E+00 0. -1.
         13   -1    0    0    0    0 -0.00000000000E+00 -0.00000000000E+00 -0.10000000000E+04  0.10000000000E+04  0.00000000000E+00 0.  1.
    9000005    2    1    2  501    0 -0.31195097480E+02 -0.34608136287E+01 -0.72342991417E+03  0.72411610872E+03  0.28612670366E+01 0.  0.
         13    1    3    3    0    0 -0.13592374585E+01 -0.46001191509E+00 -0.46934723580E+02  0.46956654640E+02  0.00000000000E+00 0.  1.
          1    1    3    3  501    0 -0.29835860021E+02 -0.30008017136E+01 -0.67649519059E+03  0.67715945408E+03  0.00000000000E+00 0.  1.
         -1    1    1    2    0  502  0.31195097480E+02  0.34608136287E+01 -0.27533541081E+03  0.27711856629E+03  0.00000000000E+00 0. -1.
<mgrwt>
<rscale>  1 0.30000000E+03</rscale>
<asrwt>0</asrwt>
<pdfrwt beam="1">  1       21 0.44897368E-02 0.30000000E+03</pdfrwt>
<pdfrwt beam="2">0</pdfrwt>
<totfact> 0.34591946E+04</totfact>
</mgrwt>
</event>
<event>
 6    1  0.1274196E-001  0.3000000E+03  0.7818608E-02  0.1093470E+00
         21   -1    0    0  501  502  0.00000000000E+00  0.00000000000E+00  0.23991819925E+01  0.23991819925E+01  0.00000000000E+00 0. -1.
         13   -1    0    0    0    0 -0.00000000000E+00 -0.00000000000E+00 -0.10000000000E+04  0.10000000000E+04  0.00000000000E+00 0.  1.
    9000005    2    1    2  501    0  0.43703053675E+02  0.19938253157E+02 -0.42155917815E+03  0.42435812663E+03  0.77580997338E+01 0.  0.
         13    1    3    3    0    0  0.15342706960E+01 -0.67839160771E+00 -0.18140565911E+02  0.18217967321E+02  0.00000000000E+00 0.  1.
          1    1    3    3  501    0  0.42168782979E+02  0.20616644765E+02 -0.40341861224E+03  0.40614015930E+03  0.00000000000E+00 0.  1.
         -3    1    1    2    0  502 -0.43703053675E+02 -0.19938253157E+02 -0.57604163986E+03  0.57804105537E+03  0.00000000000E+00 0. -1.
<mgrwt>
<rscale>  1 0.30000000E+03</rscale>
<asrwt>0</asrwt>
<pdfrwt beam="1">  1       21 0.87243166E-02 0.30000000E+03</pdfrwt>
<pdfrwt beam="2">0</pdfrwt>
<totfact> 0.10965332E+04</totfact>
</mgrwt>
</event>
<event>
 6    1  0.1274196E-001  0.3000000E+03  0.7818608E-02  0.1093470E+00
         21   -1    0    0  501  502  0.00000000000E+00  0.00000000000E+00  0.25625794614E+01  0.25625794614E+01  0.00000000000E+00 0. -1.
         13   -1    0    0    0    0 -0.00000000000E+00 -0.00000000000E+00 -0.10000000000E+04  0.10000000000E+04  0.00000000000E+00 0.  1.
    9000005    2    1    2  501    0  0.48066170225E+02 -0.12514151231E+02 -0.59326957571E+03  0.59535426976E+03  0.33100377933E+01 0.  0.
         13    1    3    3    0    0  0.29756958025E+01  0.22294870372E-01 -0.36791612513E+02  0.36911759831E+02  0.00000000000E+00 0.  1.
          3    1    3    3  501    0  0.45090474423E+02 -0.12536446101E+02 -0.55647796320E+03  0.55844250993E+03  0.00000000000E+00 0.  1.
         -1    1    1    2    0  502 -0.48066170225E+02  0.12514151231E+02 -0.40416784482E+03  0.40720830970E+03  0.00000000000E+00 0. -1.
<mgrwt>
<rscale>  1 0.30000000E+03</rscale>
<asrwt>0</asrwt>
<pdfrwt beam="1">  1       21 0.93184904E-02 0.30000000E+03</pdfrwt>
<pdfrwt beam="2">0</pdfrwt>
<totfact> 0.97569828E+03</totfact>
</mgrwt>
</event>
<event>
 6    1  0.1274196E-001  0.3000000E+03  0.7818608E-02  0.1093470E+00
         21   -1    0    0  501  502  0.00000000000E+00  0.00000000000E+00  0.13171506217E+01  0.13171506217E+01  0.00000000000E+00 0. -1.
         13   -1    0    0    0    0 -0.00000000000E+00 -0.00000000000E+00 -0.10000000000E+04  0.10000000000E+04  0.00000000000E+00 0.  1.
    9000005    2    1    2  501    0  0.22709982770E+02 -0.23110891520E+02 -0.72377744810E+03  0.72450884822E+03  0.30692267109E+01 0.  0.
         13    1    3    3    0    0  0.34088183454E+01 -0.51660445491E+01 -0.14143301520E+03  0.14156837870E+03  0.00000000000E+00 0.  1.
          3    1    3    3  501    0  0.19301164425E+02 -0.17944846971E+02 -0.58234443290E+03  0.58294046952E+03  0.00000000000E+00 0.  1.
         -3    1    1    2    0  502 -0.22709982770E+02  0.23110891520E+02 -0.27490540128E+03  0.27680830240E+03  0.00000000000E+00 0. -1.
<mgrwt>
<rscale>  1 0.30000000E+03</rscale>
<asrwt>0</asrwt>
<pdfrwt beam="1">  1       21 0.47896487E-02 0.30000000E+03</pdfrwt>
<pdfrwt beam="2">0</pdfrwt>
<totfact> 0.30992178E+04</totfact>
</mgrwt>
</event>
<event>
 6    1  0.1274196E-001  0.3000000E+03  0.7818608E-02  0.1093470E+00
         21   -1    0    0  501  502  0.00000000000E+00  0.00000000000E+00  0.11425244397E+01  0.11425244397E+01  0.00000000000E+00 0. -1.
         13   -1    0    0    0    0 -0.00000000000E+00 -0.00000000000E+00 -0.10000000000E+04  0.10000000000E+04  0.00000000000E+00 0.  1.
    9000005    2    1    2  501    0  0.14305657265E+02 -0.30367238595E+02 -0.54909829042E+03  0.55013238528E+03  0.31444838164E+01 0.  0.
         13    1    3    3    0    0  0.14252668133E+02 -0.28854542615E+02 -0.52033534575E+03  0.52132964160E+03  0.00000000000E+00 0.  1.
          3    1    3    3  501    0  0.52989131973E-01 -0.15126959805E+01 -0.28762944675E+02  0.28802743677E+02  0.00000000000E+00 0.  1.
         -1    1    1    2    0  502 -0.14305657265E+02  0.30367238595E+02 -0.44975918514E+03  0.45101013916E+03  0.00000000000E+00 0. -1.
<mgrwt>
<rscale>  1 0.30000000E+03</rscale>
<asrwt>0</asrwt>
<pdfrwt beam="1">  1       21 0.41546431E-02 0.30000000E+03</pdfrwt>
<pdfrwt beam="2">0</pdfrwt>
<totfact> 0.39442827E+04</totfact>
</mgrwt>
</event>
<event>
 6    1  0.1274196E-001  0.3000000E+03  0.7818608E-02  0.1093470E+00
         21   -1    0    0  501  502  0.00000000000E+00  0.00000000000E+00  0.33040190111E+01  0.33040190111E+01  0.00000000000E+00 0. -1.
         13   -1    0    0    0    0 -0.00000000000E+00 -0.00000000000E+00 -0.10000000000E+04  0.10000000000E+04  0.00000000000E+00 0.  1.
    9000005    2    1    2  501    0  0.42018968061E+02  0.18745423756E+02 -0.79785284004E+03  0.79920703400E+03  0.67634491857E+01 0.  0.
         13    1    3    3    0    0  0.39148731409E+02  0.16132763868E+02 -0.75152825005E+03  0.75272013382E+03  0.00000000000E+00 0.  1.
          1    1    3    3  501    0  0.28702366521E+01  0.26126598881E+01 -0.46324589987E+02  0.46486900172E+02  0.00000000000E+00 0.  1.
         -1    1    1    2    0  502 -0.42018968061E+02 -0.18745423756E+02 -0.19884314095E+03  0.20409698502E+03  0.00000000000E+00 0. -1.
<mgrwt>
<rscale>  1 0.30000000E+03</rscale>
<asrwt>0</asrwt>
<pdfrwt beam="1">  1       21 0.12014640E-01 0.30000000E+03</pdfrwt>
<pdfrwt beam="2">0</pdfrwt>
<totfact> 0.61834208E+03</totfact>
</mgrwt>
</event>
<event>
 6    1  0.1274196E-001  0.3000000E+03  0.7818608E-02  0.1093470E+00
         21   -1    0    0  501  502  0.00000000000E+00  0.00000000000E+00  0.10523044449E+01  0.10523044449E+01  0.00000000000E+00 0. -1.
         13   -1    0    0    0    0 -0.00000000000E+00 -0.00000000000E+00 -0.10000000000E+04  0.10000000000E+04  0.00000000000E+00 0.  1.
    9000005    2    1    2  501    0 -0.38077256346E+01  0.29900622645E+02 -0.68314236974E+03  0.68381178083E+03  0.25511294437E+01 0.  0.
         13    1    3    3    0    0 -0.33707972422E+01  0.17747676369E+02 -0.42157389283E+03  0.42196076761E+03  0.00000000000E+00 0.  1.
          1    1    3    3  501    0 -0.43692839241E+00  0.12152946275E+02 -0.26156847691E+03  0.26185101322E+03  0.00000000000E+00 0.  1.
         -1    1    1    2    0  502  0.38077256346E+01 -0.29900622645E+02 -0.31580532581E+03  0.31724052361E+03  0.00000000000E+00 0. -1.
<mgrwt>
<rscale>  1 0.30000000E+03</rscale>
<asrwt>0</asrwt>
<pdfrwt beam="1">  1       21 0.38265697E-02 0.30000000E+03</pdfrwt>
<pdfrwt beam="2">0</pdfrwt>
<totfact> 0.45302546E+04</totfact>
</mgrwt>
</event>
<event>
 6    1  0.1274196E-001  0.3000000E+03  0.7818608E-02  0.1093470E+00
         21   -1    0    0  501  502  0.00000000000E+00  0.00000000000E+00  0.37592264948E+01  0.37592264948E+01  0.00000000000E+00 0. -1.
         13   -1    0    0    0    0 -0.00000000000E+00 -0.00000000000E+00 -0.10000000000E+04  0.10000000000E+04  0.00000000000E+00 0.  1.
    9000005    2    1    2  501    0 -0.39695682894E+02 -0.40300126293E+02 -0.69099489489E+03  0.69331616597E+03  0.36761127068E+01 0.  0.
         13    1    3    3    0    0 -0.22635138523E+02 -0.23857272361E+02 -0.38055142874E+03  0.38196977479E+03  0.00000000000E+00 0.  1.
          1    1    3    3  501    0 -0.17060544370E+02 -0.16442853932E+02 -0.31044346615E+03  0.31134639117E+03  0.00000000000E+00 0.  1.
         -3    1    1    2    0  502  0.39695682894E+02  0.40300126293E+02 -0.30524587861E+03  0.31044306053E+03  0.00000000000E+00 0. -1.
<mgrwt>
<rscale>  1 0.30000000E+03</rscale>
<asrwt>0</asrwt>
<pdfrwt beam="1">  1       21 0.13669943E-01 0.30000000E+03</pdfrwt>
<pdfrwt beam="2">0</pdfrwt>
<totfact> 0.48860048E+03</totfact>
</mgrwt>
</event>
<event>
 6    1  0.1274196E-001  0.3000000E+03  0.7818608E-02  0.1093470E+00
         21   -1    0    0  501  502  0.00000000000E+00  0.00000000000E+00  0.19151234564E+01  0.19151234564E+01  0.00000000000E+00 0. -1.
         13   -1    0    0    0    0 -0.00000000000E+00 -0.00000000000E+00 -0.10000000000E+04  0.10000000000E+04  0.00000000000E+00 0.  1.
    9000005    2    1    2  501    0  0.11846559997E+02  0.36310244397E+02 -0.74169592888E+03  0.74269693868E+03  0.52073970020E+01 0.  0.
         13    1    3    3    0    0  0.11898837042E+01  0.72559384115E+00 -0.29694920310E+02  0.29727606730E+02  0.00000000000E+00 0.  1.
          3    1    3    3  501    0  0.10656676293E+02  0.35584650556E+02 -0.71200100857E+03  0.71296933195E+03  0.00000000000E+00 0.  1.
         -1    1    1    2    0  502 -0.11846559997E+02 -0.36310244397E+02 -0.25638894767E+03  0.25921818477E+03  0.00000000000E+00 0. -1.
<mgrwt>
<rscale>  1 0.30000000E+03</rscale>
<asrwt>0</asrwt>
<pdfrwt beam="1">  1       21 0.69641000E-02 0.30000000E+03</pdfrwt>
<pdfrwt beam="2">0</pdfrwt>
<totfact> 0.16280289E+04</totfact>
</mgrwt>
</event>
<event>
 6    1  0.1274196E-001  0.3000000E+03  0.7818608E-02  0.1093470E+00
         21   -1    0    0  501  502  0.00000000000E+00  0.00000000000E+00  0.14043274344E+01  0.14043274344E+01  0.00000000000E+00 0. -1.
         13   -1    0    0    0    0 -0.00000000000E+00 -0.00000000000E+00 -0.10000000000E+04  0.10000000000E+04  0.00000000000E+00 0.  1.
    9000005    2    1    2  501    0 -0.19793190908E+02 -0.23169942617E+02 -0.78807301455E+03  0.78868759987E+03  0.63590315129E+01 0.  0.
         13    1    3    3    0    0 -0.98658871773E+01 -0.16150445133E+02 -0.45868155460E+03  0.45907182568E+03  0.00000000000E+00 0.  1.
          3    1    3    3  501    0 -0.99273037304E+01 -0.70194974843E+01 -0.32939145995E+03  0.32961577419E+03  0.00000000000E+00 0.  1.
         -1    1    1    2    0  502  0.19793190908E+02  0.23169942617E+02 -0.21052265802E+03  0.21271672756E+03  0.00000000000E+00 0. -1.
<mgrwt>
<rscale>  1 0.30000000E+03</rscale>
<asrwt>0</asrwt>
<pdfrwt beam="1">  1       21 0.51066560E-02 0.30000000E+03</pdfrwt>
<pdfrwt beam="2">0</pdfrwt>
<totfact> 0.27786111E+04</totfact>
</mgrwt>
</event>
<event>
 6    1  0.1274196E-001  0.3000000E+03  0.7818608E-02  0.1093470E+00
         21   -1    0    0  501  502  0.00000000000E+00  0.00000000000E+00  0.14402479161E+01  0.14402479161E+01  0.00000000000E+00 0. -1.
         13   -1    0    0    0    0 -0.00000000000E+00 -0.00000000000E+00 -0.10000000000E+04  0.10000000000E+04  0.00000000000E+00 0.  1.
    9000005    2    1    2  501    0  0.27344575545E+02 -0.22140344301E+02 -0.68405796618E+03  0.68497651540E+03  0.44277427461E+01 0.  0.
         13    1    3    3    0    0  0.19716039369E+02 -0.17591490143E+02 -0.48252249778E+03  0.48324542791E+03  0.00000000000E+00 0.  1.
          1    1    3    3  501    0  0.76285361754E+01 -0.45488541584E+01 -0.20153546840E+03  0.20173108750E+03  0.00000000000E+00 0.  1.
         -1    1    1    2    0  502 -0.27344575545E+02  0.22140344301E+02 -0.31450178591E+03  0.31646373251E+03  0.00000000000E+00 0. -1.
<mgrwt>
<rscale>  1 0.30000000E+03</rscale>
<asrwt>0</asrwt>
<pdfrwt beam="1">  1       21 0.52372762E-02 0.30000000E+03</pdfrwt>
<pdfrwt beam="2">0</pdfrwt>
<totfact> 0.26613078E+04</totfact>
</mgrwt>
</event>
<event>
 6    1  0.1274196E-001  0.3000000E+03  0.7818608E-02  0.1093470E+00
         21   -1    0    0  501  502  0.00000000000E+00  0.00000000000E+00  0.12308668190E+01  0.12308668190E+01  0.00000000000E+00 0. -1.
         13   -1    0    0    0    0 -0.00000000000E+00 -0.00000000000E+00 -0.10000000000E+04  0.10000000000E+04  0.00000000000E+00 0.  1.
    9000005    2    1    2  501    0  0.14726165464E+02  0.29510304429E+02 -0.66783708477E+03  0.66865946294E+03  0.33745458712E+01 0.  0.
         13    1    3    3    0    0  0.83074919755E+01  0.12881352494E+02 -0.30976434444E+03  0.31014334227E+03  0.00000000000E+00 0.  1.
          3    1    3    3  501    0  0.64186734886E+01  0.16628951935E+02 -0.35807274033E+03  0.35851612067E+03  0.00000000000E+00 0.  1.
         -3    1    1    2    0  502 -0.14726165464E+02 -0.29510304429E+02 -0.33093204841E+03  0.33257140388E+03  0.00000000000E+00 0. -1.
<mgrwt>
<rscale>  1 0.30000000E+03</rscale>
<asrwt>0</asrwt>
<pdfrwt beam="1">  1       21 0.44758888E-02 0.30000000E+03</pdfrwt>
<pdfrwt beam="2">0</pdfrwt>
<totfact> 0.34773696E+04</totfact>
</mgrwt>
</event>
<event>
 6    1  0.1274196E-001  0.3000000E+03  0.7818608E-02  0.1093470E+00
         21   -1    0    0  501  502  0.00000000000E+00  0.00000000000E+00  0.12091185363E+01  0.12091185363E+01  0.00000000000E+00 0. -1.
         13   -1    0    0    0    0 -0.00000000000E+00 -0.00000000000E+00 -0.10000000000E+04  0.10000000000E+04  0.00000000000E+00 0.  1.
    9000005    2    1    2  501    0  0.14245925341E+02  0.26964282460E+02 -0.73860151342E+03  0.73923865042E+03  0.34011386805E+01 0.  0.
         13    1    3    3    0    0  0.38504244872E+01  0.86574655493E+01 -0.19602000173E+03  0.19624886893E+03  0.00000000000E+00 0.  1.
          3    1    3    3  501    0  0.10395500854E+02  0.18306816910E+02 -0.54258151168E+03  0.54298978149E+03  0.00000000000E+00 0.  1.
         -1    1    1    2    0  502 -0.14245925341E+02 -0.26964282460E+02 -0.26018936805E+03  0.26197046811E+03  0.00000000000E+00 0. -1.
<mgrwt>
<rscale>  1 0.30000000E+03</rscale>
<asrwt>0</asrwt>
<pdfrwt beam="1">  1       21 0.43968039E-02 0.30000000E+03</pdfrwt>
<pdfrwt beam="2">0</pdfrwt>
<totfact> 0.35840492E+04</totfact>
</mgrwt>
</event>
<event>
 6    1  0.1274196E-001  0.3000000E+03  0.7818608E-02  0.1093470E+00
         21   -1    0    0  501  502  0.00000000000E+00  0.00000000000E+00  0.27807665189E+01  0.27807665189E+01  0.00000000000E+00 0. -1.
         13   -1    0    0    0    0 -0.00000000000E+00 -0.00000000000E+00 -0.10000000000E+04  0.10000000000E+04  0.00000000000E+00 0.  1.
    9000005    2    1    2  501    0  0.33295964973E+02  0.11179242511E+00 -0.88730556236E+03  0.88793456989E+03  0.28294217333E+01 0.  0.
         13    1    3    3    0    0  0.72893950444E+01 -0.11471789731E+01 -0.19556596164E+03  0.19570512679E+03  0.00000000000E+00 0.  1.
          3    1    3    3  501    0  0.26006569929E+02  0.12589713982E+01 -0.69173960072E+03  0.69222944310E+03  0.00000000000E+00 0.  1.
         -1    1    1    2    0  502 -0.33295964973E+02 -0.11179242511E+00 -0.10991367112E+03  0.11484619663E+03  0.00000000000E+00 0. -1.
<mgrwt>
<rscale>  1 0.30000000E+03</rscale>
<asrwt>0</asrwt>
<pdfrwt beam="1">  1       21 0.10111900E-01 0.30000000E+03</pdfrwt>
<pdfrwt beam="2">0</pdfrwt>
<totfact> 0.84337684E+03</totfact>
</mgrwt>
</event>
<event>
 6    1  0.1274196E-001  0.3000000E+03  0.7818608E-02  0.1093470E+00
         21   -1    0    0  501  502  0.00000000000E+00  0.00000000000E+00  0.23334925479E+01  0.23334925479E+01  0.00000000000E+00 0. -1.
         13   -1    0    0    0    0 -0.00000000000E+00 -0.00000000000E+00 -0.10000000000E+04  0.10000000000E+04  0.00000000000E+00 0.  1.
    9000005    2    1    2  501    0  0.20690661953E+02 -0.41444682099E+02 -0.35871905321E+03  0.36170909834E+03  0.28892079764E+01 0.  0.
         13    1    3    3    0    0  0.15406267400E+02 -0.30139446516E+02 -0.27146520476E+03  0.27356735315E+03  0.00000000000E+00 0.  1.
          3    1    3    3  501    0  0.52843945534E+01 -0.11305235583E+02 -0.87253848448E+02  0.88141745197E+02  0.00000000000E+00 0.  1.
         -1    1    1    2    0  502 -0.20690661953E+02  0.41444682099E+02 -0.63894745424E+03  0.64062439420E+03  0.00000000000E+00 0. -1.
<mgrwt>
<rscale>  1 0.30000000E+03</rscale>
<asrwt>0</asrwt>
<pdfrwt beam="1">  1       21 0.84854453E-02 0.30000000E+03</pdfrwt>
<pdfrwt beam="2">0</pdfrwt>
<totfact> 0.11516009E+04</totfact>
</mgrwt>
</event>
<event>
 6    1  0.1274196E-001  0.3000000E+03  0.7818608E-02  0.1093470E+00
         21   -1    0    0  501  502  0.00000000000E+00  0.00000000000E+00  0.17697047466E+01  0.17697047466E+01  0.00000000000E+00 0. -1.
         13   -1    0    0    0    0 -0.00000000000E+00 -0.00000000000E+00 -0.10000000000E+04  0.10000000000E+04  0.00000000000E+00 0.  1.
    9000005    2    1    2  501    0  0.36353588814E+02 -0.14134526335E+02 -0.68457770543E+03  0.68570117522E+03  0.42542533360E+01 0.  0.
         13    1    3    3    0    0  0.29087136445E+02 -0.13037998023E+02 -0.56274613233E+03  0.56364817072E+03  0.00000000000E+00 0.  1.
          1    1    3    3  501    0  0.72664523688E+01 -0.10965283113E+01 -0.12183157310E+03  0.12205300450E+03  0.00000000000E+00 0.  1.
         -3    1    1    2    0  502 -0.36353588814E+02  0.14134526335E+02 -0.31365258982E+03  0.31606852952E+03  0.00000000000E+00 0. -1.
<mgrwt>
<rscale>  1 0.30000000E+03</rscale>
<asrwt>0</asrwt>
<pdfrwt beam="1">  1       21 0.64353036E-02 0.30000000E+03</pdfrwt>
<pdfrwt beam="2">0</pdfrwt>
<totfact> 0.18670531E+04</totfact>
</mgrwt>
</event>
<event>
 6    1  0.1274196E-001  0.3000000E+03  0.7818608E-02  0.1093470E+00
         21   -1    0    0  501  502  0.00000000000E+00  0.00000000000E+00  0.10524351196E+01  0.10524351196E+01  0.00000000000E+00 0. -1.
         13   -1    0    0    0    0 -0.00000000000E+00 -0.00000000000E+00 -0.10000000000E+04  0.10000000000E+04  0.00000000000E+00 0.  1.
    9000005    2    1    2  501    0  0.18839864254E+01  0.32245254284E+02 -0.46749763124E+03  0.46862184078E+03  0.30147316438E+01 0.  0.
         13    1    3    3    0    0  0.16731404468E+01  0.31291445310E+02 -0.45895825931E+03  0.46002677937E+03  0.00000000000E+00 0.  1.
          1    1    3    3  501    0  0.21084597857E+00  0.95380897424E+00 -0.85393719375E+01  0.85950614119E+01  0.00000000000E+00 0.  1.
         -1    1    1    2    0  502 -0.18839864254E+01 -0.32245254284E+02 -0.53144993364E+03  0.53243059434E+03  0.00000000000E+00 0. -1.
<mgrwt>
<rscale>  1 0.30000000E+03</rscale>
<asrwt>0</asrwt>
<pdfrwt beam="1">  1       21 0.38270449E-02 0.30000000E+03</pdfrwt>
<pdfrwt beam="2">0</pdfrwt>
<totfact> 0.45293093E+04</totfact>
</mgrwt>
</event>
<event>
 6    1  0.1274196E-001  0.3000000E+03  0.7818608E-02  0.1093470E+00
         21   -1    0    0  501  502  0.00000000000E+00  0.00000000000E+00  0.11950456790E+01  0.11950456790E+01  0.00000000000E+00 0. -1.
         13   -1    0    0    0    0 -0.00000000000E+00 -0.00000000000E+00 -0.10000000000E+04  0.10000000000E+04  0.00000000000E+00 0.  1.
    9000005    2    1    2  501    0 -0.19923354697E+02  0.23887829486E+02 -0.71476478195E+03  0.71545672486E+03  0.46971460886E+01 0.  0.
         13    1    3    3    0    0 -0.54461968004E+01  0.48851225558E+01 -0.20911731041E+03  0.20924525083E+03  0.00000000000E+00 0.  1.
          1    1    3    3  501    0 -0.14477157896E+02  0.19002706930E+02 -0.50564747153E+03  0.50621147403E+03  0.00000000000E+00 0.  1.
         -3    1    1    2    0  502  0.19923354697E+02 -0.23887829486E+02 -0.28404017238E+03  0.28573832082E+03  0.00000000000E+00 0. -1.
<mgrwt>
<rscale>  1 0.30000000E+03</rscale>
<asrwt>0</asrwt>
<pdfrwt beam="1">  1       21 0.43456298E-02 0.30000000E+03</pdfrwt>
<pdfrwt beam="2">0</pdfrwt>
<totfact> 0.36558014E+04</totfact>
</mgrwt>
</event>
<event>
 6    1  0.1274196E-001  0.3000000E+03  0.7818608E-02  0.1093470E+00
         21   -1    0    0  501  502  0.00000000000E+00  0.00000000000E+00  0.12703551567E+01  0.12703551567E+01  0.00000000000E+00 0. -1.
         13   -1    0    0    0    0 -0.00000000000E+00 -0.00000000000E+00 -0.10000000000E+04  0.10000000000E+04  0.00000000000E+00 0.  1.
    9000005    2    1    2  501    0 -0.19813040266E+01 -0.35462635099E+02 -0.52678650813E+03  0.52799258434E+03  0.32588221312E+01 0.  0.
         13    1    3    3    0    0 -0.23153746408E+01 -0.13769985159E+02 -0.20064423191E+03  0.20112951362E+03  0.00000000000E+00 0.  1.
          3    1    3    3  501    0  0.33407061424E+00 -0.21692649940E+02 -0.32614227622E+03  0.32686307072E+03  0.00000000000E+00 0.  1.
         -3    1    1    2    0  502  0.19813040266E+01  0.35462635099E+02 -0.47194313672E+03  0.47327777081E+03  0.00000000000E+00 0. -1.
<mgrwt>
<rscale>  1 0.30000000E+03</rscale>
<asrwt>0</asrwt>
<pdfrwt beam="1">  1       21 0.46194830E-02 0.30000000E+03</pdfrwt>
<pdfrwt beam="2">0</pdfrwt>
<totfact> 0.32958253E+04</totfact>
</mgrwt>
</event>
<event>
 6    1  0.1274196E-001  0.3000000E+03  0.7818608E-02  0.1093470E+00
         21   -1    0    0  501  502  0.00000000000E+00  0.00000000000E+00  0.63759272182E+01  0.63759272182E+01  0.00000000000E+00 0. -1.
         13   -1    0    0    0    0 -0.00000000000E+00 -0.00000000000E+00 -0.10000000000E+04  0.10000000000E+04  0.00000000000E+00 0.  1.
    9000005    2    1    2  501    0 -0.11870942811E+02  0.30373378737E+02 -0.95609952143E+03  0.95666120733E+03  0.33029257579E+01 0.  0.
         13    1    3    3    0    0 -0.25040210100E+01  0.82467720665E+01 -0.21644504905E+03  0.21661657053E+03  0.00000000000E+00 0.  1.
          1    1    3    3  501    0 -0.93669218011E+01  0.22126606671E+02 -0.73965447238E+03  0.74004463680E+03  0.00000000000E+00 0.  1.
         -1    1    1    2    0  502  0.11870942811E+02 -0.30373378737E+02 -0.37524551354E+02  0.49714719887E+02  0.00000000000E+00 0. -1.
<mgrwt>
<rscale>  1 0.30000000E+03</rscale>
<asrwt>0</asrwt>
<pdfrwt beam="1">  1       21 0.23185239E-01 0.30000000E+03</pdfrwt>
<pdfrwt beam="2">0</pdfrwt>
<totfact> 0.18060141E+03</totfact>
</mgrwt>
</event>
<event>
 6    1  0.1274196E-001  0.3000000E+03  0.7818608E-02  0.1093470E+00
         21   -1    0    0  501  502  0.00000000000E+00  0.00000000000E+00  0.17228128006E+01  0.17228128006E+01  0.00000000000E+00 0. -1.
         13   -1    0    0    0    0 -0.00000000000E+00 -0.00000000000E+00 -0.10000000000E+04  0.10000000000E+04  0.00000000000E+00 0.  1.
    9000005    2    1    2  501    0  0.22340794204E+02  0.33114730555E+02 -0.36952363542E+03  0.37170160257E+03  0.43206195844E+01 0.  0.
         13    1    3    3    0    0  0.64553323802E+00  0.26871022994E+01 -0.30297616659E+02  0.30423392433E+02  0.00000000000E+00 0.  1.
          3    1    3    3  501    0  0.21695260966E+02  0.30427628256E+02 -0.33922601876E+03  0.34127821014E+03  0.00000000000E+00 0.  1.
         -1    1    1    2    0  502 -0.22340794204E+02 -0.33114730555E+02 -0.62875355178E+03  0.63002121023E+03  0.00000000000E+00 0. -1.
<mgrwt>
<rscale>  1 0.30000000E+03</rscale>
<asrwt>0</asrwt>
<pdfrwt beam="1">  1       21 0.62647870E-02 0.30000000E+03</pdfrwt>
<pdfrwt beam="2">0</pdfrwt>
<totfact> 0.19557946E+04</totfact>
</mgrwt>
</event>
<event>
 6    1  0.1274196E-001  0.3000000E+03  0.7818608E-02  0.1093470E+00
         21   -1    0    0  501  502  0.00000000000E+00  0.00000000000E+00  0.13183697139E+01  0.13183697139E+01  0.00000000000E+00 0. -1.
         13   -1    0    0    0    0 -0.00000000000E+00 -0.00000000000E+00 -0.10000000000E+04  0.10000000000E+04  0.00000000000E+00 0.  1.
    9000005    2    1    2  501    0 -0.14102934337E+02 -0.28700744085E+02 -0.73523330347E+03  0.73593629351E+03  0.34047182132E+01 0.  0.
         13    1    3    3    0    0 -0.10999627087E+02 -0.24905127636E+02 -0.63407676173E+03  0.63466100948E+03  0.00000000000E+00 0.  1.
          3    1    3    3  501    0 -0.31033072502E+01 -0.37956164497E+01 -0.10115654173E+03  0.10127528403E+03  0.00000000000E+00 0.  1.
         -1    1    1    2    0  502  0.14102934337E+02  0.28700744085E+02 -0.26344832682E+03  0.26538207621E+03  0.00000000000E+00 0. -1.
<mgrwt>
<rscale>  1 0.30000000E+03</rscale>
<asrwt>0</asrwt>
<pdfrwt beam="1">  1       21 0.47940818E-02 0.30000000E+03</pdfrwt>
<pdfrwt beam="2">0</pdfrwt>
<totfact> 0.30943432E+04</totfact>
</mgrwt>
</event>
<event>
 6    1  0.1274196E-001  0.3000000E+03  0.7818608E-02  0.1093470E+00
         21   -1    0    0  501  502  0.00000000000E+00  0.00000000000E+00  0.46449242970E+01  0.46449242970E+01  0.00000000000E+00 0. -1.
         13   -1    0    0    0    0 -0.00000000000E+00 -0.00000000000E+00 -0.10000000000E+04  0.10000000000E+04  0.00000000000E+00 0.  1.
    9000005    2    1    2  501    0  0.40915624399E+02  0.52484995459E+02 -0.60511803112E+03  0.60877409431E+03  0.30501229907E+01 0.  0.
         13    1    3    3    0    0  0.30319818897E+02  0.37336438742E+02 -0.44587300821E+03  0.44845963088E+03  0.00000000000E+00 0.  1.
          1    1    3    3  501    0  0.10595805502E+02  0.15148556717E+02 -0.15924502291E+03  0.16031446343E+03  0.00000000000E+00 0.  1.
         -1    1    1    2    0  502 -0.40915624399E+02 -0.52484995459E+02 -0.39023704459E+03  0.39587082999E+03  0.00000000000E+00 0. -1.
<mgrwt>
<rscale>  1 0.30000000E+03</rscale>
<asrwt>0</asrwt>
<pdfrwt beam="1">  1       21 0.16890669E-01 0.30000000E+03</pdfrwt>
<pdfrwt beam="2">0</pdfrwt>
<totfact> 0.33011617E+03</totfact>
</mgrwt>
</event>
<event>
 6    1  0.1274196E-001  0.3000000E+03  0.7818608E-02  0.1093470E+00
         21   -1    0    0  501  502  0.00000000000E+00  0.00000000000E+00  0.27928228031E+01  0.27928228031E+01  0.00000000000E+00 0. -1.
         13   -1    0    0    0    0 -0.00000000000E+00 -0.00000000000E+00 -0.10000000000E+04  0.10000000000E+04  0.00000000000E+00 0.  1.
    9000005    2    1    2  501    0 -0.45514363622E+02  0.81996242940E+01 -0.25708223524E+03  0.26122440328E+03  0.28499221110E+01 0.  0.
         13    1    3    3    0    0 -0.26349081045E+02  0.45016084612E+01 -0.14069383153E+03  0.14321065875E+03  0.00000000000E+00 0.  1.
          1    1    3    3  501    0 -0.19165282577E+02  0.36980158328E+01 -0.11638840372E+03  0.11801374453E+03  0.00000000000E+00 0.  1.
         -3    1    1    2    0  502  0.45514363622E+02 -0.81996242940E+01 -0.74012494195E+03  0.74156841952E+03  0.00000000000E+00 0. -1.
<mgrwt>
<rscale>  1 0.30000000E+03</rscale>
<asrwt>0</asrwt>
<pdfrwt beam="1">  1       21 0.10155741E-01 0.30000000E+03</pdfrwt>
<pdfrwt beam="2">0</pdfrwt>
<totfact> 0.83687720E+03</totfact>
</mgrwt>
</event>
<event>
 6    1  0.1274196E-001  0.3000000E+03  0.7818608E-02  0.1093470E+00
         21   -1    0    0  501  502  0.00000000000E+00  0.00000000000E+00  0.14955636646E+01  0.14955636646E+01  0.00000000000E+00 0. -1.
         13   -1    0    0    0    0 -0.00000000000E+00 -0.00000000000E+00 -0.10000000000E+04  0.10000000000E+04  0.00000000000E+00 0.  1.
    9000005    2    1    2  501    0  0.34590435960E+02 -0.65568583155E+01 -0.29469974757E+03  0.29681086071E+03  0.30422304963E+01 0.  0.
         13    1    3    3    0    0  0.75867863381E+01 -0.26998269606E+01 -0.64718408144E+02  0.65217488032E+02  0.00000000000E+00 0.  1.
          3    1    3    3  501    0  0.27003649622E+02 -0.38570313549E+01 -0.22998133943E+03  0.23159337268E+03  0.00000000000E+00 0.  1.
         -1    1    1    2    0  502 -0.34590435960E+02  0.65568583155E+01 -0.70380468876E+03  0.70468470295E+03  0.00000000000E+00 0. -1.
<mgrwt>
<rscale>  1 0.30000000E+03</rscale>
<asrwt>0</asrwt>
<pdfrwt beam="1">  1       21 0.54384248E-02 0.30000000E+03</pdfrwt>
<pdfrwt beam="2">0</pdfrwt>
<totfact> 0.24951013E+04</totfact>
</mgrwt>
</event>
<event>
 6    1  0.1274196E-001  0.3000000E+03  0.7818608E-02  0.1093470E+00
         21   -1    0    0  501  502  0.00000000000E+00  0.00000000000E+00  0.10187103688E+01  0.10187103688E+01  0.00000000000E+00 0. -1.
         13   -1    0    0    0    0 -0.00000000000E+00 -0.00000000000E+00 -0.10000000000E+04  0.10000000000E+04  0.00000000000E+00 0.  1.
    9000005    2    1    2  501    0 -0.65176131808E+01 -0.30200774521E+02 -0.62131006503E+03  0.62208584039E+03  0.31669914929E+01 0.  0.
         13    1    3    3    0    0 -0.74081330509E+00 -0.48248607845E+01 -0.77728733738E+02  0.77881860112E+02  0.00000000000E+00 0.  1.
          3    1    3    3  501    0 -0.57767998757E+01 -0.25375913737E+02 -0.54358133130E+03  0.54420398028E+03  0.00000000000E+00 0.  1.
         -1    1    1    2    0  502  0.65176131808E+01  0.30200774521E+02 -0.37767122460E+03  0.37893286998E+03  0.00000000000E+00 0. -1.
<mgrwt>
<rscale>  1 0.30000000E+03</rscale>
<asrwt>0</asrwt>
<pdfrwt beam="1">  1       21 0.37044092E-02 0.30000000E+03</pdfrwt>
<pdfrwt beam="2">0</pdfrwt>
<totfact> 0.47839711E+04</totfact>
</mgrwt>
</event>
<event>
 6    1  0.1274196E-001  0.3000000E+03  0.7818608E-02  0.1093470E+00
         21   -1    0    0  501  502  0.00000000000E+00  0.00000000000E+00  0.52671586800E+01  0.52671586800E+01  0.00000000000E+00 0. -1.
         13   -1    0    0    0    0 -0.00000000000E+00 -0.00000000000E+00 -0.10000000000E+04  0.10000000000E+04  0.00000000000E+00 0.  1.
    9000005    2    1    2  501    0 -0.40704908478E+00  0.38174081965E+02 -0.92477007996E+03  0.92556637951E+03  0.39994837609E+01 0.  0.
         13    1    3    3    0    0 -0.54150400869E+00  0.84042049844E+01 -0.16796135544E+03  0.16817235447E+03  0.00000000000E+00 0.  1.
          1    1    3    3  501    0  0.13445492391E+00  0.29769876981E+02 -0.75680872452E+03  0.75739402504E+03  0.00000000000E+00 0.  1.
         -1    1    1    2    0  502  0.40704908478E+00 -0.38174081965E+02 -0.69962761357E+02  0.79700779165E+02  0.00000000000E+00 0. -1.
<mgrwt>
<rscale>  1 0.30000000E+03</rscale>
<asrwt>0</asrwt>
<pdfrwt beam="1">  1       21 0.19153345E-01 0.30000000E+03</pdfrwt>
<pdfrwt beam="2">0</pdfrwt>
<totfact> 0.26050732E+03</totfact>
</mgrwt>
</event>
<event>
 6    1  0.1274196E-001  0.3000000E+03  0.7818608E-02  0.1093470E+00
         21   -1    0    0  501  502  0.00000000000E+00  0.00000000000E+00  0.36832896784E+01  0.36832896784E+01  0.00000000000E+00 0. -1.
         13   -1    0    0    0    0 -0.00000000000E+00 -0.00000000000E+00 -0.10000000000E+04  0.10000000000E+04  0.00000000000E+00 0.  1.
    9000005    2    1    2  501    0 -0.49886712827E+02  0.74007287909E+01 -0.77703875363E+03  0.77868045149E+03  0.32505356135E+01 0.  0.
         13    1    3    3    0    0 -0.19421815623E+02  0.41993125985E+01 -0.29187402906E+03  0.29254963680E+03  0.00000000000E+00 0.  1.
          3    1    3    3  501    0 -0.30464897204E+02  0.32014161924E+01 -0.48516472457E+03  0.48613081469E+03  0.00000000000E+00 0.  1.
         -1    1    1    2    0  502  0.49886712827E+02 -0.74007287909E+01 -0.21927795669E+03  0.22500283819E+03  0.00000000000E+00 0. -1.
<mgrwt>
<rscale>  1 0.30000000E+03</rscale>
<asrwt>0</asrwt>
<pdfrwt beam="1">  1       21 0.13393809E-01 0.30000000E+03</pdfrwt>
<pdfrwt beam="2">0</pdfrwt>
<totfact> 0.50721091E+03</totfact>
</mgrwt>
</event>
<event>
 6    1  0.1274196E-001  0.3000000E+03  0.7818608E-02  0.1093470E+00
         21   -1    0    0  501  502  0.00000000000E+00  0.00000000000E+00  0.15261130232E+01  0.15261130232E+01  0.00000000000E+00 0. -1.
         13   -1    0    0    0    0 -0.00000000000E+00 -0.00000000000E+00 -0.10000000000E+04  0.10000000000E+04  0.00000000000E+00 0.  1.
    9000005    2    1    2  501    0 -0.29306468257E+02 -0.18808289278E+02 -0.72492682357E+03  0.72577148165E+03  0.35669612701E+01 0.  0.
         13    1    3    3    0    0 -0.24641430138E+02 -0.15055337379E+02 -0.62313605483E+03  0.62380478204E+03  0.00000000000E+00 0.  1.
          3    1    3    3  501    0 -0.46650381191E+01 -0.37529518987E+01 -0.10179076874E+03  0.10196669961E+03  0.00000000000E+00 0.  1.
         -3    1    1    2    0  502  0.29306468257E+02  0.18808289278E+02 -0.27354706341E+03  0.27575463138E+03  0.00000000000E+00 0. -1.
<mgrwt>
<rscale>  1 0.30000000E+03</rscale>
<asrwt>0</asrwt>
<pdfrwt beam="1">  1       21 0.55495136E-02 0.30000000E+03</pdfrwt>
<pdfrwt beam="2">0</pdfrwt>
<totfact> 0.24100800E+04</totfact>
</mgrwt>
</event>
<event>
 6    1  0.1274196E-001  0.3000000E+03  0.7818608E-02  0.1093470E+00
         21   -1    0    0  501  502  0.00000000000E+00  0.00000000000E+00  0.11286444568E+01  0.11286444568E+01  0.00000000000E+00 0. -1.
         13   -1    0    0    0    0 -0.00000000000E+00 -0.00000000000E+00 -0.10000000000E+04  0.10000000000E+04  0.00000000000E+00 0.  1.
    9000005    2    1    2  501    0  0.12722250558E+02  0.27367265792E+02 -0.71763947648E+03  0.71828205583E+03  0.34453779316E+01 0.  0.
         13    1    3    3    0    0  0.69109130294E+01  0.15167562114E+02 -0.43624953259E+03  0.43656783017E+03  0.00000000000E+00 0.  1.
          3    1    3    3  501    0  0.58113375290E+01  0.12199703679E+02 -0.28138994389E+03  0.28171422566E+03  0.00000000000E+00 0.  1.
         -1    1    1    2    0  502 -0.12722250558E+02 -0.27367265792E+02 -0.28123187906E+03  0.28284658863E+03  0.00000000000E+00 0. -1.
<mgrwt>
<rscale>  1 0.30000000E+03</rscale>
<asrwt>0</asrwt>
<pdfrwt beam="1">  1       21 0.41041703E-02 0.30000000E+03</pdfrwt>
<pdfrwt beam="2">0</pdfrwt>
<totfact> 0.40264549E+04</totfact>
</mgrwt>
</event>
<event>
 6    1  0.1274196E-001  0.3000000E+03  0.7818608E-02  0.1093470E+00
         21   -1    0    0  501  502  0.00000000000E+00  0.00000000000E+00  0.31393329761E+01  0.31393329761E+01  0.00000000000E+00 0. -1.
         13   -1    0    0    0    0 -0.00000000000E+00 -0.00000000000E+00 -0.10000000000E+04  0.10000000000E+04  0.00000000000E+00 0.  1.
    9000005    2    1    2  501    0  0.27053828432E+02  0.28548819830E+02 -0.85544146771E+03  0.85635263508E+03  0.35757758938E+01 0.  0.
         13    1    3    3    0    0  0.99314551563E+01  0.92544530385E+01 -0.32777787991E+03  0.32805886250E+03  0.00000000000E+00 0.  1.
          3    1    3    3  501    0  0.17122373275E+02  0.19294366791E+02 -0.52766358780E+03  0.52829377258E+03  0.00000000000E+00 0.  1.
         -1    1    1    2    0  502 -0.27053828432E+02 -0.28548819830E+02 -0.14141919931E+03  0.14678669790E+03  0.00000000000E+00 0. -1.
<mgrwt>
<rscale>  1 0.30000000E+03</rscale>
<asrwt>0</asrwt>
<pdfrwt beam="1">  1       21 0.11415780E-01 0.30000000E+03</pdfrwt>
<pdfrwt beam="2">0</pdfrwt>
<totfact> 0.67829974E+03</totfact>
</mgrwt>
</event>
<event>
 6    1  0.1274196E-001  0.3000000E+03  0.7818608E-02  0.1093470E+00
         21   -1    0    0  501  502  0.00000000000E+00  0.00000000000E+00  0.19718194109E+01  0.19718194109E+01  0.00000000000E+00 0. -1.
         13   -1    0    0    0    0 -0.00000000000E+00 -0.00000000000E+00 -0.10000000000E+04  0.10000000000E+04  0.00000000000E+00 0.  1.
    9000005    2    1    2  501    0 -0.12028169985E+01  0.41922028958E+02 -0.66220693472E+03  0.66354189689E+03  0.33047323253E+01 0.  0.
         13    1    3    3    0    0 -0.15854557217E+01  0.32771739823E+02 -0.53580073014E+03  0.53680436196E+03  0.00000000000E+00 0.  1.
          3    1    3    3  501    0  0.38263872319E+00  0.91502891348E+01 -0.12640620458E+03  0.12673753493E+03  0.00000000000E+00 0.  1.
         -1    1    1    2    0  502  0.12028169985E+01 -0.41922028958E+02 -0.33582124586E+03  0.33842992252E+03  0.00000000000E+00 0. -1.
<mgrwt>
<rscale>  1 0.30000000E+03</rscale>
<asrwt>0</asrwt>
<pdfrwt beam="1">  1       21 0.71702675E-02 0.30000000E+03</pdfrwt>
<pdfrwt beam="2">0</pdfrwt>
<totfact> 0.15473695E+04</totfact>
</mgrwt>
</event>
<event>
 6    1  0.1274196E-001  0.3000000E+03  0.7818608E-02  0.1093470E+00
         21   -1    0    0  501  502  0.00000000000E+00  0.00000000000E+00  0.20868502721E+01  0.20868502721E+01  0.00000000000E+00 0. -1.
         13   -1    0    0    0    0 -0.00000000000E+00 -0.00000000000E+00 -0.10000000000E+04  0.10000000000E+04  0.00000000000E+00 0.  1.
    9000005    2    1    2  501    0  0.11263960735E+02 -0.35637715268E+02 -0.78636551378E+03  0.78726290878E+03  0.39041932928E+01 0.  0.
         13    1    3    3    0    0  0.18763755466E+00 -0.49183840882E+01 -0.10054661868E+03  0.10066701663E+03  0.00000000000E+00 0.  1.
          1    1    3    3  501    0  0.11076323180E+02 -0.30719331180E+02 -0.68581889510E+03  0.68659589215E+03  0.00000000000E+00 0.  1.
         -1    1    1    2    0  502 -0.11263960735E+02  0.35637715268E+02 -0.21154763595E+03  0.21482394149E+03  0.00000000000E+00 0. -1.
<mgrwt>
<rscale>  1 0.30000000E+03</rscale>
<asrwt>0</asrwt>
<pdfrwt beam="1">  1       21 0.75885624E-02 0.30000000E+03</pdfrwt>
<pdfrwt beam="2">0</pdfrwt>
<totfact> 0.14013381E+04</totfact>
</mgrwt>
</event>
<event>
 6    1  0.1274196E-001  0.3000000E+03  0.7818608E-02  0.1093470E+00
         21   -1    0    0  501  502  0.00000000000E+00  0.00000000000E+00  0.19358913446E+01  0.19358913446E+01  0.00000000000E+00 0. -1.
         13   -1    0    0    0    0 -0.00000000000E+00 -0.00000000000E+00 -0.10000000000E+04  0.10000000000E+04  0.00000000000E+00 0.  1.
    9000005    2    1    2  501    0  0.31966067448E+02 -0.40001937172E+01 -0.84003851406E+03  0.84065998005E+03  0.25818461373E+01 0.  0.
         13    1    3    3    0    0  0.12955179401E+02 -0.20859865057E+01 -0.37319292003E+03  0.37342354448E+03  0.00000000000E+00 0.  1.
          3    1    3    3  501    0  0.19010888047E+02 -0.19142072115E+01 -0.46684559403E+03  0.46723643557E+03  0.00000000000E+00 0.  1.
         -1    1    1    2    0  502 -0.31966067448E+02  0.40001937172E+01 -0.15802559459E+03  0.16127591130E+03  0.00000000000E+00 0. -1.
<mgrwt>
<rscale>  1 0.30000000E+03</rscale>
<asrwt>0</asrwt>
<pdfrwt beam="1">  1       21 0.70396197E-02 0.30000000E+03</pdfrwt>
<pdfrwt beam="2">0</pdfrwt>
<totfact> 0.15977539E+04</totfact>
</mgrwt>
</event>
<event>
 6    1  0.1274196E-001  0.3000000E+03  0.7818608E-02  0.1093470E+00
         21   -1    0    0  501  502  0.00000000000E+00  0.00000000000E+00  0.12313307809E+01  0.12313307809E+01  0.00000000000E+00 0. -1.
         13   -1    0    0    0    0 -0.00000000000E+00 -0.00000000000E+00 -0.10000000000E+04  0.10000000000E+04  0.00000000000E+00 0.  1.
    9000005    2    1    2  501    0 -0.33299378522E+02 -0.64538305454E+01 -0.62422112976E+03  0.62515107358E+03  0.33682970800E+01 0.  0.
         13    1    3    3    0    0 -0.40710778006E+01 -0.10424235836E+01 -0.99448411307E+02  0.99537163074E+02  0.00000000000E+00 0.  1.
          3    1    3    3  501    0 -0.29228300722E+02 -0.54114069618E+01 -0.52477271845E+03  0.52561391051E+03  0.00000000000E+00 0.  1.
         -1    1    1    2    0  502  0.33299378522E+02  0.64538305454E+01 -0.37454753946E+03  0.37608025720E+03  0.00000000000E+00 0. -1.
<mgrwt>
<rscale>  1 0.30000000E+03</rscale>
<asrwt>0</asrwt>
<pdfrwt beam="1">  1       21 0.44775759E-02 0.30000000E+03</pdfrwt>
<pdfrwt beam="2">0</pdfrwt>
<totfact> 0.34751475E+04</totfact>
</mgrwt>
</event>
<event>
 6    1  0.1274196E-001  0.3000000E+03  0.7818608E-02  0.1093470E+00
         21   -1    0    0  501  502  0.00000000000E+00  0.00000000000E+00  0.64491791994E+01  0.64491791994E+01  0.00000000000E+00 0. -1.
         13   -1    0    0    0    0 -0.00000000000E+00 -0.00000000000E+00 -0.10000000000E+04  0.10000000000E+04  0.00000000000E+00 0.  1.
    9000005    2    1    2  501    0  0.31606052418E+02  0.16481753092E+01 -0.95918729929E+03  0.95973183080E+03  0.65766930136E+01 0.  0.
         13    1    3    3    0    0  0.47216429800E+00  0.10876991189E+01 -0.36098953690E+02  0.36118423083E+02  0.00000000000E+00 0.  1.
          3    1    3    3  501    0  0.31133888120E+02  0.56047619021E+00 -0.92308834560E+03  0.92361340771E+03  0.00000000000E+00 0.  1.
         -3    1    1    2    0  502 -0.31606052418E+02 -0.16481753092E+01 -0.34363521510E+02  0.46717348404E+02  0.00000000000E+00 0. -1.
<mgrwt>
<rscale>  1 0.30000000E+03</rscale>
<asrwt>0</asrwt>
<pdfrwt beam="1">  1       21 0.23451610E-01 0.30000000E+03</pdfrwt>
<pdfrwt beam="2">0</pdfrwt>
<totfact> 0.17664679E+03</totfact>
</mgrwt>
</event>
<event>
 6    1  0.1274196E-001  0.3000000E+03  0.7818608E-02  0.1093470E+00
         21   -1    0    0  501  502  0.00000000000E+00  0.00000000000E+00  0.14631684996E+01  0.14631684996E+01  0.00000000000E+00 0. -1.
         13   -1    0    0    0    0 -0.00000000000E+00 -0.00000000000E+00 -0.10000000000E+04  0.10000000000E+04  0.00000000000E+00 0.  1.
    9000005    2    1    2  501    0 -0.15198006544E+02  0.25943575143E+02 -0.80812605443E+03  0.80869306574E+03  0.35645799239E+01 0.  0.
         13    1    3    3    0    0 -0.61749803670E+00  0.25681450629E+01 -0.89982070129E+02  0.90020828798E+02  0.00000000000E+00 0.  1.
          1    1    3    3  501    0 -0.14580508507E+02  0.23375430081E+02 -0.71814398430E+03  0.71867223694E+03  0.00000000000E+00 0.  1.
         -1    1    1    2    0  502  0.15198006544E+02 -0.25943575143E+02 -0.19041077707E+03  0.19277010276E+03  0.00000000000E+00 0. -1.
<mgrwt>
<rscale>  1 0.30000000E+03</rscale>
<asrwt>0</asrwt>
<pdfrwt beam="1">  1       21 0.53206239E-02 0.30000000E+03</pdfrwt>
<pdfrwt beam="2">0</pdfrwt>
<totfact> 0.25904202E+04</totfact>
</mgrwt>
</event>
<event>
 6    1  0.1274196E-001  0.3000000E+03  0.7818608E-02  0.1093470E+00
         21   -1    0    0  501  502  0.00000000000E+00  0.00000000000E+00  0.15216793738E+01  0.15216793738E+01  0.00000000000E+00 0. -1.
         13   -1    0    0    0    0 -0.00000000000E+00 -0.00000000000E+00 -0.10000000000E+04  0.10000000000E+04  0.00000000000E+00 0.  1.
    9000005    2    1    2  501    0 -0.31988681950E+02 -0.53975288482E+01 -0.77616755888E+03  0.77685640863E+03  0.41702614023E+01 0.  0.
         13    1    3    3    0    0 -0.24481061300E+02 -0.37106416194E+01 -0.63009134716E+03  0.63057766928E+03  0.00000000000E+00 0.  1.
          3    1    3    3  501    0 -0.75076206495E+01 -0.16868872288E+01 -0.14607621172E+03  0.14627873935E+03  0.00000000000E+00 0.  1.
         -3    1    1    2    0  502  0.31988681950E+02  0.53975288482E+01 -0.22231076174E+03  0.22466527074E+03  0.00000000000E+00 0. -1.
<mgrwt>
<rscale>  1 0.30000000E+03</rscale>
<asrwt>0</asrwt>
<pdfrwt beam="1">  1       21 0.55333912E-02 0.30000000E+03</pdfrwt>
<pdfrwt beam="2">0</pdfrwt>
<totfact> 0.24221400E+04</totfact>
</mgrwt>
</event>
<event>
 6    1  0.1274196E-001  0.3000000E+03  0.7818608E-02  0.1093470E+00
         21   -1    0    0  501  502  0.00000000000E+00  0.00000000000E+00  0.32187840101E+01  0.32187840101E+01  0.00000000000E+00 0. -1.
         13   -1    0    0    0    0 -0.00000000000E+00 -0.00000000000E+00 -0.10000000000E+04  0.10000000000E+04  0.00000000000E+00 0.  1.
    9000005    2    1    2  501    0 -0.30301304060E+02 -0.31362803470E+02 -0.81882055570E+03  0.81999271850E+03  0.43773847756E+01 0.  0.
         13    1    3    3    0    0 -0.25379216654E+02 -0.24913778486E+02 -0.63836006994E+03  0.63934996667E+03  0.00000000000E+00 0.  1.
          1    1    3    3  501    0 -0.49220874059E+01 -0.64490249837E+01 -0.18046048576E+03  0.18064275183E+03  0.00000000000E+00 0.  1.
         -1    1    1    2    0  502  0.30301304060E+02  0.31362803470E+02 -0.17796066029E+03  0.18322606551E+03  0.00000000000E+00 0. -1.
<mgrwt>
<rscale>  1 0.30000000E+03</rscale>
<asrwt>0</asrwt>
<pdfrwt beam="1">  1       21 0.11704694E-01 0.30000000E+03</pdfrwt>
<pdfrwt beam="2">0</pdfrwt>
<totfact> 0.64833854E+03</totfact>
</mgrwt>
</event>
<event>
 6    1  0.1274196E-001  0.3000000E+03  0.7818608E-02  0.1093470E+00
         21   -1    0    0  501  502  0.00000000000E+00  0.00000000000E+00  0.15961171268E+01  0.15961171268E+01  0.00000000000E+00 0. -1.
         13   -1    0    0    0    0 -0.00000000000E+00 -0.00000000000E+00 -0.10000000000E+04  0.10000000000E+04  0.00000000000E+00 0.  1.
    9000005    2    1    2  501    0  0.22283276717E+02 -0.23066010418E+02 -0.79704641689E+03  0.79770052040E+03  0.38137002670E+01 0.  0.
         13    1    3    3    0    0  0.16198111586E+02 -0.14200494994E+02 -0.53684998616E+03  0.53728199348E+03  0.00000000000E+00 0.  1.
          1    1    3    3  501    0  0.60851651312E+01 -0.88655154245E+01 -0.26019643073E+03  0.26041852692E+03  0.00000000000E+00 0.  1.
         -3    1    1    2    0  502 -0.22283276717E+02  0.23066010418E+02 -0.20135746598E+03  0.20389559673E+03  0.00000000000E+00 0. -1.
<mgrwt>
<rscale>  1 0.30000000E+03</rscale>
<asrwt>0</asrwt>
<pdfrwt beam="1">  1       21 0.58040745E-02 0.30000000E+03</pdfrwt>
<pdfrwt beam="2">0</pdfrwt>
<totfact> 0.22312571E+04</totfact>
</mgrwt>
</event>
<event>
 6    1  0.1274196E-001  0.3000000E+03  0.7818608E-02  0.1093470E+00
         21   -1    0    0  501  502  0.00000000000E+00  0.00000000000E+00  0.13362303199E+01  0.13362303199E+01  0.00000000000E+00 0. -1.
         13   -1    0    0    0    0 -0.00000000000E+00 -0.00000000000E+00 -0.10000000000E+04  0.10000000000E+04  0.00000000000E+00 0.  1.
    9000005    2    1    2  501    0 -0.24037795427E+02  0.27054430560E+02 -0.44306511564E+03  0.44456013332E+03  0.41542287275E+01 0.  0.
         13    1    3    3    0    0 -0.22260123437E+02  0.26099981194E+02 -0.42518551507E+03  0.42656704554E+03  0.00000000000E+00 0.  1.
          3    1    3    3  501    0 -0.17776719904E+01  0.95444936677E+00 -0.17879600570E+02  0.17993087780E+02  0.00000000000E+00 0.  1.
         -3    1    1    2    0  502  0.24037795427E+02 -0.27054430560E+02 -0.55559865404E+03  0.55677609700E+03  0.00000000000E+00 0. -1.
<mgrwt>
<rscale>  1 0.30000000E+03</rscale>
<asrwt>0</asrwt>
<pdfrwt beam="1">  1       21 0.48590296E-02 0.30000000E+03</pdfrwt>
<pdfrwt beam="2">0</pdfrwt>
<totfact> 0.30242790E+04</totfact>
</mgrwt>
</event>
<event>
 6    1  0.1274196E-001  0.3000000E+03  0.7818608E-02  0.1093470E+00
         21   -1    0    0  501  502  0.00000000000E+00  0.00000000000E+00  0.20194708543E+01  0.20194708543E+01  0.00000000000E+00 0. -1.
         13   -1    0    0    0    0 -0.00000000000E+00 -0.00000000000E+00 -0.10000000000E+04  0.10000000000E+04  0.00000000000E+00 0.  1.
    9000005    2    1    2  501    0  0.33384187597E+02  0.10911133461E+01 -0.83380350275E+03  0.83447905631E+03  0.33644777457E+01 0.  0.
         13    1    3    3    0    0  0.18484637991E+02 -0.96759405735E+00 -0.44563738659E+03  0.44602163446E+03  0.00000000000E+00 0.  1.
          3    1    3    3  501    0  0.14899549606E+02  0.20587074034E+01 -0.38816611616E+03  0.38845742184E+03  0.00000000000E+00 0.  1.
         -3    1    1    2    0  502 -0.33384187597E+02 -0.10911133461E+01 -0.16417702640E+03  0.16754041455E+03  0.00000000000E+00 0. -1.
<mgrwt>
<rscale>  1 0.30000000E+03</rscale>
<asrwt>0</asrwt>
<pdfrwt beam="1">  1       21 0.73435459E-02 0.30000000E+03</pdfrwt>
<pdfrwt beam="2">0</pdfrwt>
<totfact> 0.14841893E+04</totfact>
</mgrwt>
</event>
<event>
 6    1  0.1274196E-001  0.3000000E+03  0.7818608E-02  0.1093470E+00
         21   -1    0    0  501  502  0.00000000000E+00  0.00000000000E+00  0.13154617418E+01  0.13154617418E+01  0.00000000000E+00 0. -1.
         13   -1    0    0    0    0 -0.00000000000E+00 -0.00000000000E+00 -0.10000000000E+04  0.10000000000E+04  0.00000000000E+00 0.  1.
    9000005    2    1    2  501    0 -0.14237394435E+02 -0.33015771117E+02 -0.44432570871E+03  0.44579187409E+03  0.35092789388E+01 0.  0.
         13    1    3    3    0    0 -0.26894310263E+01 -0.84451228847E+01 -0.94834841333E+02  0.95248098514E+02  0.00000000000E+00 0.  1.
          3    1    3    3  501    0 -0.11547963409E+02 -0.24570648233E+02 -0.34949086738E+03  0.35054377557E+03  0.00000000000E+00 0.  1.
         -1    1    1    2    0  502  0.14237394435E+02  0.33015771117E+02 -0.55435882955E+03  0.55552358765E+03  0.00000000000E+00 0. -1.
<mgrwt>
<rscale>  1 0.30000000E+03</rscale>
<asrwt>0</asrwt>
<pdfrwt beam="1">  1       21 0.47835073E-02 0.30000000E+03</pdfrwt>
<pdfrwt beam="2">0</pdfrwt>
<totfact> 0.31059907E+04</totfact>
</mgrwt>
</event>
<event>
 6    1  0.1274196E-001  0.3000000E+03  0.7818608E-02  0.1093470E+00
         21   -1    0    0  501  502  0.00000000000E+00  0.00000000000E+00  0.38691271455E+01  0.38691271455E+01  0.00000000000E+00 0. -1.
         13   -1    0    0    0    0 -0.00000000000E+00 -0.00000000000E+00 -0.10000000000E+04  0.10000000000E+04  0.00000000000E+00 0.  1.
    9000005    2    1    2  501    0  0.36453490119E+02  0.66469687675E+01 -0.90112522326E+03  0.90189308785E+03  0.33815350475E+01 0.  0.
         13    1    3    3    0    0  0.12211644987E+02  0.35505759066E+01 -0.33152723717E+03  0.33177106542E+03  0.00000000000E+00 0.  1.
          3    1    3    3  501    0  0.24241845131E+02  0.30963928609E+01 -0.56959798609E+03  0.57012202243E+03  0.00000000000E+00 0.  1.
         -3    1    1    2    0  502 -0.36453490119E+02 -0.66469687675E+01 -0.95005649591E+02  0.10197603929E+03  0.00000000000E+00 0. -1.
<mgrwt>
<rscale>  1 0.30000000E+03</rscale>
<asrwt>0</asrwt>
<pdfrwt beam="1">  1       21 0.14069583E-01 0.30000000E+03</pdfrwt>
<pdfrwt beam="2">0</pdfrwt>
<totfact> 0.46342590E+03</totfact>
</mgrwt>
</event>
<event>
 6    1  0.1274196E-001  0.3000000E+03  0.7818608E-02  0.1093470E+00
         21   -1    0    0  501  502  0.00000000000E+00  0.00000000000E+00  0.24348701311E+01  0.24348701311E+01  0.00000000000E+00 0. -1.
         13   -1    0    0    0    0 -0.00000000000E+00 -0.00000000000E+00 -0.10000000000E+04  0.10000000000E+04  0.00000000000E+00 0.  1.
    9000005    2    1    2  501    0  0.37973748904E+02 -0.13459720665E+01 -0.81826479683E+03  0.81915250144E+03  0.31185943867E+01 0.  0.
         13    1    3    3    0    0  0.11898247853E+02 -0.11600837926E+01 -0.23119349746E+03  0.23150237011E+03  0.00000000000E+00 0.  1.
          1    1    3    3  501    0  0.26075501051E+02 -0.18588827393E+00 -0.58707129937E+03  0.58765013133E+03  0.00000000000E+00 0.  1.
         -1    1    1    2    0  502 -0.37973748904E+02  0.13459720665E+01 -0.17930033304E+03  0.18328236869E+03  0.00000000000E+00 0. -1.
<mgrwt>
<rscale>  1 0.30000000E+03</rscale>
<asrwt>0</asrwt>
<pdfrwt beam="1">  1       21 0.88540919E-02 0.30000000E+03</pdfrwt>
<pdfrwt beam="2">0</pdfrwt>
<totfact> 0.10682781E+04</totfact>
</mgrwt>
</event>
<event>
 6    1  0.1274196E-001  0.3000000E+03  0.7818608E-02  0.1093470E+00
         21   -1    0    0  501  502  0.00000000000E+00  0.00000000000E+00  0.16876587496E+01  0.16876587496E+01  0.00000000000E+00 0. -1.
         13   -1    0    0    0    0 -0.00000000000E+00 -0.00000000000E+00 -0.10000000000E+04  0.10000000000E+04  0.00000000000E+00 0.  1.
    9000005    2    1    2  501    0 -0.31633642915E+02 -0.10556378367E+02 -0.20781620597E+03  0.21048840169E+03  0.23806073365E+01 0.  0.
         13    1    3    3    0    0 -0.30120495764E+02 -0.10320318732E+02 -0.19521254986E+03  0.19779204450E+03  0.00000000000E+00 0.  1.
          3    1    3    3  501    0 -0.15131471514E+01 -0.23605963516E+00 -0.12603656109E+02  0.12696357185E+02  0.00000000000E+00 0.  1.
         -1    1    1    2    0  502  0.31633642915E+02  0.10556378367E+02 -0.79049613528E+03  0.79119925706E+03  0.00000000000E+00 0. -1.
<mgrwt>
<rscale>  1 0.30000000E+03</rscale>
<asrwt>0</asrwt>
<pdfrwt beam="1">  1       21 0.61369538E-02 0.30000000E+03</pdfrwt>
<pdfrwt beam="2">0</pdfrwt>
<totfact> 0.20266873E+04</totfact>
</mgrwt>
</event>
<event>
 6    1  0.1274196E-001  0.3000000E+03  0.7818608E-02  0.1093470E+00
         21   -1    0    0  501  502  0.00000000000E+00  0.00000000000E+00  0.18710877151E+01  0.18710877151E+01  0.00000000000E+00 0. -1.
         13   -1    0    0    0    0 -0.00000000000E+00 -0.00000000000E+00 -0.10000000000E+04  0.10000000000E+04  0.00000000000E+00 0.  1.
    9000005    2    1    2  501    0  0.32753308843E+02 -0.26947770118E+01 -0.82438831162E+03  0.82504960321E+03  0.32738902295E+01 0.  0.
         13    1    3    3    0    0  0.13582654405E+01  0.18452285196E+00 -0.52157445712E+02  0.52175454736E+02  0.00000000000E+00 0.  1.
          3    1    3    3  501    0  0.31395043402E+02 -0.28792998638E+01 -0.77223086591E+03  0.77287414848E+03  0.00000000000E+00 0.  1.
         -1    1    1    2    0  502 -0.32753308843E+02  0.26947770118E+01 -0.17374060066E+03  0.17682148450E+03  0.00000000000E+00 0. -1.
<mgrwt>
<rscale>  1 0.30000000E+03</rscale>
<asrwt>0</asrwt>
<pdfrwt beam="1">  1       21 0.68039697E-02 0.30000000E+03</pdfrwt>
<pdfrwt beam="2">0</pdfrwt>
<totfact> 0.16952007E+04</totfact>
</mgrwt>
</event>
<event>
 6    1  0.1274196E-001  0.3000000E+03  0.7818608E-02  0.1093470E+00
         21   -1    0    0  501  502  0.00000000000E+00  0.00000000000E+00  0.11848788005E+01  0.11848788005E+01  0.00000000000E+00 0. -1.
         13   -1    0    0    0    0 -0.00000000000E+00 -0.00000000000E+00 -0.10000000000E+04  0.10000000000E+04  0.00000000000E+00 0.  1.
    9000005    2    1    2  501    0 -0.19897661794E+02  0.24291914148E+02 -0.70373193308E+03  0.70443565479E+03  0.22235265627E+01 0.  0.
         13    1    3    3    0    0 -0.13594264491E+02  0.14925236603E+02 -0.44855476599E+03  0.44900884714E+03  0.00000000000E+00 0.  1.
          3    1    3    3  501    0 -0.63033973029E+01  0.93666775456E+01 -0.25517716709E+03  0.25542680766E+03  0.00000000000E+00 0.  1.
         -1    1    1    2    0  502  0.19897661794E+02 -0.24291914148E+02 -0.29508318812E+03  0.29674922401E+03  0.00000000000E+00 0. -1.
<mgrwt>
<rscale>  1 0.30000000E+03</rscale>
<asrwt>0</asrwt>
<pdfrwt beam="1">  1       21 0.43086593E-02 0.30000000E+03</pdfrwt>
<pdfrwt beam="2">0</pdfrwt>
<totfact> 0.37090328E+04</totfact>
</mgrwt>
</event>
<event>
 6    1  0.1274196E-001  0.3000000E+03  0.7818608E-02  0.1093470E+00
         21   -1    0    0  501  502  0.00000000000E+00  0.00000000000E+00  0.23152991924E+01  0.23152991924E+01  0.00000000000E+00 0. -1.
         13   -1    0    0    0    0 -0.00000000000E+00 -0.00000000000E+00 -0.10000000000E+04  0.10000000000E+04  0.00000000000E+00 0.  1.
    9000005    2    1    2  501    0  0.46974863464E+02  0.43753943375E+01 -0.40343426404E+03  0.40619503996E+03  0.30697248649E+01 0.  0.
         13    1    3    3    0    0  0.30843704288E+02  0.41837107121E+01 -0.27119572348E+03  0.27297611244E+03  0.00000000000E+00 0.  1.
          3    1    3    3  501    0  0.16131159176E+02  0.19168362543E+00 -0.13223854056E+03  0.13321892752E+03  0.00000000000E+00 0.  1.
         -1    1    1    2    0  502 -0.46974863464E+02 -0.43753943375E+01 -0.59425043677E+03  0.59612025924E+03  0.00000000000E+00 0. -1.
<mgrwt>
<rscale>  1 0.30000000E+03</rscale>
<asrwt>0</asrwt>
<pdfrwt beam="1">  1       21 0.84192875E-02 0.30000000E+03</pdfrwt>
<pdfrwt beam="2">0</pdfrwt>
<totfact> 0.11675992E+04</totfact>
</mgrwt>
</event>
<event>
 6    1  0.1274196E-001  0.3000000E+03  0.7818608E-02  0.1093470E+00
         21   -1    0    0  501  502  0.00000000000E+00  0.00000000000E+00  0.11064411766E+01  0.11064411766E+01  0.00000000000E+00 0. -1.
         13   -1    0    0    0    0 -0.00000000000E+00 -0.00000000000E+00 -0.10000000000E+04  0.10000000000E+04  0.00000000000E+00 0.  1.
    9000005    2    1    2  501    0  0.10509830095E+02 -0.30462263750E+02 -0.37949576739E+03  0.38087097777E+03  0.26941037338E+01 0.  0.
         13    1    3    3    0    0  0.43944296308E+01 -0.15262447798E+02 -0.19936409061E+03  0.19999573483E+03  0.00000000000E+00 0.  1.
          1    1    3    3  501    0  0.61154004643E+01 -0.15199815953E+02 -0.18013167678E+03  0.18087524294E+03  0.00000000000E+00 0.  1.
         -3    1    1    2    0  502 -0.10509830095E+02  0.30462263750E+02 -0.61939779143E+03  0.62023546341E+03  0.00000000000E+00 0. -1.
<mgrwt>
<rscale>  1 0.30000000E+03</rscale>
<asrwt>0</asrwt>
<pdfrwt beam="1">  1       21 0.40234309E-02 0.30000000E+03</pdfrwt>
<pdfrwt beam="2">0</pdfrwt>
<totfact> 0.41635719E+04</totfact>
</mgrwt>
</event>
<event>
 6    1  0.1274196E-001  0.3000000E+03  0.7818608E-02  0.1093470E+00
         21   -1    0    0  501  502  0.00000000000E+00  0.00000000000E+00  0.11888493886E+01  0.11888493886E+01  0.00000000000E+00 0. -1.
         13   -1    0    0    0    0 -0.00000000000E+00 -0.00000000000E+00 -0.10000000000E+04  0.10000000000E+04  0.00000000000E+00 0.  1.
    9000005    2    1    2  501    0 -0.19037270043E+02 -0.27749415938E+02 -0.60370217514E+03  0.60464938070E+03  0.34798803985E+01 0.  0.
         13    1    3    3    0    0 -0.14153098825E+02 -0.20823363771E+02 -0.42311967180E+03  0.42386811552E+03  0.00000000000E+00 0.  1.
          3    1    3    3  501    0 -0.48841712182E+01 -0.69260521679E+01 -0.18058250334E+03  0.18078126518E+03  0.00000000000E+00 0.  1.
         -3    1    1    2    0  502  0.19037270043E+02  0.27749415938E+02 -0.39510897547E+03  0.39653946869E+03  0.00000000000E+00 0. -1.
<mgrwt>
<rscale>  1 0.30000000E+03</rscale>
<asrwt>0</asrwt>
<pdfrwt beam="1">  1       21 0.43230978E-02 0.30000000E+03</pdfrwt>
<pdfrwt beam="2">0</pdfrwt>
<totfact> 0.36881016E+04</totfact>
</mgrwt>
</event>
<event>
 6    1  0.1274196E-001  0.3000000E+03  0.7818608E-02  0.1093470E+00
         21   -1    0    0  501  502  0.00000000000E+00  0.00000000000E+00  0.19001775112E+01  0.19001775112E+01  0.00000000000E+00 0. -1.
         13   -1    0    0    0    0 -0.00000000000E+00 -0.00000000000E+00 -0.10000000000E+04  0.10000000000E+04  0.00000000000E+00 0.  1.
    9000005    2    1    2  501    0 -0.22196515613E+02 -0.27964507846E+02 -0.78583445525E+03  0.78665314470E+03  0.35608996290E+01 0.  0.
         13    1    3    3    0    0 -0.38791742568E+01 -0.70000647863E+01 -0.16091983395E+03  0.16111871977E+03  0.00000000000E+00 0.  1.
          1    1    3    3  501    0 -0.18317341356E+02 -0.20964443059E+02 -0.62491462130E+03  0.62553442493E+03  0.00000000000E+00 0.  1.
         -3    1    1    2    0  502  0.22196515613E+02  0.27964507846E+02 -0.21226536724E+03  0.21524703281E+03  0.00000000000E+00 0. -1.
<mgrwt>
<rscale>  1 0.30000000E+03</rscale>
<asrwt>0</asrwt>
<pdfrwt beam="1">  1       21 0.69097510E-02 0.30000000E+03</pdfrwt>
<pdfrwt beam="2">0</pdfrwt>
<totfact> 0.16503632E+04</totfact>
</mgrwt>
</event>
<event>
 6    1  0.1274196E-001  0.3000000E+03  0.7818608E-02  0.1093470E+00
         21   -1    0    0  501  502  0.00000000000E+00  0.00000000000E+00  0.19487894019E+01  0.19487894019E+01  0.00000000000E+00 0. -1.
         13   -1    0    0    0    0 -0.00000000000E+00 -0.00000000000E+00 -0.10000000000E+04  0.10000000000E+04  0.00000000000E+00 0.  1.
    9000005    2    1    2  501    0  0.14961947153E+02 -0.27372078109E+02 -0.85316053130E+03  0.85373813030E+03  0.35794476645E+01 0.  0.
         13    1    3    3    0    0  0.59274645482E+01 -0.12382163622E+02 -0.41952879834E+03  0.41975333882E+03  0.00000000000E+00 0.  1.
          1    1    3    3  501    0  0.90344826043E+01 -0.14989914486E+02 -0.43363173295E+03  0.43398479148E+03  0.00000000000E+00 0.  1.
         -3    1    1    2    0  502 -0.14961947153E+02  0.27372078109E+02 -0.14489067930E+03  0.14821065910E+03  0.00000000000E+00 0. -1.
<mgrwt>
<rscale>  1 0.30000000E+03</rscale>
<asrwt>0</asrwt>
<pdfrwt beam="1">  1       21 0.70865219E-02 0.30000000E+03</pdfrwt>
<pdfrwt beam="2">0</pdfrwt>
<totfact> 0.15793819E+04</totfact>
</mgrwt>
</event>
<event>
 6    1  0.1274196E-001  0.3000000E+03  0.7818608E-02  0.1093470E+00
         21   -1    0    0  501  502  0.00000000000E+00  0.00000000000E+00  0.11376888134E+01  0.11376888134E+01  0.00000000000E+00 0. -1.
         13   -1    0    0    0    0 -0.00000000000E+00 -0.00000000000E+00 -0.10000000000E+04  0.10000000000E+04  0.00000000000E+00 0.  1.
    9000005    2    1    2  501    0  0.21023609976E+02  0.24224458004E+02 -0.65028989514E+03  0.65109262633E+03  0.39804264939E+01 0.  0.
         13    1    3    3    0    0  0.86835288288E+01  0.81015870916E+01 -0.27015685347E+03  0.27041775988E+03  0.00000000000E+00 0.  1.
          3    1    3    3  501    0  0.12340081148E+02  0.16122870912E+02 -0.38013304168E+03  0.38067486645E+03  0.00000000000E+00 0.  1.
         -3    1    1    2    0  502 -0.21023609976E+02 -0.24224458004E+02 -0.34857241604E+03  0.35004506248E+03  0.00000000000E+00 0. -1.
<mgrwt>
<rscale>  1 0.30000000E+03</rscale>
<asrwt>0</asrwt>
<pdfrwt beam="1">  1       21 0.41370590E-02 0.30000000E+03</pdfrwt>
<pdfrwt beam="2">0</pdfrwt>
<totfact> 0.39726115E+04</totfact>
</mgrwt>
</event>
<event>
 6    1  0.1274196E-001  0.3000000E+03  0.7818608E-02  0.1093470E+00
         21   -1    0    0  501  502  0.00000000000E+00  0.00000000000E+00  0.32379146392E+01  0.32379146392E+01  0.00000000000E+00 0. -1.
         13   -1    0    0    0    0 -0.00000000000E+00 -0.00000000000E+00 -0.10000000000E+04  0.10000000000E+04  0.00000000000E+00 0.  1.
    9000005    2    1    2  501    0  0.29901181193E+02 -0.20740824335E+02 -0.88386905561E+03  0.88462468352E+03  0.34728651782E+01 0.  0.
         13    1    3    3    0    0  0.12245530324E+02 -0.65294068283E+01 -0.34743789085E+03  0.34771493233E+03  0.00000000000E+00 0.  1.
          1    1    3    3  501    0  0.17655650869E+02 -0.14211417507E+02 -0.53643116476E+03  0.53690975119E+03  0.00000000000E+00 0.  1.
         -3    1    1    2    0  502 -0.29901181193E+02  0.20740824335E+02 -0.11289302975E+03  0.11861323112E+03  0.00000000000E+00 0. -1.
<mgrwt>
<rscale>  1 0.30000000E+03</rscale>
<asrwt>0</asrwt>
<pdfrwt beam="1">  1       21 0.11774260E-01 0.30000000E+03</pdfrwt>
<pdfrwt beam="2">0</pdfrwt>
<totfact> 0.64142002E+03</totfact>
</mgrwt>
</event>
<event>
 6    1  0.1274196E-001  0.3000000E+03  0.7818608E-02  0.1093470E+00
         21   -1    0    0  501  502  0.00000000000E+00  0.00000000000E+00  0.13759795373E+01  0.13759795373E+01  0.00000000000E+00 0. -1.
         13   -1    0    0    0    0 -0.00000000000E+00 -0.00000000000E+00 -0.10000000000E+04  0.10000000000E+04  0.00000000000E+00 0.  1.
    9000005    2    1    2  501    0 -0.30275721836E+02 -0.12042373149E+02 -0.73717481172E+03  0.73790429826E+03  0.37963495774E+01 0.  0.
         13    1    3    3    0    0 -0.13431731597E+01  0.23742284280E+00 -0.27466675001E+02  0.27500522165E+02  0.00000000000E+00 0.  1.
          1    1    3    3  501    0 -0.28932548676E+02 -0.12279795992E+02 -0.70970813672E+03  0.71040377609E+03  0.00000000000E+00 0.  1.
         -1    1    1    2    0  502  0.30275721836E+02  0.12042373149E+02 -0.26144920874E+03  0.26347168128E+03  0.00000000000E+00 0. -1.
<mgrwt>
<rscale>  1 0.30000000E+03</rscale>
<asrwt>0</asrwt>
<pdfrwt beam="1">  1       21 0.50035725E-02 0.30000000E+03</pdfrwt>
<pdfrwt beam="2">0</pdfrwt>
<totfact> 0.28769604E+04</totfact>
</mgrwt>
</event>
<event>
 6    1  0.1274196E-001  0.3000000E+03  0.7818608E-02  0.1093470E+00
         21   -1    0    0  501  502  0.00000000000E+00  0.00000000000E+00  0.31910901176E+01  0.31910901176E+01  0.00000000000E+00 0. -1.
         13   -1    0    0    0    0 -0.00000000000E+00 -0.00000000000E+00 -0.10000000000E+04  0.10000000000E+04  0.00000000000E+00 0.  1.
    9000005    2    1    2  501    0 -0.15978897229E+02 -0.26670026202E+02 -0.91712705954E+03  0.91765856573E+03  0.29299251359E+01 0.  0.
         13    1    3    3    0    0 -0.16191159726E+01 -0.19759702125E+01 -0.56842284390E+02  0.56899659836E+02  0.00000000000E+00 0.  1.
          1    1    3    3  501    0 -0.14359781257E+02 -0.24694055990E+02 -0.86028477515E+03  0.86075890589E+03  0.00000000000E+00 0.  1.
         -3    1    1    2    0  502  0.15978897229E+02  0.26670026202E+02 -0.79681850342E+02  0.85532524388E+02  0.00000000000E+00 0. -1.
<mgrwt>
<rscale>  1 0.30000000E+03</rscale>
<asrwt>0</asrwt>
<pdfrwt beam="1">  1       21 0.11603989E-01 0.30000000E+03</pdfrwt>
<pdfrwt beam="2">0</pdfrwt>
<totfact> 0.65855310E+03</totfact>
</mgrwt>
</event>
<event>
 6    1  0.1274196E-001  0.3000000E+03  0.7818608E-02  0.1093470E+00
         21   -1    0    0  501  502  0.00000000000E+00  0.00000000000E+00  0.20226560983E+01  0.20226560983E+01  0.00000000000E+00 0. -1.
         13   -1    0    0    0    0 -0.00000000000E+00 -0.00000000000E+00 -0.10000000000E+04  0.10000000000E+04  0.00000000000E+00 0.  1.
    9000005    2    1    2  501    0 -0.41408539836E+02 -0.15854274353E+02 -0.57944625783E+03  0.58114940297E+03  0.32615453321E+01 0.  0.
         13    1    3    3    0    0 -0.17926800368E+02 -0.52720910595E+01 -0.23558495259E+03  0.23632485058E+03  0.00000000000E+00 0.  1.
          1    1    3    3  501    0 -0.23481739468E+02 -0.10582183293E+02 -0.34386130524E+03  0.34482455239E+03  0.00000000000E+00 0.  1.
         -1    1    1    2    0  502  0.41408539836E+02  0.15854274353E+02 -0.41853108607E+03  0.42087325312E+03  0.00000000000E+00 0. -1.
<mgrwt>
<rscale>  1 0.30000000E+03</rscale>
<asrwt>0</asrwt>
<pdfrwt beam="1">  1       21 0.73551286E-02 0.30000000E+03</pdfrwt>
<pdfrwt beam="2">0</pdfrwt>
<totfact> 0.14801064E+04</totfact>
</mgrwt>
</event>
<event>
 6    1  0.1274196E-001  0.3000000E+03  0.7818608E-02  0.1093470E+00
         21   -1    0    0  501  502  0.00000000000E+00  0.00000000000E+00  0.11666432030E+01  0.11666432030E+01  0.00000000000E+00 0. -1.
         13   -1    0    0    0    0 -0.00000000000E+00 -0.00000000000E+00 -0.10000000000E+04  0.10000000000E+04  0.00000000000E+00 0.  1.
    9000005    2    1    2  501    0 -0.30928640473E+02  0.84675135174E+01 -0.66934197768E+03  0.67011853719E+03  0.34483627297E+01 0.  0.
         13    1    3    3    0    0 -0.74626801379E+01  0.35131453843E+01 -0.18183106736E+03  0.18201805088E+03  0.00000000000E+00 0.  1.
          1    1    3    3  501    0 -0.23465960335E+02  0.49543681331E+01 -0.48751091032E+03  0.48810048631E+03  0.00000000000E+00 0.  1.
         -1    1    1    2    0  502  0.30928640473E+02 -0.84675135174E+01 -0.32949137912E+03  0.33104810602E+03  0.00000000000E+00 0. -1.
<mgrwt>
<rscale>  1 0.30000000E+03</rscale>
<asrwt>0</asrwt>
<pdfrwt beam="1">  1       21 0.42423479E-02 0.30000000E+03</pdfrwt>
<pdfrwt beam="2">0</pdfrwt>
<totfact> 0.38075718E+04</totfact>
</mgrwt>
</event>
<event>
 6    1  0.1274196E-001  0.3000000E+03  0.7818608E-02  0.1093470E+00
         21   -1    0    0  501  502  0.00000000000E+00  0.00000000000E+00  0.10903584509E+01  0.10903584509E+01  0.00000000000E+00 0. -1.
         13   -1    0    0    0    0 -0.00000000000E+00 -0.00000000000E+00 -0.10000000000E+04  0.10000000000E+04  0.00000000000E+00 0.  1.
    9000005    2    1    2  501    0 -0.19625190842E+01  0.31323276661E+02 -0.34883016951E+03  0.35025372832E+03  0.31918499159E+01 0.  0.
         13    1    3    3    0    0 -0.48568922360E+00  0.53881013623E+00 -0.75565031016E+01  0.75912416316E+01  0.00000000000E+00 0.  1.
          1    1    3    3  501    0 -0.14768298606E+01  0.30784466525E+02 -0.34127366640E+03  0.34266248669E+03  0.00000000000E+00 0.  1.
         -3    1    1    2    0  502  0.19625190842E+01 -0.31323276661E+02 -0.65007947204E+03  0.65083663013E+03  0.00000000000E+00 0. -1.
<mgrwt>
<rscale>  1 0.30000000E+03</rscale>
<asrwt>0</asrwt>
<pdfrwt beam="1">  1       21 0.39649482E-02 0.30000000E+03</pdfrwt>
<pdfrwt beam="2">0</pdfrwt>
<totfact> 0.42675057E+04</totfact>
</mgrwt>
</event>
<event>
 6    1  0.1274196E-001  0.3000000E+03  0.7818608E-02  0.1093470E+00
         21   -1    0    0  501  502  0.00000000000E+00  0.00000000000E+00  0.12422003638E+01  0.12422003638E+01  0.00000000000E+00 0. -1.
         13   -1    0    0    0    0 -0.00000000000E+00 -0.00000000000E+00 -0.10000000000E+04  0.10000000000E+04  0.00000000000E+00 0.  1.
    9000005    2    1    2  501    0 -0.30852635249E+02  0.54950239391E+01 -0.72425717312E+03  0.72495851582E+03  0.58580241969E+01 0.  0.
         13    1    3    3    0    0 -0.26497815753E+02  0.51516290032E+01 -0.66082409822E+03  0.66137520539E+03  0.00000000000E+00 0.  1.
          3    1    3    3  501    0 -0.43548194962E+01  0.34339493595E+00 -0.63433074902E+02  0.63583310424E+02  0.00000000000E+00 0.  1.
         -3    1    1    2    0  502  0.30852635249E+02 -0.54950239391E+01 -0.27450062651E+03  0.27628368455E+03  0.00000000000E+00 0. -1.
<mgrwt>
<rscale>  1 0.30000000E+03</rscale>
<asrwt>0</asrwt>
<pdfrwt beam="1">  1       21 0.45171018E-02 0.30000000E+03</pdfrwt>
<pdfrwt beam="2">0</pdfrwt>
<totfact> 0.34237071E+04</totfact>
</mgrwt>
</event>
<event>
 6    1  0.1274196E-001  0.3000000E+03  0.7818608E-02  0.1093470E+00
         21   -1    0    0  501  502  0.00000000000E+00  0.00000000000E+00  0.25628652823E+01  0.25628652823E+01  0.00000000000E+00 0. -1.
         13   -1    0    0    0    0 -0.00000000000E+00 -0.00000000000E+00 -0.10000000000E+04  0.10000000000E+04  0.00000000000E+00 0.  1.
    9000005    2    1    2  501    0 -0.10374190854E+02  0.33695955340E+02 -0.85824260556E+03  0.85897262122E+03  0.32485022053E+01 0.  0.
         13    1    3    3    0    0 -0.28986033598E+01  0.10616465183E+02 -0.30462906695E+03  0.30482778690E+03  0.00000000000E+00 0.  1.
          3    1    3    3  501    0 -0.74755874938E+01  0.23079490157E+02 -0.55361353861E+03  0.55414483432E+03  0.00000000000E+00 0.  1.
         -3    1    1    2    0  502  0.10374190854E+02 -0.33695955340E+02 -0.13919452916E+03  0.14359024406E+03  0.00000000000E+00 0. -1.
<mgrwt>
<rscale>  1 0.30000000E+03</rscale>
<asrwt>0</asrwt>
<pdfrwt beam="1">  1       21 0.93195298E-02 0.30000000E+03</pdfrwt>
<pdfrwt beam="2">0</pdfrwt>
<totfact> 0.97550485E+03</totfact>
</mgrwt>
</event>
<event>
 6    1  0.1274196E-001  0.3000000E+03  0.7818608E-02  0.1093470E+00
         21   -1    0    0  501  502  0.00000000000E+00  0.00000000000E+00  0.21960374581E+01  0.21960374581E+01  0.00000000000E+00 0. -1.
         13   -1    0    0    0    0 -0.00000000000E+00 -0.00000000000E+00 -0.10000000000E+04  0.10000000000E+04  0.00000000000E+00 0.  1.
    9000005    2    1    2  501    0  0.32833824512E+02 -0.16727322124E+02 -0.80813413640E+03  0.80897982104E+03  0.31153010389E+01 0.  0.
         13    1    3    3    0    0  0.10384083420E+02 -0.42180320122E+01 -0.26939261271E+03  0.26962566785E+03  0.00000000000E+00 0.  1.
          3    1    3    3  501    0  0.22449741092E+02 -0.12509290112E+02 -0.53874152369E+03  0.53935415319E+03  0.00000000000E+00 0.  1.
         -1    1    1    2    0  502 -0.32833824512E+02  0.16727322124E+02 -0.18966982614E+03  0.19321621642E+03  0.00000000000E+00 0. -1.
<mgrwt>
<rscale>  1 0.30000000E+03</rscale>
<asrwt>0</asrwt>
<pdfrwt beam="1">  1       21 0.79856076E-02 0.30000000E+03</pdfrwt>
<pdfrwt beam="2">0</pdfrwt>
<totfact> 0.12814332E+04</totfact>
</mgrwt>
</event>
<event>
 6    1  0.1274196E-001  0.3000000E+03  0.7818608E-02  0.1093470E+00
         21   -1    0    0  501  502  0.00000000000E+00  0.00000000000E+00  0.17121954356E+01  0.17121954356E+01  0.00000000000E+00 0. -1.
         13   -1    0    0    0    0 -0.00000000000E+00 -0.00000000000E+00 -0.10000000000E+04  0.10000000000E+04  0.00000000000E+00 0.  1.
    9000005    2    1    2  501    0  0.91999161818E+01 -0.29939997896E+02 -0.82492398721E+03  0.82554166697E+03  0.61981690228E+01 0.  0.
         13    1    3    3    0    0 -0.43277581768E-01  0.29715903454E+00 -0.59816539009E+01  0.59891869090E+01  0.00000000000E+00 0.  1.
          3    1    3    3  501    0  0.92431937635E+01 -0.30237156931E+02 -0.81894233330E+03  0.81955248006E+03  0.00000000000E+00 0.  1.
         -1    1    1    2    0  502 -0.91999161818E+01  0.29939997896E+02 -0.17336381736E+03  0.17617052847E+03  0.00000000000E+00 0. -1.
<mgrwt>
<rscale>  1 0.30000000E+03</rscale>
<asrwt>0</asrwt>
<pdfrwt beam="1">  1       21 0.62261783E-02 0.30000000E+03</pdfrwt>
<pdfrwt beam="2">0</pdfrwt>
<totfact> 0.19767951E+04</totfact>
</mgrwt>
</event>
<event>
 6    1  0.1274196E-001  0.3000000E+03  0.7818608E-02  0.1093470E+00
         21   -1    0    0  501  502  0.00000000000E+00  0.00000000000E+00  0.35440167743E+01  0.35440167743E+01  0.00000000000E+00 0. -1.
         13   -1    0    0    0    0 -0.00000000000E+00 -0.00000000000E+00 -0.10000000000E+04  0.10000000000E+04  0.00000000000E+00 0.  1.
    9000005    2    1    2  501    0  0.15257280429E+02 -0.39718657641E+02 -0.84879954046E+03  0.84987950733E+03  0.49153568154E+01 0.  0.
         13    1    3    3    0    0  0.73383274497E+01 -0.13078413688E+02 -0.27969159899E+03  0.28009335318E+03  0.00000000000E+00 0.  1.
          1    1    3    3  501    0  0.79189529792E+01 -0.26640243953E+02 -0.56910794147E+03  0.56978615415E+03  0.00000000000E+00 0.  1.
         -1    1    1    2    0  502 -0.15257280429E+02  0.39718657641E+02 -0.14765644277E+03  0.15366450944E+03  0.00000000000E+00 0. -1.
<mgrwt>
<rscale>  1 0.30000000E+03</rscale>
<asrwt>0</asrwt>
<pdfrwt beam="1">  1       21 0.12887361E-01 0.30000000E+03</pdfrwt>
<pdfrwt beam="2">0</pdfrwt>
<totfact> 0.54423016E+03</totfact>
</mgrwt>
</event>
<event>
 6    1  0.1274196E-001  0.3000000E+03  0.7818608E-02  0.1093470E+00
         21   -1    0    0  501  502  0.00000000000E+00  0.00000000000E+00  0.14249159435E+01  0.14249159435E+01  0.00000000000E+00 0. -1.
         13   -1    0    0    0    0 -0.00000000000E+00 -0.00000000000E+00 -0.10000000000E+04  0.10000000000E+04  0.00000000000E+00 0.  1.
    9000005    2    1    2  501    0 -0.19113155900E+01 -0.35098170989E+02 -0.68012644587E+03  0.68104222307E+03  0.33154923678E+01 0.  0.
         13    1    3    3    0    0  0.31755427554E+00 -0.16201728552E+02 -0.33488553347E+03  0.33527737379E+03  0.00000000000E+00 0.  1.
          3    1    3    3  501    0 -0.22288698655E+01 -0.18896442437E+02 -0.34524091240E+03  0.34576484927E+03  0.00000000000E+00 0.  1.
         -3    1    1    2    0  502  0.19113155900E+01  0.35098170989E+02 -0.31844863818E+03  0.32038269288E+03  0.00000000000E+00 0. -1.
<mgrwt>
<rscale>  1 0.30000000E+03</rscale>
<asrwt>0</asrwt>
<pdfrwt beam="1">  1       21 0.51815234E-02 0.30000000E+03</pdfrwt>
<pdfrwt beam="2">0</pdfrwt>
<totfact> 0.27104182E+04</totfact>
</mgrwt>
</event>
<event>
 6    1  0.1274196E-001  0.3000000E+03  0.7818608E-02  0.1093470E+00
         21   -1    0    0  501  502  0.00000000000E+00  0.00000000000E+00  0.15376944124E+01  0.15376944124E+01  0.00000000000E+00 0. -1.
         13   -1    0    0    0    0 -0.00000000000E+00 -0.00000000000E+00 -0.10000000000E+04  0.10000000000E+04  0.00000000000E+00 0.  1.
    9000005    2    1    2  501    0  0.32503060964E+02  0.14018416115E+02 -0.71288235630E+03  0.71377238657E+03  0.40988954797E+01 0.  0.
         13    1    3    3    0    0  0.13577624529E+02  0.43913354793E+01 -0.31695747580E+03  0.31727854825E+03  0.00000000000E+00 0.  1.
          1    1    3    3  501    0  0.18925436435E+02  0.96270806356E+01 -0.39592488050E+03  0.39649383832E+03  0.00000000000E+00 0.  1.
         -1    1    1    2    0  502 -0.32503060964E+02 -0.14018416115E+02 -0.28557994929E+03  0.28776530785E+03  0.00000000000E+00 0. -1.
<mgrwt>
<rscale>  1 0.30000000E+03</rscale>
<asrwt>0</asrwt>
<pdfrwt beam="1">  1       21 0.55916278E-02 0.30000000E+03</pdfrwt>
<pdfrwt beam="2">0</pdfrwt>
<totfact> 0.23790094E+04</totfact>
</mgrwt>
</event>
<event>
 6    1  0.1274196E-001  0.3000000E+03  0.7818608E-02  0.1093470E+00
         21   -1    0    0  501  502  0.00000000000E+00  0.00000000000E+00  0.13525308427E+01  0.13525308427E+01  0.00000000000E+00 0. -1.
         13   -1    0    0    0    0 -0.00000000000E+00 -0.00000000000E+00 -0.10000000000E+04  0.10000000000E+04  0.00000000000E+00 0.  1.
    9000005    2    1    2  501    0 -0.30529642852E+02  0.55173359248E+01 -0.76744108649E+03  0.76807396030E+03  0.30474857712E+01 0.  0.
         13    1    3    3    0    0 -0.26799660482E+02  0.38055015344E+01 -0.66434406876E+03  0.66489528900E+03  0.00000000000E+00 0.  1.
          1    1    3    3  501    0 -0.37299823695E+01  0.17118343904E+01 -0.10309701773E+03  0.10317867130E+03  0.00000000000E+00 0.  1.
         -1    1    1    2    0  502  0.30529642852E+02 -0.55173359248E+01 -0.23120638267E+03  0.23327857054E+03  0.00000000000E+00 0. -1.
<mgrwt>
<rscale>  1 0.30000000E+03</rscale>
<asrwt>0</asrwt>
<pdfrwt beam="1">  1       21 0.49183043E-02 0.30000000E+03</pdfrwt>
<pdfrwt beam="2">0</pdfrwt>
<totfact> 0.29624735E+04</totfact>
</mgrwt>
</event>
<event>
 6    1  0.1274196E-001  0.3000000E+03  0.7818608E-02  0.1093470E+00
         21   -1    0    0  501  502  0.00000000000E+00  0.00000000000E+00  0.15327259284E+01  0.15327259284E+01  0.00000000000E+00 0. -1.
         13   -1    0    0    0    0 -0.00000000000E+00 -0.00000000000E+00 -0.10000000000E+04  0.10000000000E+04  0.00000000000E+00 0.  1.
    9000005    2    1    2  501    0  0.29673768295E+02  0.20603927930E+02 -0.69132062924E+03  0.69226889713E+03  0.26380203906E+01 0.  0.
         13    1    3    3    0    0  0.18974716099E+01  0.85240350139E+00 -0.31532135752E+02  0.31600673653E+02  0.00000000000E+00 0.  1.
          1    1    3    3  501    0  0.27776296685E+02  0.19751524429E+02 -0.65978849348E+03  0.66066822347E+03  0.00000000000E+00 0.  1.
         -3    1    1    2    0  502 -0.29673768295E+02 -0.20603927930E+02 -0.30714664483E+03  0.30926382880E+03  0.00000000000E+00 0. -1.
<mgrwt>
<rscale>  1 0.30000000E+03</rscale>
<asrwt>0</asrwt>
<pdfrwt beam="1">  1       21 0.55735606E-02 0.30000000E+03</pdfrwt>
<pdfrwt beam="2">0</pdfrwt>
<totfact> 0.23922630E+04</totfact>
</mgrwt>
</event>
<event>
 6    1  0.1274196E-001  0.3000000E+03  0.7818608E-02  0.1093470E+00
         21   -1    0    0  501  502  0.00000000000E+00  0.00000000000E+00  0.14906943765E+01  0.14906943765E+01  0.00000000000E+00 0. -1.
         13   -1    0    0    0    0 -0.00000000000E+00 -0.00000000000E+00 -0.10000000000E+04  0.10000000000E+04  0.00000000000E+00 0.  1.
    9000005    2    1    2  501    0  0.73529530570E+01  0.34734473568E+02 -0.30664957126E+03  0.30872057261E+03  0.37259668105E+01 0.  0.
         13    1    3    3    0    0  0.18948594176E+01  0.17933706242E+02 -0.15575393900E+03  0.15679444450E+03  0.00000000000E+00 0.  1.
          3    1    3    3  501    0  0.54580936395E+01  0.16800767326E+02 -0.15089563226E+03  0.15192612811E+03  0.00000000000E+00 0.  1.
         -3    1    1    2    0  502 -0.73529530570E+01 -0.34734473568E+02 -0.69185973437E+03  0.69277012176E+03  0.00000000000E+00 0. -1.
<mgrwt>
<rscale>  1 0.30000000E+03</rscale>
<asrwt>0</asrwt>
<pdfrwt beam="1">  1       21 0.54207183E-02 0.30000000E+03</pdfrwt>
<pdfrwt beam="2">0</pdfrwt>
<totfact> 0.25090794E+04</totfact>
</mgrwt>
</event>
<event>
 6    1  0.1274196E-001  0.3000000E+03  0.7818608E-02  0.1093470E+00
         21   -1    0    0  501  502  0.00000000000E+00  0.00000000000E+00  0.11247774687E+01  0.11247774687E+01  0.00000000000E+00 0. -1.
         13   -1    0    0    0    0 -0.00000000000E+00 -0.00000000000E+00 -0.10000000000E+04  0.10000000000E+04  0.00000000000E+00 0.  1.
    9000005    2    1    2  501    0 -0.10408480680E+02 -0.28321003520E+02 -0.71647402771E+03  0.71711623790E+03  0.32016509703E+01 0.  0.
         13    1    3    3    0    0 -0.90602137627E+01 -0.20817189105E+02 -0.54600946815E+03  0.54648127337E+03  0.00000000000E+00 0.  1.
          1    1    3    3  501    0 -0.13482669170E+01 -0.75038144145E+01 -0.17046455956E+03  0.17063496453E+03  0.00000000000E+00 0.  1.
         -3    1    1    2    0  502  0.10408480680E+02  0.28321003520E+02 -0.28240119482E+03  0.28400853957E+03  0.00000000000E+00 0. -1.
<mgrwt>
<rscale>  1 0.30000000E+03</rscale>
<asrwt>0</asrwt>
<pdfrwt beam="1">  1       21 0.40901085E-02 0.30000000E+03</pdfrwt>
<pdfrwt beam="2">0</pdfrwt>
<totfact> 0.40498242E+04</totfact>
</mgrwt>
</event>
<event>
 6    1  0.1274196E-001  0.3000000E+03  0.7818608E-02  0.1093470E+00
         21   -1    0    0  501  502  0.00000000000E+00  0.00000000000E+00  0.17096535546E+01  0.17096535546E+01  0.00000000000E+00 0. -1.
         13   -1    0    0    0    0 -0.00000000000E+00 -0.00000000000E+00 -0.10000000000E+04  0.10000000000E+04  0.00000000000E+00 0.  1.
    9000005    2    1    2  501    0  0.34407261764E+02 -0.89506882925E+01 -0.75371752832E+03  0.75456629870E+03  0.40264319265E+01 0.  0.
         13    1    3    3    0    0  0.33692613298E+02 -0.93435237886E+01 -0.73642411727E+03  0.73725367014E+03  0.00000000000E+00 0.  1.
          3    1    3    3  501    0  0.71464846570E+00  0.39283549608E+00 -0.17293411052E+02  0.17312628569E+02  0.00000000000E+00 0.  1.
         -1    1    1    2    0  502 -0.34407261764E+02  0.89506882925E+01 -0.24457281812E+03  0.24714335485E+03  0.00000000000E+00 0. -1.
<mgrwt>
<rscale>  1 0.30000000E+03</rscale>
<asrwt>0</asrwt>
<pdfrwt beam="1">  1       21 0.62169351E-02 0.30000000E+03</pdfrwt>
<pdfrwt beam="2">0</pdfrwt>
<totfact> 0.19818747E+04</totfact>
</mgrwt>
</event>
<event>
 6    1  0.1274196E-001  0.3000000E+03  0.7818608E-02  0.1093470E+00
         21   -1    0    0  501  502  0.00000000000E+00  0.00000000000E+00  0.17941745526E+01  0.17941745526E+01  0.00000000000E+00 0. -1.
         13   -1    0    0    0    0 -0.00000000000E+00 -0.00000000000E+00 -0.10000000000E+04  0.10000000000E+04  0.00000000000E+00 0.  1.
    9000005    2    1    2  501    0  0.85558174863E+01  0.29824865476E+02 -0.83966139976E+03  0.84024214105E+03  0.35867435536E+01 0.  0.
         13    1    3    3    0    0  0.18405941095E+01  0.63510952124E+01 -0.14248161298E+03  0.14263496849E+03  0.00000000000E+00 0.  1.
          1    1    3    3  501    0  0.67152233768E+01  0.23473770263E+02 -0.69717978678E+03  0.69760717256E+03  0.00000000000E+00 0.  1.
         -1    1    1    2    0  502 -0.85558174863E+01 -0.29824865476E+02 -0.15854442569E+03  0.16155203351E+03  0.00000000000E+00 0. -1.
<mgrwt>
<rscale>  1 0.30000000E+03</rscale>
<asrwt>0</asrwt>
<pdfrwt beam="1">  1       21 0.65242849E-02 0.30000000E+03</pdfrwt>
<pdfrwt beam="2">0</pdfrwt>
<totfact> 0.18231934E+04</totfact>
</mgrwt>
</event>
<event>
 6    1  0.1274196E-001  0.3000000E+03  0.7818608E-02  0.1093470E+00
         21   -1    0    0  501  502  0.00000000000E+00  0.00000000000E+00  0.12071304780E+01  0.12071304780E+01  0.00000000000E+00 0. -1.
         13   -1    0    0    0    0 -0.00000000000E+00 -0.00000000000E+00 -0.10000000000E+04  0.10000000000E+04  0.00000000000E+00 0.  1.
    9000005    2    1    2  501    0 -0.15652107247E+01 -0.31864975453E+02 -0.69404108732E+03  0.69478997152E+03  0.47166830146E+01 0.  0.
         13    1    3    3    0    0 -0.13071167894E-01 -0.10941050336E+02 -0.28702389871E+03  0.28723235400E+03  0.00000000000E+00 0.  1.
          1    1    3    3  501    0 -0.15521395568E+01 -0.20923925117E+02 -0.40701718861E+03  0.40755761752E+03  0.00000000000E+00 0.  1.
         -3    1    1    2    0  502  0.15652107247E+01  0.31864975453E+02 -0.30475178220E+03  0.30641715895E+03  0.00000000000E+00 0. -1.
<mgrwt>
<rscale>  1 0.30000000E+03</rscale>
<asrwt>0</asrwt>
<pdfrwt beam="1">  1       21 0.43895746E-02 0.30000000E+03</pdfrwt>
<pdfrwt beam="2">0</pdfrwt>
<totfact> 0.35940527E+04</totfact>
</mgrwt>
</event>
<event>
 6    1  0.1274196E-001  0.3000000E+03  0.7818608E-02  0.1093470E+00
         21   -1    0    0  501  502  0.00000000000E+00  0.00000000000E+00  0.11188962905E+01  0.11188962905E+01  0.00000000000E+00 0. -1.
         13   -1    0    0    0    0 -0.00000000000E+00 -0.00000000000E+00 -0.10000000000E+04  0.10000000000E+04  0.00000000000E+00 0.  1.
    9000005    2    1    2  501    0 -0.25828645417E+02  0.17074865431E+02 -0.68337168546E+03  0.68409387684E+03  0.53760476093E+01 0.  0.
         13    1    3    3    0    0 -0.23780892317E+02  0.16901326684E+02 -0.61547805163E+03  0.61616914700E+03  0.00000000000E+00 0.  1.
          3    1    3    3  501    0 -0.20477530992E+01  0.17353874691E+00 -0.67893633832E+02  0.67924729837E+02  0.00000000000E+00 0.  1.
         -1    1    1    2    0  502  0.25828645417E+02 -0.17074865431E+02 -0.31550941825E+03  0.31702501945E+03  0.00000000000E+00 0. -1.
<mgrwt>
<rscale>  1 0.30000000E+03</rscale>
<asrwt>0</asrwt>
<pdfrwt beam="1">  1       21 0.40687224E-02 0.30000000E+03</pdfrwt>
<pdfrwt beam="2">0</pdfrwt>
<totfact> 0.40857736E+04</totfact>
</mgrwt>
</event>
<event>
 6    1  0.1274196E-001  0.3000000E+03  0.7818608E-02  0.1093470E+00
         21   -1    0    0  501  502  0.00000000000E+00  0.00000000000E+00  0.15523217313E+01  0.15523217313E+01  0.00000000000E+00 0. -1.
         13   -1    0    0    0    0 -0.00000000000E+00 -0.00000000000E+00 -0.10000000000E+04  0.10000000000E+04  0.00000000000E+00 0.  1.
    9000005    2    1    2  501    0 -0.28225607040E+02 -0.20064648523E+02 -0.73721884268E+03  0.73803803453E+03  0.30402970099E+01 0.  0.
         13    1    3    3    0    0 -0.54865294376E+01 -0.29488093095E+01 -0.11485693577E+03  0.11502570659E+03  0.00000000000E+00 0.  1.
          3    1    3    3  501    0 -0.22739077602E+02 -0.17115839213E+02 -0.62236190691E+03  0.62301232795E+03  0.00000000000E+00 0.  1.
         -3    1    1    2    0  502  0.28225607040E+02  0.20064648523E+02 -0.26122883559E+03  0.26351428720E+03  0.00000000000E+00 0. -1.
<mgrwt>
<rscale>  1 0.30000000E+03</rscale>
<asrwt>0</asrwt>
<pdfrwt beam="1">  1       21 0.56448182E-02 0.30000000E+03</pdfrwt>
<pdfrwt beam="2">0</pdfrwt>
<totfact> 0.23406387E+04</totfact>
</mgrwt>
</event>
<event>
 6    1  0.1274196E-001  0.3000000E+03  0.7818608E-02  0.1093470E+00
         21   -1    0    0  501  502  0.00000000000E+00  0.00000000000E+00  0.10284220605E+01  0.10284220605E+01  0.00000000000E+00 0. -1.
         13   -1    0    0    0    0 -0.00000000000E+00 -0.00000000000E+00 -0.10000000000E+04  0.10000000000E+04  0.00000000000E+00 0.  1.
    9000005    2    1    2  501    0  0.13268229827E+02 -0.27656613141E+02 -0.64223413616E+03  0.64297460413E+03  0.32744042375E+01 0.  0.
         13    1    3    3    0    0  0.78414411425E+01 -0.17337129938E+02 -0.36551277653E+03  0.36600772407E+03  0.00000000000E+00 0.  1.
          1    1    3    3  501    0  0.54267886844E+01 -0.10319483203E+02 -0.27672135963E+03  0.27696688005E+03  0.00000000000E+00 0.  1.
         -3    1    1    2    0  502 -0.13268229827E+02  0.27656613141E+02 -0.35673744178E+03  0.35805381793E+03  0.00000000000E+00 0. -1.
<mgrwt>
<rscale>  1 0.30000000E+03</rscale>
<asrwt>0</asrwt>
<pdfrwt beam="1">  1       21 0.37397245E-02 0.30000000E+03</pdfrwt>
<pdfrwt beam="2">0</pdfrwt>
<totfact> 0.47083715E+04</totfact>
</mgrwt>
</event>
<event>
 6    1  0.1274196E-001  0.3000000E+03  0.7818608E-02  0.1093470E+00
         21   -1    0    0  501  502  0.00000000000E+00  0.00000000000E+00  0.37481454652E+01  0.37481454652E+01  0.00000000000E+00 0. -1.
         13   -1    0    0    0    0 -0.00000000000E+00 -0.00000000000E+00 -0.10000000000E+04  0.10000000000E+04  0.00000000000E+00 0.  1.
    9000005    2    1    2  501    0  0.46331181778E+02 -0.39608288879E+02 -0.45726209665E+03  0.46132270906E+03  0.38238606520E+01 0.  0.
         13    1    3    3    0    0  0.30505102357E+02 -0.23695482772E+02 -0.28663441648E+03  0.28922538941E+03  0.00000000000E+00 0.  1.
          1    1    3    3  501    0  0.15826079420E+02 -0.15912806107E+02 -0.17062768017E+03  0.17209731965E+03  0.00000000000E+00 0.  1.
         -3    1    1    2    0  502 -0.46331181778E+02  0.39608288879E+02 -0.53898975789E+03  0.54242543640E+03  0.00000000000E+00 0. -1.
<mgrwt>
<rscale>  1 0.30000000E+03</rscale>
<asrwt>0</asrwt>
<pdfrwt beam="1">  1       21 0.13629649E-01 0.30000000E+03</pdfrwt>
<pdfrwt beam="2">0</pdfrwt>
<totfact> 0.49125174E+03</totfact>
</mgrwt>
</event>
<event>
 6    1  0.1274196E-001  0.3000000E+03  0.7818608E-02  0.1093470E+00
         21   -1    0    0  501  502  0.00000000000E+00  0.00000000000E+00  0.16450407082E+01  0.16450407082E+01  0.00000000000E+00 0. -1.
         13   -1    0    0    0    0 -0.00000000000E+00 -0.00000000000E+00 -0.10000000000E+04  0.10000000000E+04  0.00000000000E+00 0.  1.
    9000005    2    1    2  501    0  0.22452540084E+02  0.24274036421E+02 -0.78861849668E+03  0.78931810142E+03  0.32536927324E+01 0.  0.
         13    1    3    3    0    0  0.20320162757E+02  0.20377130121E+02 -0.68813915059E+03  0.68874060939E+03  0.00000000000E+00 0.  1.
          3    1    3    3  501    0  0.21323773263E+01  0.38969062998E+01 -0.10047934609E+03  0.10057749203E+03  0.00000000000E+00 0.  1.
         -1    1    1    2    0  502 -0.22452540084E+02 -0.24274036421E+02 -0.20973646261E+03  0.21232693929E+03  0.00000000000E+00 0. -1.
<mgrwt>
<rscale>  1 0.30000000E+03</rscale>
<asrwt>0</asrwt>
<pdfrwt beam="1">  1       21 0.59819788E-02 0.30000000E+03</pdfrwt>
<pdfrwt beam="2">0</pdfrwt>
<totfact> 0.21181258E+04</totfact>
</mgrwt>
</event>
<event>
 6    1  0.1274196E-001  0.3000000E+03  0.7818608E-02  0.1093470E+00
         21   -1    0    0  501  502  0.00000000000E+00  0.00000000000E+00  0.12374665221E+01  0.12374665221E+01  0.00000000000E+00 0. -1.
         13   -1    0    0    0    0 -0.00000000000E+00 -0.00000000000E+00 -0.10000000000E+04  0.10000000000E+04  0.00000000000E+00 0.  1.
    9000005    2    1    2  501    0  0.86032466981E+01  0.29490990461E+02 -0.74154654352E+03  0.74219345509E+03  0.40142484192E+01 0.  0.
         13    1    3    3    0    0  0.58867112663E+01  0.14443149750E+02 -0.40324562347E+03  0.40354713577E+03  0.00000000000E+00 0.  1.
          3    1    3    3  501    0  0.27165354318E+01  0.15047840711E+02 -0.33830092005E+03  0.33864631931E+03  0.00000000000E+00 0.  1.
         -3    1    1    2    0  502 -0.86032466981E+01 -0.29490990461E+02 -0.25721598995E+03  0.25904401143E+03  0.00000000000E+00 0. -1.
<mgrwt>
<rscale>  1 0.30000000E+03</rscale>
<asrwt>0</asrwt>
<pdfrwt beam="1">  1       21 0.44998878E-02 0.30000000E+03</pdfrwt>
<pdfrwt beam="2">0</pdfrwt>
<totfact> 0.34459647E+04</totfact>
</mgrwt>
</event>
<event>
 6    1  0.1274196E-001  0.3000000E+03  0.7818608E-02  0.1093470E+00
         21   -1    0    0  501  502  0.00000000000E+00  0.00000000000E+00  0.11861248250E+01  0.11861248250E+01  0.00000000000E+00 0. -1.
         13   -1    0    0    0    0 -0.00000000000E+00 -0.00000000000E+00 -0.10000000000E+04  0.10000000000E+04  0.00000000000E+00 0.  1.
    9000005    2    1    2  501    0  0.28726398597E+02  0.13270744662E+02 -0.69503273507E+03  0.69576133912E+03  0.34669226950E+01 0.  0.
         13    1    3    3    0    0  0.19910076461E+01  0.10989283089E+00 -0.35885200044E+02  0.35940558845E+02  0.00000000000E+00 0.  1.
          1    1    3    3  501    0  0.26735390951E+02  0.13160851831E+02 -0.65914753503E+03  0.65982078028E+03  0.00000000000E+00 0.  1.
         -3    1    1    2    0  502 -0.28726398597E+02 -0.13270744662E+02 -0.30378114010E+03  0.30542478570E+03  0.00000000000E+00 0. -1.
<mgrwt>
<rscale>  1 0.30000000E+03</rscale>
<asrwt>0</asrwt>
<pdfrwt beam="1">  1       21 0.43131903E-02 0.30000000E+03</pdfrwt>
<pdfrwt beam="2">0</pdfrwt>
<totfact> 0.37024445E+04</totfact>
</mgrwt>
</event>
<event>
 6    1  0.1274196E-001  0.3000000E+03  0.7818608E-02  0.1093470E+00
         21   -1    0    0  501  502  0.00000000000E+00  0.00000000000E+00  0.96419474121E+00  0.96419474121E+00  0.00000000000E+00 0. -1.
         13   -1    0    0    0    0 -0.00000000000E+00 -0.00000000000E+00 -0.10000000000E+04  0.10000000000E+04  0.00000000000E+00 0.  1.
    9000005    2    1    2  501    0 -0.45968032834E+01 -0.30574376891E+02 -0.51611842365E+03  0.51705808754E+03  0.38620643683E+01 0.  0.
         13    1    3    3    0    0  0.92693101465E-01 -0.17361874316E+01 -0.18080449969E+02  0.18163854489E+02  0.00000000000E+00 0.  1.
          1    1    3    3  501    0 -0.46894963849E+01 -0.28838189459E+02 -0.49803797368E+03  0.49889423305E+03  0.00000000000E+00 0.  1.
         -1    1    1    2    0  502  0.45968032834E+01  0.30574376891E+02 -0.48291738161E+03  0.48390610720E+03  0.00000000000E+00 0. -1.
<mgrwt>
<rscale>  1 0.30000000E+03</rscale>
<asrwt>0</asrwt>
<pdfrwt beam="1">  1       21 0.35061701E-02 0.30000000E+03</pdfrwt>
<pdfrwt beam="2">0</pdfrwt>
<totfact> 0.52461844E+04</totfact>
</mgrwt>
</event>
<event>
 6    1  0.1274196E-001  0.3000000E+03  0.7818608E-02  0.1093470E+00
         21   -1    0    0  501  502  0.00000000000E+00  0.00000000000E+00  0.30536279007E+01  0.30536279007E+01  0.00000000000E+00 0. -1.
         13   -1    0    0    0    0 -0.00000000000E+00 -0.00000000000E+00 -0.10000000000E+04  0.10000000000E+04  0.00000000000E+00 0.  1.
    9000005    2    1    2  501    0  0.49486078197E+02  0.18896795595E+02 -0.64031042735E+03  0.64250521520E+03  0.30898798444E+01 0.  0.
         13    1    3    3    0    0  0.10757246391E+02  0.42501811899E+01 -0.12503118940E+03  0.12556504574E+03  0.00000000000E+00 0.  1.
          1    1    3    3  501    0  0.38728831807E+02  0.14646614405E+02 -0.51527923796E+03  0.51694016945E+03  0.00000000000E+00 0.  1.
         -3    1    1    2    0  502 -0.49486078197E+02 -0.18896795595E+02 -0.35663594474E+03  0.36054841270E+03  0.00000000000E+00 0. -1.
<mgrwt>
<rscale>  1 0.30000000E+03</rscale>
<asrwt>0</asrwt>
<pdfrwt beam="1">  1       21 0.11104125E-01 0.30000000E+03</pdfrwt>
<pdfrwt beam="2">0</pdfrwt>
<totfact> 0.71300854E+03</totfact>
</mgrwt>
</event>
<event>
 6    1  0.1274196E-001  0.3000000E+03  0.7818608E-02  0.1093470E+00
         21   -1    0    0  501  502  0.00000000000E+00  0.00000000000E+00  0.33741343530E+01  0.33741343530E+01  0.00000000000E+00 0. -1.
         13   -1    0    0    0    0 -0.00000000000E+00 -0.00000000000E+00 -0.10000000000E+04  0.10000000000E+04  0.00000000000E+00 0.  1.
    9000005    2    1    2  501    0 -0.21659640245E+02 -0.43373651248E+02 -0.77414157729E+03  0.77566890340E+03  0.40807318891E+01 0.  0.
         13    1    3    3    0    0 -0.19456868440E+02 -0.39172716642E+02 -0.67682963908E+03  0.67824142589E+03  0.00000000000E+00 0.  1.
          1    1    3    3  501    0 -0.22027718050E+01 -0.42009346059E+01 -0.97311938214E+02  0.97427477511E+02  0.00000000000E+00 0.  1.
         -1    1    1    2    0  502  0.21659640245E+02  0.43373651248E+02 -0.22248428835E+03  0.22770523095E+03  0.00000000000E+00 0. -1.
<mgrwt>
<rscale>  1 0.30000000E+03</rscale>
<asrwt>0</asrwt>
<pdfrwt beam="1">  1       21 0.12269605E-01 0.30000000E+03</pdfrwt>
<pdfrwt beam="2">0</pdfrwt>
<totfact> 0.59518802E+03</totfact>
</mgrwt>
</event>
<event>
 6    1  0.1274196E-001  0.3000000E+03  0.7818608E-02  0.1093470E+00
         21   -1    0    0  501  502  0.00000000000E+00  0.00000000000E+00  0.13889549140E+01  0.13889549140E+01  0.00000000000E+00 0. -1.
         13   -1    0    0    0    0 -0.00000000000E+00 -0.00000000000E+00 -0.10000000000E+04  0.10000000000E+04  0.00000000000E+00 0.  1.
    9000005    2    1    2  501    0  0.25879116055E+02  0.24970741041E+02 -0.62804558526E+03  0.62908259374E+03  0.32227354812E+01 0.  0.
         13    1    3    3    0    0  0.83389668320E+01  0.64640019088E+01 -0.16813826604E+03  0.16846898289E+03  0.00000000000E+00 0.  1.
          1    1    3    3  501    0  0.17540149223E+02  0.18506739132E+02 -0.45990731922E+03  0.46061361085E+03  0.00000000000E+00 0.  1.
         -3    1    1    2    0  502 -0.25879116055E+02 -0.24970741041E+02 -0.37056545983E+03  0.37230636118E+03  0.00000000000E+00 0. -1.
<mgrwt>
<rscale>  1 0.30000000E+03</rscale>
<asrwt>0</asrwt>
<pdfrwt beam="1">  1       21 0.50507558E-02 0.30000000E+03</pdfrwt>
<pdfrwt beam="2">0</pdfrwt>
<totfact> 0.28312828E+04</totfact>
</mgrwt>
</event>
<event>
 6    1  0.1274196E-001  0.3000000E+03  0.7818608E-02  0.1093470E+00
         21   -1    0    0  501  502  0.00000000000E+00  0.00000000000E+00  0.16956590198E+01  0.16956590198E+01  0.00000000000E+00 0. -1.
         13   -1    0    0    0    0 -0.00000000000E+00 -0.00000000000E+00 -0.10000000000E+04  0.10000000000E+04  0.00000000000E+00 0.  1.
    9000005    2    1    2  501    0  0.32043602662E+02 -0.21890353322E+01 -0.81210433657E+03  0.81274586148E+03  0.32859599586E+01 0.  0.
         13    1    3    3    0    0  0.22046947314E+02 -0.26117041877E+01 -0.58540319031E+03  0.58582402145E+03  0.00000000000E+00 0.  1.
          1    1    3    3  501    0  0.99966553487E+01  0.42266885555E+00 -0.22670114626E+03  0.22692184003E+03  0.00000000000E+00 0.  1.
         -3    1    1    2    0  502 -0.32043602662E+02  0.21890353322E+01 -0.18620000441E+03  0.18894979754E+03  0.00000000000E+00 0. -1.
<mgrwt>
<rscale>  1 0.30000000E+03</rscale>
<asrwt>0</asrwt>
<pdfrwt beam="1">  1       21 0.61660458E-02 0.30000000E+03</pdfrwt>
<pdfrwt beam="2">0</pdfrwt>
<totfact> 0.20102070E+04</totfact>
</mgrwt>
</event>
<event>
 6    1  0.1274196E-001  0.3000000E+03  0.7818608E-02  0.1093470E+00
         21   -1    0    0  501  502  0.00000000000E+00  0.00000000000E+00  0.16149863729E+01  0.16149863729E+01  0.00000000000E+00 0. -1.
         13   -1    0    0    0    0 -0.00000000000E+00 -0.00000000000E+00 -0.10000000000E+04  0.10000000000E+04  0.00000000000E+00 0.  1.
    9000005    2    1    2  501    0  0.32910816499E+02  0.19636915293E+02 -0.64423210424E+03  0.64539453004E+03  0.55104431019E+01 0.  0.
         13    1    3    3    0    0  0.37956334369E+00  0.12112681435E+01 -0.28682270361E+02  0.28710344336E+02  0.00000000000E+00 0.  1.
          1    1    3    3  501    0  0.32531253155E+02  0.18425647150E+02 -0.61554983388E+03  0.61668418571E+03  0.00000000000E+00 0.  1.
         -1    1    1    2    0  502 -0.32910816499E+02 -0.19636915293E+02 -0.35415290938E+03  0.35622045633E+03  0.00000000000E+00 0. -1.
<mgrwt>
<rscale>  1 0.30000000E+03</rscale>
<asrwt>0</asrwt>
<pdfrwt beam="1">  1       21 0.58726901E-02 0.30000000E+03</pdfrwt>
<pdfrwt beam="2">0</pdfrwt>
<totfact> 0.21865323E+04</totfact>
</mgrwt>
</event>
<event>
 6    1  0.1274196E-001  0.3000000E+03  0.7818608E-02  0.1093470E+00
         21   -1    0    0  501  502  0.00000000000E+00  0.00000000000E+00  0.14942699050E+01  0.14942699050E+01  0.00000000000E+00 0. -1.
         13   -1    0    0    0    0 -0.00000000000E+00 -0.00000000000E+00 -0.10000000000E+04  0.10000000000E+04  0.00000000000E+00 0.  1.
    9000005    2    1    2  501    0  0.35008692300E+02 -0.13527887580E+02 -0.40471716527E+03  0.40652076461E+03  0.73848439907E+01 0.  0.
         13    1    3    3    0    0  0.59538040691E+00  0.78017197611E+00 -0.10709125261E+02  0.10753999721E+02  0.00000000000E+00 0.  1.
          1    1    3    3  501    0  0.34413311893E+02 -0.14308059556E+02 -0.39400804001E+03  0.39576676489E+03  0.00000000000E+00 0.  1.
         -3    1    1    2    0  502 -0.35008692300E+02  0.13527887580E+02 -0.59378856483E+03  0.59497350529E+03  0.00000000000E+00 0. -1.
<mgrwt>
<rscale>  1 0.30000000E+03</rscale>
<asrwt>0</asrwt>
<pdfrwt beam="1">  1       21 0.54337202E-02 0.30000000E+03</pdfrwt>
<pdfrwt beam="2">0</pdfrwt>
<totfact> 0.24988035E+04</totfact>
</mgrwt>
</event>
<event>
 6    1  0.1274196E-001  0.3000000E+03  0.7818608E-02  0.1093470E+00
         21   -1    0    0  501  502  0.00000000000E+00  0.00000000000E+00  0.20027057904E+01  0.20027057904E+01  0.00000000000E+00 0. -1.
         13   -1    0    0    0    0 -0.00000000000E+00 -0.00000000000E+00 -0.10000000000E+04  0.10000000000E+04  0.00000000000E+00 0.  1.
    9000005    2    1    2  501    0  0.25752726508E+02 -0.26118800380E+02 -0.78524624394E+03  0.78611290972E+03  0.40556815656E+01 0.  0.
         13    1    3    3    0    0  0.16179826060E+02 -0.19087611694E+02 -0.53719934112E+03  0.53778179199E+03  0.00000000000E+00 0.  1.
          3    1    3    3  501    0  0.95729004483E+01 -0.70311886855E+01 -0.24804690282E+03  0.24833111774E+03  0.00000000000E+00 0.  1.
         -1    1    1    2    0  502 -0.25752726508E+02  0.26118800380E+02 -0.21275105027E+03  0.21588979607E+03  0.00000000000E+00 0. -1.
<mgrwt>
<rscale>  1 0.30000000E+03</rscale>
<asrwt>0</asrwt>
<pdfrwt beam="1">  1       21 0.72825819E-02 0.30000000E+03</pdfrwt>
<pdfrwt beam="2">0</pdfrwt>
<totfact> 0.15059636E+04</totfact>
</mgrwt>
</event>
<event>
 6    1  0.1274196E-001  0.3000000E+03  0.7818608E-02  0.1093470E+00
         21   -1    0    0  501  502  0.00000000000E+00  0.00000000000E+00  0.11692193049E+01  0.11692193049E+01  0.00000000000E+00 0. -1.
         13   -1    0    0    0    0 -0.00000000000E+00 -0.00000000000E+00 -0.10000000000E+04  0.10000000000E+04  0.00000000000E+00 0.  1.
    9000005    2    1    2  501    0 -0.28043804841E+02  0.12658102522E+02 -0.71654543438E+03  0.71721200546E+03  0.30031147042E+01 0.  0.
         13    1    3    3    0    0 -0.15166766426E+02  0.68015274627E+01 -0.42154027263E+03  0.42186786205E+03  0.00000000000E+00 0.  1.
          1    1    3    3  501    0 -0.12877038415E+02  0.58565750588E+01 -0.29500516175E+03  0.29534414341E+03  0.00000000000E+00 0.  1.
         -1    1    1    2    0  502  0.28043804841E+02 -0.12658102522E+02 -0.28228534632E+03  0.28395721384E+03  0.00000000000E+00 0. -1.
<mgrwt>
<rscale>  1 0.30000000E+03</rscale>
<asrwt>0</asrwt>
<pdfrwt beam="1">  1       21 0.42517155E-02 0.30000000E+03</pdfrwt>
<pdfrwt beam="2">0</pdfrwt>
<totfact> 0.37934065E+04</totfact>
</mgrwt>
</event>
<event>
 6    1  0.1274196E-001  0.3000000E+03  0.7818608E-02  0.1093470E+00
         21   -1    0    0  501  502  0.00000000000E+00  0.00000000000E+00  0.10728667406E+01  0.10728667406E+01  0.00000000000E+00 0. -1.
         13   -1    0    0    0    0 -0.00000000000E+00 -0.00000000000E+00 -0.10000000000E+04  0.10000000000E+04  0.00000000000E+00 0.  1.
    9000005    2    1    2  501    0  0.27280206710E+02  0.16406415480E+02 -0.61217352159E+03  0.61301135578E+03  0.36223799521E+01 0.  0.
         13    1    3    3    0    0  0.25187650258E+02  0.15178711569E+02 -0.58088486394E+03  0.58162877866E+03  0.00000000000E+00 0.  1.
          1    1    3    3  501    0  0.20925564521E+01  0.12277039108E+01 -0.31288657647E+02  0.31382577121E+02  0.00000000000E+00 0.  1.
         -3    1    1    2    0  502 -0.27280206710E+02 -0.16406415480E+02 -0.38675361167E+03  0.38806151096E+03  0.00000000000E+00 0. -1.
<mgrwt>
<rscale>  1 0.30000000E+03</rscale>
<asrwt>0</asrwt>
<pdfrwt beam="1">  1       21 0.39013418E-02 0.30000000E+03</pdfrwt>
<pdfrwt beam="2">0</pdfrwt>
<totfact> 0.43852287E+04</totfact>
</mgrwt>
</event>
<event>
 6    1  0.1274196E-001  0.3000000E+03  0.7818608E-02  0.1093470E+00
         21   -1    0    0  501  502  0.00000000000E+00  0.00000000000E+00  0.10241272969E+01  0.10241272969E+01  0.00000000000E+00 0. -1.
         13   -1    0    0    0    0 -0.00000000000E+00 -0.00000000000E+00 -0.10000000000E+04  0.10000000000E+04  0.00000000000E+00 0.  1.
    9000005    2    1    2  501    0  0.45455695662E+01  0.31422672443E+02 -0.49285148496E+03  0.49390486872E+03  0.56023724302E+01 0.  0.
         13    1    3    3    0    0  0.36340695904E+01  0.30832148479E+02 -0.46716592280E+03  0.46819635546E+03  0.00000000000E+00 0.  1.
          1    1    3    3  501    0  0.91149997582E+00  0.59052396397E+00 -0.25685562153E+02  0.25708513257E+02  0.00000000000E+00 0.  1.
         -3    1    1    2    0  502 -0.45455695662E+01 -0.31422672443E+02 -0.50612438775E+03  0.50711925858E+03  0.00000000000E+00 0. -1.
<mgrwt>
<rscale>  1 0.30000000E+03</rscale>
<asrwt>0</asrwt>
<pdfrwt beam="1">  1       21 0.37241071E-02 0.30000000E+03</pdfrwt>
<pdfrwt beam="2">0</pdfrwt>
<totfact> 0.47415700E+04</totfact>
</mgrwt>
</event>
<event>
 6    1  0.1274196E-001  0.3000000E+03  0.7818608E-02  0.1093470E+00
         21   -1    0    0  501  502  0.00000000000E+00  0.00000000000E+00  0.28737199931E+01  0.28737199931E+01  0.00000000000E+00 0. -1.
         13   -1    0    0    0    0 -0.00000000000E+00 -0.00000000000E+00 -0.10000000000E+04  0.10000000000E+04  0.00000000000E+00 0.  1.
    9000005    2    1    2  501    0 -0.25517437712E+02  0.45430783579E+02 -0.61430133258E+03  0.61651891402E+03  0.37879300643E+01 0.  0.
         13    1    3    3    0    0 -0.16535416581E+02  0.31512330682E+02 -0.40176808111E+03  0.40334109384E+03  0.00000000000E+00 0.  1.
          3    1    3    3  501    0 -0.89820211316E+01  0.13918452897E+02 -0.21253325147E+03  0.21317782018E+03  0.00000000000E+00 0.  1.
         -1    1    1    2    0  502  0.25517437712E+02 -0.45430783579E+02 -0.38282494743E+03  0.38635480597E+03  0.00000000000E+00 0. -1.
<mgrwt>
<rscale>  1 0.30000000E+03</rscale>
<asrwt>0</asrwt>
<pdfrwt beam="1">  1       21 0.10449913E-01 0.30000000E+03</pdfrwt>
<pdfrwt beam="2">0</pdfrwt>
<totfact> 0.79517228E+03</totfact>
</mgrwt>
</event>
<event>
 6    1  0.1274196E-001  0.3000000E+03  0.7818608E-02  0.1093470E+00
         21   -1    0    0  501  502  0.00000000000E+00  0.00000000000E+00  0.70721314738E+01  0.70721314738E+01  0.00000000000E+00 0. -1.
         13   -1    0    0    0    0 -0.00000000000E+00 -0.00000000000E+00 -0.10000000000E+04  0.10000000000E+04  0.00000000000E+00 0.  1.
    9000005    2    1    2  501    0  0.15501329542E+02 -0.55382108006E+02 -0.86361822543E+03  0.86555021479E+03  0.57676615101E+01 0.  0.
         13    1    3    3    0    0  0.69459181730E+01 -0.34882032476E+02 -0.52087482489E+03  0.52208771789E+03  0.00000000000E+00 0.  1.
          3    1    3    3  501    0  0.85554113690E+01 -0.20500075530E+02 -0.34274340054E+03  0.34346249690E+03  0.00000000000E+00 0.  1.
         -3    1    1    2    0  502 -0.15501329542E+02  0.55382108006E+02 -0.12930964309E+03  0.14152191668E+03  0.00000000000E+00 0. -1.
<mgrwt>
<rscale>  1 0.30000000E+03</rscale>
<asrwt>0</asrwt>
<pdfrwt beam="1">  1       21 0.25716896E-01 0.30000000E+03</pdfrwt>
<pdfrwt beam="2">0</pdfrwt>
<totfact> 0.14754518E+03</totfact>
</mgrwt>
</event>
<event>
 6    1  0.1274196E-001  0.3000000E+03  0.7818608E-02  0.1093470E+00
         21   -1    0    0  501  502  0.00000000000E+00  0.00000000000E+00  0.10642005956E+02  0.10642005956E+02  0.00000000000E+00 0. -1.
         13   -1    0    0    0    0 -0.00000000000E+00 -0.00000000000E+00 -0.10000000000E+04  0.10000000000E+04  0.00000000000E+00 0.  1.
    9000005    2    1    2  501    0 -0.59028229427E+02  0.69166872096E+02 -0.73315506540E+03  0.73878114318E+03  0.35832289266E+01 0.  0.
         13    1    3    3    0    0 -0.55038358286E+02  0.65480734022E+02 -0.68465771782E+03  0.68998053449E+03  0.00000000000E+00 0.  1.
          3    1    3    3  501    0 -0.39898711412E+01  0.36861380734E+01 -0.48497347586E+02  0.48800608690E+02  0.00000000000E+00 0.  1.
         -3    1    1    2    0  502  0.59028229427E+02 -0.69166872096E+02 -0.25620292864E+03  0.27186086278E+03  0.00000000000E+00 0. -1.
<mgrwt>
<rscale>  1 0.30000000E+03</rscale>
<asrwt>0</asrwt>
<pdfrwt beam="1">  1       21 0.38698285E-01 0.30000000E+03</pdfrwt>
<pdfrwt beam="2">0</pdfrwt>
<totfact> 0.64707947E+02</totfact>
</mgrwt>
</event>
<event>
 6    1  0.1274196E-001  0.3000000E+03  0.7818608E-02  0.1093470E+00
         21   -1    0    0  501  502  0.00000000000E+00  0.00000000000E+00  0.97825354372E+00  0.97825354372E+00  0.00000000000E+00 0. -1.
         13   -1    0    0    0    0 -0.00000000000E+00 -0.00000000000E+00 -0.10000000000E+04  0.10000000000E+04  0.00000000000E+00 0.  1.
    9000005    2    1    2  501    0  0.17325956267E+02  0.24633011132E+02 -0.39958795340E+03  0.40078841170E+03  0.73378777772E+01 0.  0.
         13    1    3    3    0    0 -0.33016780592E+00  0.12092185582E+01 -0.74325003996E+01  0.75374586229E+01  0.00000000000E+00 0.  1.
          1    1    3    3  501    0  0.17656124073E+02  0.23423792574E+02 -0.39215545300E+03  0.39325095308E+03  0.00000000000E+00 0.  1.
         -3    1    1    2    0  502 -0.17325956267E+02 -0.24633011132E+02 -0.59943379305E+03  0.60018984185E+03  0.00000000000E+00 0. -1.
<mgrwt>
<rscale>  1 0.30000000E+03</rscale>
<asrwt>0</asrwt>
<pdfrwt beam="1">  1       21 0.35572931E-02 0.30000000E+03</pdfrwt>
<pdfrwt beam="2">0</pdfrwt>
<totfact> 0.51204689E+04</totfact>
</mgrwt>
</event>
<event>
 6    1  0.1274196E-001  0.3000000E+03  0.7818608E-02  0.1093470E+00
         21   -1    0    0  501  502  0.00000000000E+00  0.00000000000E+00  0.11472247933E+01  0.11472247933E+01  0.00000000000E+00 0. -1.
         13   -1    0    0    0    0 -0.00000000000E+00 -0.00000000000E+00 -0.10000000000E+04  0.10000000000E+04  0.00000000000E+00 0.  1.
    9000005    2    1    2  501    0 -0.85113808894E+01  0.30916136633E+02 -0.65892566257E+03  0.65971100379E+03  0.27071417851E+01 0.  0.
         13    1    3    3    0    0 -0.23339361798E+00  0.32699827000E+01 -0.78292874981E+02  0.78361479900E+02  0.00000000000E+00 0.  1.
          1    1    3    3  501    0 -0.82779872715E+01  0.27646153933E+02 -0.58063278759E+03  0.58134952389E+03  0.00000000000E+00 0.  1.
         -3    1    1    2    0  502  0.85113808894E+01 -0.30916136633E+02 -0.33992711264E+03  0.34143622101E+03  0.00000000000E+00 0. -1.
<mgrwt>
<rscale>  1 0.30000000E+03</rscale>
<asrwt>0</asrwt>
<pdfrwt beam="1">  1       21 0.41717353E-02 0.30000000E+03</pdfrwt>
<pdfrwt beam="2">0</pdfrwt>
<totfact> 0.39170468E+04</totfact>
</mgrwt>
</event>
<event>
 6    1  0.1274196E-001  0.3000000E+03  0.7818608E-02  0.1093470E+00
         21   -1    0    0  501  502  0.00000000000E+00  0.00000000000E+00  0.13661053174E+01  0.13661053174E+01  0.00000000000E+00 0. -1.
         13   -1    0    0    0    0 -0.00000000000E+00 -0.00000000000E+00 -0.10000000000E+04  0.10000000000E+04  0.00000000000E+00 0.  1.
    9000005    2    1    2  501    0  0.22004464883E+02  0.28999108805E+02 -0.58023114887E+03  0.58138276935E+03  0.35487451853E+01 0.  0.
         13    1    3    3    0    0  0.14896728421E+02  0.21655572746E+02 -0.43351587325E+03  0.43431197164E+03  0.00000000000E+00 0.  1.
          3    1    3    3  501    0  0.71077364619E+01  0.73435360590E+01 -0.14671527562E+03  0.14707079771E+03  0.00000000000E+00 0.  1.
         -3    1    1    2    0  502 -0.22004464883E+02 -0.28999108805E+02 -0.41840274581E+03  0.41998333597E+03  0.00000000000E+00 0. -1.
<mgrwt>
<rscale>  1 0.30000000E+03</rscale>
<asrwt>0</asrwt>
<pdfrwt beam="1">  1       21 0.49676662E-02 0.30000000E+03</pdfrwt>
<pdfrwt beam="2">0</pdfrwt>
<totfact> 0.29124948E+04</totfact>
</mgrwt>
</event>
<event>
 6    1  0.1274196E-001  0.3000000E+03  0.7818608E-02  0.1093470E+00
         21   -1    0    0  501  502  0.00000000000E+00  0.00000000000E+00  0.15445783164E+01  0.15445783164E+01  0.00000000000E+00 0. -1.
         13   -1    0    0    0    0 -0.00000000000E+00 -0.00000000000E+00 -0.10000000000E+04  0.10000000000E+04  0.00000000000E+00 0.  1.
    9000005    2    1    2  501    0  0.22667818167E+02 -0.26822129036E+02 -0.72296121786E+03  0.72382113148E+03  0.32941235293E+01 0.  0.
         13    1    3    3    0    0  0.14830224213E+02 -0.18297371819E+02 -0.45349394732E+03  0.45410515260E+03  0.00000000000E+00 0.  1.
          1    1    3    3  501    0  0.78375939544E+01 -0.85247572168E+01 -0.26946727055E+03  0.26971597888E+03  0.00000000000E+00 0.  1.
         -1    1    1    2    0  502 -0.22667818167E+02  0.26822129036E+02 -0.27549420382E+03  0.27772344684E+03  0.00000000000E+00 0. -1.
<mgrwt>
<rscale>  1 0.30000000E+03</rscale>
<asrwt>0</asrwt>
<pdfrwt beam="1">  1       21 0.56166603E-02 0.30000000E+03</pdfrwt>
<pdfrwt beam="2">0</pdfrwt>
<totfact> 0.23608320E+04</totfact>
</mgrwt>
</event>
<event>
 6    1  0.1274196E-001  0.3000000E+03  0.7818608E-02  0.1093470E+00
         21   -1    0    0  501  502  0.00000000000E+00  0.00000000000E+00  0.13735804412E+01  0.13735804412E+01  0.00000000000E+00 0. -1.
         13   -1    0    0    0    0 -0.00000000000E+00 -0.00000000000E+00 -0.10000000000E+04  0.10000000000E+04  0.00000000000E+00 0.  1.
    9000005    2    1    2  501    0 -0.26224423402E+02  0.15833358088E+02 -0.78037187327E+03  0.78097969988E+03  0.32581328450E+01 0.  0.
         13    1    3    3    0    0 -0.18198538112E+02  0.12649672565E+02 -0.55299998057E+03  0.55344392626E+03  0.00000000000E+00 0.  1.
          3    1    3    3  501    0 -0.80258852894E+01  0.31836855231E+01 -0.22737189270E+03  0.22753577362E+03  0.00000000000E+00 0.  1.
         -1    1    1    2    0  502  0.26224423402E+02 -0.15833358088E+02 -0.21825454629E+03  0.22039388056E+03  0.00000000000E+00 0. -1.
<mgrwt>
<rscale>  1 0.30000000E+03</rscale>
<asrwt>0</asrwt>
<pdfrwt beam="1">  1       21 0.49948485E-02 0.30000000E+03</pdfrwt>
<pdfrwt beam="2">0</pdfrwt>
<totfact> 0.28855316E+04</totfact>
</mgrwt>
</event>
<event>
 6    1  0.1274196E-001  0.3000000E+03  0.7818608E-02  0.1093470E+00
         21   -1    0    0  501  502  0.00000000000E+00  0.00000000000E+00  0.11884263414E+01  0.11884263414E+01  0.00000000000E+00 0. -1.
         13   -1    0    0    0    0 -0.00000000000E+00 -0.00000000000E+00 -0.10000000000E+04  0.10000000000E+04  0.00000000000E+00 0.  1.
    9000005    2    1    2  501    0 -0.29841976026E+02 -0.13561900500E+02 -0.64753611913E+03  0.64838690476E+03  0.52994342495E+01 0.  0.
         13    1    3    3    0    0 -0.20118841537E+02 -0.10516968251E+02 -0.48583022197E+03  0.48636033862E+03  0.00000000000E+00 0.  1.
          3    1    3    3  501    0 -0.97231344894E+01 -0.30449322487E+01 -0.16170589716E+03  0.16202656614E+03  0.00000000000E+00 0.  1.
         -3    1    1    2    0  502  0.29841976026E+02  0.13561900500E+02 -0.35127545453E+03  0.35280152158E+03  0.00000000000E+00 0. -1.
<mgrwt>
<rscale>  1 0.30000000E+03</rscale>
<asrwt>0</asrwt>
<pdfrwt beam="1">  1       21 0.43215594E-02 0.30000000E+03</pdfrwt>
<pdfrwt beam="2">0</pdfrwt>
<totfact> 0.36903230E+04</totfact>
</mgrwt>
</event>
<event>
 6    1  0.1274196E-001  0.3000000E+03  0.7818608E-02  0.1093470E+00
         21   -1    0    0  501  502  0.00000000000E+00  0.00000000000E+00  0.15411174456E+01  0.15411174456E+01  0.00000000000E+00 0. -1.
         13   -1    0    0    0    0 -0.00000000000E+00 -0.00000000000E+00 -0.10000000000E+04  0.10000000000E+04  0.00000000000E+00 0.  1.
    9000005    2    1    2  501    0 -0.21510744400E+02 -0.30399428916E+02 -0.65624677293E+03  0.65730868816E+03  0.28367476927E+01 0.  0.
         13    1    3    3    0    0  0.88661731898E-01 -0.67076040237E-01 -0.20323752083E+01  0.20354137380E+01  0.00000000000E+00 0.  1.
          3    1    3    3  501    0 -0.21599406132E+02 -0.30332352875E+02 -0.65421439772E+03  0.65527327442E+03  0.00000000000E+00 0.  1.
         -1    1    1    2    0  502  0.21510744400E+02  0.30399428916E+02 -0.34221210962E+03  0.34423242929E+03  0.00000000000E+00 0. -1.
<mgrwt>
<rscale>  1 0.30000000E+03</rscale>
<asrwt>0</asrwt>
<pdfrwt beam="1">  1       21 0.56040753E-02 0.30000000E+03</pdfrwt>
<pdfrwt beam="2">0</pdfrwt>
<totfact> 0.23699439E+04</totfact>
</mgrwt>
</event>
<event>
 6    1  0.1274196E-001  0.3000000E+03  0.7818608E-02  0.1093470E+00
         21   -1    0    0  501  502  0.00000000000E+00  0.00000000000E+00  0.16362230126E+01  0.16362230126E+01  0.00000000000E+00 0. -1.
         13   -1    0    0    0    0 -0.00000000000E+00 -0.00000000000E+00 -0.10000000000E+04  0.10000000000E+04  0.00000000000E+00 0.  1.
    9000005    2    1    2  501    0  0.24117017361E+02  0.32123423403E+02 -0.44872586983E+03  0.45053244527E+03  0.33216154243E+01 0.  0.
         13    1    3    3    0    0  0.11316831961E+02  0.17677209412E+02 -0.23998274000E+03  0.24089887903E+03  0.00000000000E+00 0.  1.
          1    1    3    3  501    0  0.12800185400E+02  0.14446213991E+02 -0.20874312983E+03  0.20963356624E+03  0.00000000000E+00 0.  1.
         -3    1    1    2    0  502 -0.24117017361E+02 -0.32123423403E+02 -0.54963790715E+03  0.55110377774E+03  0.00000000000E+00 0. -1.
<mgrwt>
<rscale>  1 0.30000000E+03</rscale>
<asrwt>0</asrwt>
<pdfrwt beam="1">  1       21 0.59499144E-02 0.30000000E+03</pdfrwt>
<pdfrwt beam="2">0</pdfrwt>
<totfact> 0.21378461E+04</totfact>
</mgrwt>
</event>
<event>
 6    1  0.1274196E-001  0.3000000E+03  0.7818608E-02  0.1093470E+00
         21   -1    0    0  501  502  0.00000000000E+00  0.00000000000E+00  0.13052612360E+01  0.13052612360E+01  0.00000000000E+00 0. -1.
         13   -1    0    0    0    0 -0.00000000000E+00 -0.00000000000E+00 -0.10000000000E+04  0.10000000000E+04  0.00000000000E+00 0.  1.
    9000005    2    1    2  501    0 -0.32432539536E+02  0.29950162375E+01 -0.71396669053E+03  0.71472036772E+03  0.39911274157E+01 0.  0.
         13    1    3    3    0    0 -0.64074047006E+01 -0.19322633407E+00 -0.11254806452E+03  0.11273047059E+03  0.00000000000E+00 0.  1.
          1    1    3    3  501    0 -0.26025134835E+02  0.31882425716E+01 -0.60141862601E+03  0.60198989713E+03  0.00000000000E+00 0.  1.
         -3    1    1    2    0  502  0.32432539536E+02 -0.29950162375E+01 -0.28472804823E+03  0.28658489352E+03  0.00000000000E+00 0. -1.
<mgrwt>
<rscale>  1 0.30000000E+03</rscale>
<asrwt>0</asrwt>
<pdfrwt beam="1">  1       21 0.47464145E-02 0.30000000E+03</pdfrwt>
<pdfrwt beam="2">0</pdfrwt>
<totfact> 0.31473948E+04</totfact>
</mgrwt>
</event>
<event>
 6    1  0.1274196E-001  0.3000000E+03  0.7818608E-02  0.1093470E+00
         21   -1    0    0  501  502  0.00000000000E+00  0.00000000000E+00  0.24816435766E+01  0.24816435766E+01  0.00000000000E+00 0. -1.
         13   -1    0    0    0    0 -0.00000000000E+00 -0.00000000000E+00 -0.10000000000E+04  0.10000000000E+04  0.00000000000E+00 0.  1.
    9000005    2    1    2  501    0  0.14514132743E+02  0.43097087074E+02 -0.70244538132E+03  0.70392498295E+03  0.35845405097E+01 0.  0.
         13    1    3    3    0    0  0.12233953981E+01  0.40628157461E+01 -0.83312785358E+02  0.83420761038E+02  0.00000000000E+00 0.  1.
          3    1    3    3  501    0  0.13290737345E+02  0.39034271328E+02 -0.61913259596E+03  0.62050422192E+03  0.00000000000E+00 0.  1.
         -1    1    1    2    0  502 -0.14514132743E+02 -0.43097087074E+02 -0.29507297511E+03  0.29855666062E+03  0.00000000000E+00 0. -1.
<mgrwt>
<rscale>  1 0.30000000E+03</rscale>
<asrwt>0</asrwt>
<pdfrwt beam="1">  1       21 0.90241775E-02 0.30000000E+03</pdfrwt>
<pdfrwt beam="2">0</pdfrwt>
<totfact> 0.10328874E+04</totfact>
</mgrwt>
</event>
<event>
 6    1  0.1274196E-001  0.3000000E+03  0.7818608E-02  0.1093470E+00
         21   -1    0    0  501  502  0.00000000000E+00  0.00000000000E+00  0.17794770646E+01  0.17794770646E+01  0.00000000000E+00 0. -1.
         13   -1    0    0    0    0 -0.00000000000E+00 -0.00000000000E+00 -0.10000000000E+04  0.10000000000E+04  0.00000000000E+00 0.  1.
    9000005    2    1    2  501    0 -0.32741459332E+02 -0.32228441577E+01 -0.81211242741E+03  0.81278579171E+03  0.34290769288E+01 0.  0.
         13    1    3    3    0    0 -0.19803467427E+02 -0.36281892706E+01 -0.49646265198E+03  0.49687071346E+03  0.00000000000E+00 0.  1.
          1    1    3    3  501    0 -0.12937991905E+02  0.40534511293E+00 -0.31564977543E+03  0.31591507825E+03  0.00000000000E+00 0.  1.
         -1    1    1    2    0  502  0.32741459332E+02  0.32228441577E+01 -0.18610809552E+03  0.18899368535E+03  0.00000000000E+00 0. -1.
<mgrwt>
<rscale>  1 0.30000000E+03</rscale>
<asrwt>0</asrwt>
<pdfrwt beam="1">  1       21 0.64708393E-02 0.30000000E+03</pdfrwt>
<pdfrwt beam="2">0</pdfrwt>
<totfact> 0.18493438E+04</totfact>
</mgrwt>
</event>
<event>
 6    1  0.1274196E-001  0.3000000E+03  0.7818608E-02  0.1093470E+00
         21   -1    0    0  501  502  0.00000000000E+00  0.00000000000E+00  0.13013658763E+01  0.13013658763E+01  0.00000000000E+00 0. -1.
         13   -1    0    0    0    0 -0.00000000000E+00 -0.00000000000E+00 -0.10000000000E+04  0.10000000000E+04  0.00000000000E+00 0.  1.
    9000005    2    1    2  501    0  0.20154981051E+02 -0.26488445280E+02 -0.68895990649E+03  0.68977939171E+03  0.46899336544E+01 0.  0.
         13    1    3    3    0    0  0.33247889916E+01 -0.55844594451E+01 -0.10259220613E+03  0.10279786558E+03  0.00000000000E+00 0.  1.
          3    1    3    3  501    0  0.16830192060E+02 -0.20903985835E+02 -0.58636770036E+03  0.58698152613E+03  0.00000000000E+00 0.  1.
         -3    1    1    2    0  502 -0.20154981051E+02  0.26488445280E+02 -0.30973872763E+03  0.31152197417E+03  0.00000000000E+00 0. -1.
<mgrwt>
<rscale>  1 0.30000000E+03</rscale>
<asrwt>0</asrwt>
<pdfrwt beam="1">  1       21 0.47322495E-02 0.30000000E+03</pdfrwt>
<pdfrwt beam="2">0</pdfrwt>
<totfact> 0.31634345E+04</totfact>
</mgrwt>
</event>
<event>
 6    1  0.1274196E-001  0.3000000E+03  0.7818608E-02  0.1093470E+00
         21   -1    0    0  501  502  0.00000000000E+00  0.00000000000E+00  0.11243968605E+01  0.11243968605E+01  0.00000000000E+00 0. -1.
         13   -1    0    0    0    0 -0.00000000000E+00 -0.00000000000E+00 -0.10000000000E+04  0.10000000000E+04  0.00000000000E+00 0.  1.
    9000005    2    1    2  501    0  0.29500235656E+02  0.77086515033E+01 -0.69886119730E+03  0.69956456710E+03  0.73432447574E+01 0.  0.
         13    1    3    3    0    0  0.24646029191E+02  0.34147547258E+01 -0.55322074009E+03  0.55377998751E+03  0.00000000000E+00 0.  1.
          3    1    3    3  501    0  0.48542064655E+01  0.42938967776E+01 -0.14564045721E+03  0.14578457959E+03  0.00000000000E+00 0.  1.
         -1    1    1    2    0  502 -0.29500235656E+02 -0.77086515033E+01 -0.30001440584E+03  0.30155982976E+03  0.00000000000E+00 0. -1.
<mgrwt>
<rscale>  1 0.30000000E+03</rscale>
<asrwt>0</asrwt>
<pdfrwt beam="1">  1       21 0.40887245E-02 0.30000000E+03</pdfrwt>
<pdfrwt beam="2">0</pdfrwt>
<totfact> 0.40521357E+04</totfact>
</mgrwt>
</event>
<event>
 6    1  0.1274196E-001  0.3000000E+03  0.7818608E-02  0.1093470E+00
         21   -1    0    0  501  502  0.00000000000E+00  0.00000000000E+00  0.56578710670E+01  0.56578710670E+01  0.00000000000E+00 0. -1.
         13   -1    0    0    0    0 -0.00000000000E+00 -0.00000000000E+00 -0.10000000000E+04  0.10000000000E+04  0.00000000000E+00 0.  1.
    9000005    2    1    2  501    0 -0.40558671515E+02 -0.42905980252E+02 -0.80856290620E+03  0.81072237257E+03  0.32959248518E+01 0.  0.
         13    1    3    3    0    0 -0.37487225703E+02 -0.39954548106E+02 -0.76061482455E+03  0.76258545051E+03  0.00000000000E+00 0.  1.
          1    1    3    3  501    0 -0.30714458114E+01 -0.29514321459E+01 -0.47948081653E+02  0.48136922058E+02  0.00000000000E+00 0.  1.
         -1    1    1    2    0  502  0.40558671515E+02  0.42905980252E+02 -0.18577922273E+03  0.19493549850E+03  0.00000000000E+00 0. -1.
<mgrwt>
<rscale>  1 0.30000000E+03</rscale>
<asrwt>0</asrwt>
<pdfrwt beam="1">  1       21 0.20574120E-01 0.30000000E+03</pdfrwt>
<pdfrwt beam="2">0</pdfrwt>
<totfact> 0.22728824E+03</totfact>
</mgrwt>
</event>
<event>
 6    1  0.1274196E-001  0.3000000E+03  0.7818608E-02  0.1093470E+00
         21   -1    0    0  501  502  0.00000000000E+00  0.00000000000E+00  0.20271956707E+01  0.20271956707E+01  0.00000000000E+00 0. -1.
         13   -1    0    0    0    0 -0.00000000000E+00 -0.00000000000E+00 -0.10000000000E+04  0.10000000000E+04  0.00000000000E+00 0.  1.
    9000005    2    1    2  501    0 -0.37653095924E+02 -0.22044068913E+02 -0.37835054938E+03  0.38087066513E+03  0.31030198527E+01 0.  0.
         13    1    3    3    0    0 -0.31419394104E+02 -0.19141041405E+02 -0.32642537718E+03  0.32849213790E+03  0.00000000000E+00 0.  1.
          1    1    3    3  501    0 -0.62337018207E+01 -0.29030275078E+01 -0.51925172201E+02  0.52378527234E+02  0.00000000000E+00 0.  1.
         -3    1    1    2    0  502  0.37653095924E+02  0.22044068913E+02 -0.61962225495E+03  0.62115653054E+03  0.00000000000E+00 0. -1.
<mgrwt>
<rscale>  1 0.30000000E+03</rscale>
<asrwt>0</asrwt>
<pdfrwt beam="1">  1       21 0.73716362E-02 0.30000000E+03</pdfrwt>
<pdfrwt beam="2">0</pdfrwt>
<totfact> 0.14743168E+04</totfact>
</mgrwt>
</event>
<event>
 6    1  0.1274196E-001  0.3000000E+03  0.7818608E-02  0.1093470E+00
         21   -1    0    0  501  502  0.00000000000E+00  0.00000000000E+00  0.21341175307E+01  0.21341175307E+01  0.00000000000E+00 0. -1.
         13   -1    0    0    0    0 -0.00000000000E+00 -0.00000000000E+00 -0.10000000000E+04  0.10000000000E+04  0.00000000000E+00 0.  1.
    9000005    2    1    2  501    0  0.20011343547E+02  0.40025888936E+02 -0.60360968123E+03  0.60534641879E+03  0.98546340559E+01 0.  0.
         13    1    3    3    0    0  0.15314973694E+01 -0.11175665077E-01 -0.12335555963E+02  0.12430267495E+02  0.00000000000E+00 0.  1.
          3    1    3    3  501    0  0.18479846178E+02  0.40037064602E+02 -0.59127412527E+03  0.59291615130E+03  0.00000000000E+00 0.  1.
         -3    1    1    2    0  502 -0.20011343547E+02 -0.40025888936E+02 -0.39425620124E+03  0.39678769874E+03  0.00000000000E+00 0. -1.
<mgrwt>
<rscale>  1 0.30000000E+03</rscale>
<asrwt>0</asrwt>
<pdfrwt beam="1">  1       21 0.77604437E-02 0.30000000E+03</pdfrwt>
<pdfrwt beam="2">0</pdfrwt>
<totfact> 0.13473939E+04</totfact>
</mgrwt>
</event>
<event>
 6    1  0.1274196E-001  0.3000000E+03  0.7818608E-02  0.1093470E+00
         21   -1    0    0  501  502  0.00000000000E+00  0.00000000000E+00  0.15832772116E+01  0.15832772116E+01  0.00000000000E+00 0. -1.
         13   -1    0    0    0    0 -0.00000000000E+00 -0.00000000000E+00 -0.10000000000E+04  0.10000000000E+04  0.00000000000E+00 0.  1.
    9000005    2    1    2  501    0 -0.36057238536E+02  0.16307958129E+02 -0.53884961244E+03  0.54031545603E+03  0.39765868018E+01 0.  0.
         13    1    3    3    0    0 -0.30064245010E+02  0.14334132791E+02 -0.46917760500E+03  0.47035832216E+03  0.00000000000E+00 0.  1.
          3    1    3    3  501    0 -0.59929935261E+01  0.19738253380E+01 -0.69672007440E+02  0.69957133865E+02  0.00000000000E+00 0.  1.
         -3    1    1    2    0  502  0.36057238536E+02 -0.16307958129E+02 -0.45956711035E+03  0.46126782119E+03  0.00000000000E+00 0. -1.
<mgrwt>
<rscale>  1 0.30000000E+03</rscale>
<asrwt>0</asrwt>
<pdfrwt beam="1">  1       21 0.57573838E-02 0.30000000E+03</pdfrwt>
<pdfrwt beam="2">0</pdfrwt>
<totfact> 0.22625009E+04</totfact>
</mgrwt>
</event>
<event>
 6    1  0.1274196E-001  0.3000000E+03  0.7818608E-02  0.1093470E+00
         21   -1    0    0  501  502  0.00000000000E+00  0.00000000000E+00  0.12057572744E+01  0.12057572744E+01  0.00000000000E+00 0. -1.
         13   -1    0    0    0    0 -0.00000000000E+00 -0.00000000000E+00 -0.10000000000E+04  0.10000000000E+04  0.00000000000E+00 0.  1.
    9000005    2    1    2  501    0  0.34136217619E+02  0.26287973302E+01 -0.57715672689E+03  0.57818047825E+03  0.32536307379E+01 0.  0.
         13    1    3    3    0    0  0.12432171577E+02  0.92819777904E+00 -0.23718573251E+03  0.23751314100E+03  0.00000000000E+00 0.  1.
          1    1    3    3  501    0  0.21704046042E+02  0.17005995512E+01 -0.33997099438E+03  0.34066733725E+03  0.00000000000E+00 0.  1.
         -3    1    1    2    0  502 -0.34136217619E+02 -0.26287973302E+01 -0.42163751584E+03  0.42302527902E+03  0.00000000000E+00 0. -1.
<mgrwt>
<rscale>  1 0.30000000E+03</rscale>
<asrwt>0</asrwt>
<pdfrwt beam="1">  1       21 0.43845812E-02 0.30000000E+03</pdfrwt>
<pdfrwt beam="2">0</pdfrwt>
<totfact> 0.36009876E+04</totfact>
</mgrwt>
</event>
<event>
 6    1  0.1274196E-001  0.3000000E+03  0.7818608E-02  0.1093470E+00
         21   -1    0    0  501  502  0.00000000000E+00  0.00000000000E+00  0.10065526381E+01  0.10065526381E+01  0.00000000000E+00 0. -1.
         13   -1    0    0    0    0 -0.00000000000E+00 -0.00000000000E+00 -0.10000000000E+04  0.10000000000E+04  0.00000000000E+00 0.  1.
    9000005    2    1    2  501    0  0.31498547393E+02 -0.26203297863E+01 -0.49735593611E+03  0.49837426427E+03  0.38672323194E+01 0.  0.
         13    1    3    3    0    0  0.20299378588E+02 -0.17480389599E+01 -0.29056556864E+03  0.29127902446E+03  0.00000000000E+00 0.  1.
          1    1    3    3  501    0  0.11199168806E+02 -0.87229082641E+00 -0.20679036747E+03  0.20709523981E+03  0.00000000000E+00 0.  1.
         -3    1    1    2    0  502 -0.31498547393E+02  0.26203297863E+01 -0.50163751125E+03  0.50263228837E+03  0.00000000000E+00 0. -1.
<mgrwt>
<rscale>  1 0.30000000E+03</rscale>
<asrwt>0</asrwt>
<pdfrwt beam="1">  1       21 0.36601991E-02 0.30000000E+03</pdfrwt>
<pdfrwt beam="2">0</pdfrwt>
<totfact> 0.48813391E+04</totfact>
</mgrwt>
</event>
<event>
 6    1  0.1274196E-001  0.3000000E+03  0.7818608E-02  0.1093470E+00
         21   -1    0    0  501  502  0.00000000000E+00  0.00000000000E+00  0.10598424734E+01  0.10598424734E+01  0.00000000000E+00 0. -1.
         13   -1    0    0    0    0 -0.00000000000E+00 -0.00000000000E+00 -0.10000000000E+04  0.10000000000E+04  0.00000000000E+00 0.  1.
    9000005    2    1    2  501    0 -0.30129997436E+02  0.68710371412E+01 -0.63453548883E+03  0.63534712672E+03  0.86981002475E+01 0.  0.
         13    1    3    3    0    0 -0.10916862112E+01  0.56584222967E+00 -0.69063410770E+01  0.70149485589E+01  0.00000000000E+00 0.  1.
          1    1    3    3  501    0 -0.29038311225E+02  0.63051949115E+01 -0.62762914776E+03  0.62833217816E+03  0.00000000000E+00 0.  1.
         -3    1    1    2    0  502  0.30129997436E+02 -0.68710371412E+01 -0.36440466869E+03  0.36571271575E+03  0.00000000000E+00 0. -1.
<mgrwt>
<rscale>  1 0.30000000E+03</rscale>
<asrwt>0</asrwt>
<pdfrwt beam="1">  1       21 0.38539808E-02 0.30000000E+03</pdfrwt>
<pdfrwt beam="2">0</pdfrwt>
<totfact> 0.44762266E+04</totfact>
</mgrwt>
</event>
<event>
 6    1  0.1274196E-001  0.3000000E+03  0.7818608E-02  0.1093470E+00
         21   -1    0    0  501  502  0.00000000000E+00  0.00000000000E+00  0.10045752327E+01  0.10045752327E+01  0.00000000000E+00 0. -1.
         13   -1    0    0    0    0 -0.00000000000E+00 -0.00000000000E+00 -0.10000000000E+04  0.10000000000E+04  0.00000000000E+00 0.  1.
    9000005    2    1    2  501    0 -0.17011650816E+02 -0.24882555109E+02 -0.64953642086E+03  0.65024805965E+03  0.40545335171E+01 0.  0.
         13    1    3    3    0    0 -0.15674172291E+02 -0.20510708866E+02 -0.56128233341E+03  0.56187563273E+03  0.00000000000E+00 0.  1.
          3    1    3    3  501    0 -0.13374785250E+01 -0.43718462429E+01 -0.88254087450E+02  0.88372426921E+02  0.00000000000E+00 0.  1.
         -3    1    1    2    0  502  0.17011650816E+02  0.24882555109E+02 -0.34945900390E+03  0.35075651558E+03  0.00000000000E+00 0. -1.
<mgrwt>
<rscale>  1 0.30000000E+03</rscale>
<asrwt>0</asrwt>
<pdfrwt beam="1">  1       21 0.36530085E-02 0.30000000E+03</pdfrwt>
<pdfrwt beam="2">0</pdfrwt>
<totfact> 0.48974707E+04</totfact>
</mgrwt>
</event>
<event>
 6    1  0.1274196E-001  0.3000000E+03  0.7818608E-02  0.1093470E+00
         21   -1    0    0  501  502  0.00000000000E+00  0.00000000000E+00  0.22210661304E+01  0.22210661304E+01  0.00000000000E+00 0. -1.
         13   -1    0    0    0    0 -0.00000000000E+00 -0.00000000000E+00 -0.10000000000E+04  0.10000000000E+04  0.00000000000E+00 0.  1.
    9000005    2    1    2  501    0  0.22749623662E+02  0.40721474892E+02 -0.56445699784E+03  0.56639577528E+03  0.40850897843E+01 0.  0.
         13    1    3    3    0    0  0.20104272736E+02  0.34932376955E+02 -0.50195772663E+03  0.50357324400E+03  0.00000000000E+00 0.  1.
          3    1    3    3  501    0  0.26453509265E+01  0.57890979371E+01 -0.62499271203E+02  0.62822531288E+02  0.00000000000E+00 0.  1.
         -3    1    1    2    0  502 -0.22749623662E+02 -0.40721474892E+02 -0.43332193603E+03  0.43582529085E+03  0.00000000000E+00 0. -1.
<mgrwt>
<rscale>  1 0.30000000E+03</rscale>
<asrwt>0</asrwt>
<pdfrwt beam="1">  1       21 0.80766211E-02 0.30000000E+03</pdfrwt>
<pdfrwt beam="2">0</pdfrwt>
<totfact> 0.12561722E+04</totfact>
</mgrwt>
</event>
<event>
 6    1  0.1274196E-001  0.3000000E+03  0.7818608E-02  0.1093470E+00
         21   -1    0    0  501  502  0.00000000000E+00  0.00000000000E+00  0.16184483710E+01  0.16184483710E+01  0.00000000000E+00 0. -1.
         13   -1    0    0    0    0 -0.00000000000E+00 -0.00000000000E+00 -0.10000000000E+04  0.10000000000E+04  0.00000000000E+00 0.  1.
    9000005    2    1    2  501    0 -0.22204402158E+02 -0.25435952206E+02 -0.77087592236E+03  0.77162098211E+03  0.30379614721E+01 0.  0.
         13    1    3    3    0    0 -0.10316787453E+02 -0.12829324935E+02 -0.40671290527E+03  0.40704596177E+03  0.00000000000E+00 0.  1.
          3    1    3    3  501    0 -0.11887614705E+02 -0.12606627271E+02 -0.36416301709E+03  0.36457502034E+03  0.00000000000E+00 0.  1.
         -3    1    1    2    0  502  0.22204402158E+02  0.25435952206E+02 -0.22750562926E+03  0.22999746626E+03  0.00000000000E+00 0. -1.
<mgrwt>
<rscale>  1 0.30000000E+03</rscale>
<asrwt>0</asrwt>
<pdfrwt beam="1">  1       21 0.58852792E-02 0.30000000E+03</pdfrwt>
<pdfrwt beam="2">0</pdfrwt>
<totfact> 0.21784782E+04</totfact>
</mgrwt>
</event>
<event>
 6    1  0.1274196E-001  0.3000000E+03  0.7818608E-02  0.1093470E+00
         21   -1    0    0  501  502  0.00000000000E+00  0.00000000000E+00  0.13605140595E+01  0.13605140595E+01  0.00000000000E+00 0. -1.
         13   -1    0    0    0    0 -0.00000000000E+00 -0.00000000000E+00 -0.10000000000E+04  0.10000000000E+04  0.00000000000E+00 0.  1.
    9000005    2    1    2  501    0  0.35556783229E+02 -0.93341886384E+01 -0.46887028859E+03  0.47031737610E+03  0.27703482227E+01 0.  0.
         13    1    3    3    0    0  0.73441179363E+01 -0.20374002522E+01 -0.83688399552E+02  0.84034726677E+02  0.00000000000E+00 0.  1.
          1    1    3    3  501    0  0.28212665293E+02 -0.72967883861E+01 -0.38518188904E+03  0.38628264943E+03  0.00000000000E+00 0.  1.
         -3    1    1    2    0  502 -0.35556783229E+02  0.93341886384E+01 -0.52976919735E+03  0.53104313796E+03  0.00000000000E+00 0. -1.
<mgrwt>
<rscale>  1 0.30000000E+03</rscale>
<asrwt>0</asrwt>
<pdfrwt beam="1">  1       21 0.49473343E-02 0.30000000E+03</pdfrwt>
<pdfrwt beam="2">0</pdfrwt>
<totfact> 0.29329203E+04</totfact>
</mgrwt>
</event>
<event>
 6    1  0.1274196E-001  0.3000000E+03  0.7818608E-02  0.1093470E+00
         21   -1    0    0  501  502  0.00000000000E+00  0.00000000000E+00  0.22113000802E+01  0.22113000802E+01  0.00000000000E+00 0. -1.
         13   -1    0    0    0    0 -0.00000000000E+00 -0.00000000000E+00 -0.10000000000E+04  0.10000000000E+04  0.00000000000E+00 0.  1.
    9000005    2    1    2  501    0  0.19680664486E+02  0.29141691541E+02 -0.83130455972E+03  0.83205391506E+03  0.31432160053E+01 0.  0.
         13    1    3    3    0    0  0.15199531503E+01  0.12409092483E+01 -0.36929908754E+02  0.36981999323E+02  0.00000000000E+00 0.  1.
          1    1    3    3  501    0  0.18160711336E+02  0.27900782292E+02 -0.79437465097E+03  0.79507191574E+03  0.00000000000E+00 0.  1.
         -3    1    1    2    0  502 -0.19680664486E+02 -0.29141691541E+02 -0.16648414020E+03  0.17015738502E+03  0.00000000000E+00 0. -1.
<mgrwt>
<rscale>  1 0.30000000E+03</rscale>
<asrwt>0</asrwt>
<pdfrwt beam="1">  1       21 0.80411082E-02 0.30000000E+03</pdfrwt>
<pdfrwt beam="2">0</pdfrwt>
<totfact> 0.12659371E+04</totfact>
</mgrwt>
</event>
<event>
 6    1  0.1274196E-001  0.3000000E+03  0.7818608E-02  0.1093470E+00
         21   -1    0    0  501  502  0.00000000000E+00  0.00000000000E+00  0.93642801874E+00  0.93642801874E+00  0.00000000000E+00 0. -1.
         13   -1    0    0    0    0 -0.00000000000E+00 -0.00000000000E+00 -0.10000000000E+04  0.10000000000E+04  0.00000000000E+00 0.  1.
    9000005    2    1    2  501    0 -0.28669553115E+02  0.10468555647E+02 -0.50868196920E+03  0.50960593815E+03  0.30549092240E+01 0.  0.
         13    1    3    3    0    0 -0.49412749207E+01  0.30656658987E+01 -0.98887627877E+02  0.99058454724E+02  0.00000000000E+00 0.  1.
          1    1    3    3  501    0 -0.23728278195E+02  0.74028897486E+01 -0.40979434133E+03  0.41054748342E+03  0.00000000000E+00 0.  1.
         -1    1    1    2    0  502  0.28669553115E+02 -0.10468555647E+02 -0.49038160278E+03  0.49133048987E+03  0.00000000000E+00 0. -1.
<mgrwt>
<rscale>  1 0.30000000E+03</rscale>
<asrwt>0</asrwt>
<pdfrwt beam="1">  1       21 0.34052000E-02 0.30000000E+03</pdfrwt>
<pdfrwt beam="2">0</pdfrwt>
<totfact> 0.55090142E+04</totfact>
</mgrwt>
</event>
<event>
 6    1  0.1274196E-001  0.3000000E+03  0.7818608E-02  0.1093470E+00
         21   -1    0    0  501  502  0.00000000000E+00  0.00000000000E+00  0.16438230813E+01  0.16438230813E+01  0.00000000000E+00 0. -1.
         13   -1    0    0    0    0 -0.00000000000E+00 -0.00000000000E+00 -0.10000000000E+04  0.10000000000E+04  0.00000000000E+00 0.  1.
    9000005    2    1    2  501    0 -0.11163242320E+02  0.28649987760E+02 -0.82516823333E+03  0.82574753664E+03  0.33077484544E+01 0.  0.
         13    1    3    3    0    0 -0.65180913590E+01  0.12897616190E+02 -0.41004958235E+03  0.41030414816E+03  0.00000000000E+00 0.  1.
          1    1    3    3  501    0 -0.46451509612E+01  0.15752371570E+02 -0.41511865098E+03  0.41544338848E+03  0.00000000000E+00 0.  1.
         -3    1    1    2    0  502  0.11163242320E+02 -0.28649987760E+02 -0.17318794359E+03  0.17589628644E+03  0.00000000000E+00 0. -1.
<mgrwt>
<rscale>  1 0.30000000E+03</rscale>
<asrwt>0</asrwt>
<pdfrwt beam="1">  1       21 0.59775511E-02 0.30000000E+03</pdfrwt>
<pdfrwt beam="2">0</pdfrwt>
<totfact> 0.21208321E+04</totfact>
</mgrwt>
</event>
<event>
 6    1  0.1274196E-001  0.3000000E+03  0.7818608E-02  0.1093470E+00
         21   -1    0    0  501  502  0.00000000000E+00  0.00000000000E+00  0.16316304492E+01  0.16316304492E+01  0.00000000000E+00 0. -1.
         13   -1    0    0    0    0 -0.00000000000E+00 -0.00000000000E+00 -0.10000000000E+04  0.10000000000E+04  0.00000000000E+00 0.  1.
    9000005    2    1    2  501    0  0.31748663793E+02 -0.13337499567E+02 -0.75601539464E+03  0.75684431257E+03  0.82565117702E+01 0.  0.
         13    1    3    3    0    0  0.54591928739E+01 -0.54250581734E+01 -0.20676402895E+03  0.20690722005E+03  0.00000000000E+00 0.  1.
          1    1    3    3  501    0  0.26289470919E+02 -0.79124413932E+01 -0.54925136570E+03  0.54993709252E+03  0.00000000000E+00 0.  1.
         -1    1    1    2    0  502 -0.31748663793E+02  0.13337499567E+02 -0.24235297491E+03  0.24478731788E+03  0.00000000000E+00 0. -1.
<mgrwt>
<rscale>  1 0.30000000E+03</rscale>
<asrwt>0</asrwt>
<pdfrwt beam="1">  1       21 0.59332141E-02 0.30000000E+03</pdfrwt>
<pdfrwt beam="2">0</pdfrwt>
<totfact> 0.21482307E+04</totfact>
</mgrwt>
</event>
<event>
 6    1  0.1274196E-001  0.3000000E+03  0.7818608E-02  0.1093470E+00
         21   -1    0    0  501  502  0.00000000000E+00  0.00000000000E+00  0.13798066558E+01  0.13798066558E+01  0.00000000000E+00 0. -1.
         13   -1    0    0    0    0 -0.00000000000E+00 -0.00000000000E+00 -0.10000000000E+04  0.10000000000E+04  0.00000000000E+00 0.  1.
    9000005    2    1    2  501    0  0.36358365594E+02 -0.71069814224E+01 -0.49837859705E+03  0.49976830898E+03  0.38336319108E+01 0.  0.
         13    1    3    3    0    0  0.43382298225E+01 -0.32038956925E+00 -0.75241551962E+02  0.75367194648E+02  0.00000000000E+00 0.  1.
          3    1    3    3  501    0  0.32020135772E+02 -0.67865918531E+01 -0.42313704509E+03  0.42440111433E+03  0.00000000000E+00 0.  1.
         -1    1    1    2    0  502 -0.36358365594E+02  0.71069814224E+01 -0.50024159630E+03  0.50161149767E+03  0.00000000000E+00 0. -1.
<mgrwt>
<rscale>  1 0.30000000E+03</rscale>
<asrwt>0</asrwt>
<pdfrwt beam="1">  1       21 0.50174893E-02 0.30000000E+03</pdfrwt>
<pdfrwt beam="2">0</pdfrwt>
<totfact> 0.28633690E+04</totfact>
</mgrwt>
</event>
<event>
 6    1  0.1274196E-001  0.3000000E+03  0.7818608E-02  0.1093470E+00
         21   -1    0    0  501  502  0.00000000000E+00  0.00000000000E+00  0.76097065390E+01  0.76097065390E+01  0.00000000000E+00 0. -1.
         13   -1    0    0    0    0 -0.00000000000E+00 -0.00000000000E+00 -0.10000000000E+04  0.10000000000E+04  0.00000000000E+00 0.  1.
    9000005    2    1    2  501    0 -0.52113403302E+00  0.65827108221E+02 -0.82667800879E+03  0.82930087039E+03  0.31501837532E+01 0.  0.
         13    1    3    3    0    0 -0.74937019457E+00  0.53038794163E+02 -0.68066850600E+03  0.68273222445E+03  0.00000000000E+00 0.  1.
          3    1    3    3  501    0  0.22823616155E+00  0.12788314057E+02 -0.14600950279E+03  0.14656864595E+03  0.00000000000E+00 0.  1.
         -3    1    1    2    0  502  0.52113403302E+00 -0.65827108221E+02 -0.16571228467E+03  0.17830883615E+03  0.00000000000E+00 0. -1.
<mgrwt>
<rscale>  1 0.30000000E+03</rscale>
<asrwt>0</asrwt>
<pdfrwt beam="1">  1       21 0.27671718E-01 0.30000000E+03</pdfrwt>
<pdfrwt beam="2">0</pdfrwt>
<totfact> 0.12768924E+03</totfact>
</mgrwt>
</event>
<event>
 6    1  0.1274196E-001  0.3000000E+03  0.7818608E-02  0.1093470E+00
         21   -1    0    0  501  502  0.00000000000E+00  0.00000000000E+00  0.15948655217E+01  0.15948655217E+01  0.00000000000E+00 0. -1.
         13   -1    0    0    0    0 -0.00000000000E+00 -0.00000000000E+00 -0.10000000000E+04  0.10000000000E+04  0.00000000000E+00 0.  1.
    9000005    2    1    2  501    0  0.10202935782E+01 -0.33311104534E+02 -0.77442002018E+03  0.77514398318E+03  0.33401087561E+01 0.  0.
         13    1    3    3    0    0  0.13411657855E+01 -0.30899375028E+02 -0.73341832219E+03  0.73407016383E+03  0.00000000000E+00 0.  1.
          3    1    3    3  501    0 -0.32087220732E+00 -0.24117295067E+01 -0.41001697986E+02  0.41073819349E+02  0.00000000000E+00 0.  1.
         -1    1    1    2    0  502 -0.10202935782E+01  0.33311104534E+02 -0.22398511430E+03  0.22645088234E+03  0.00000000000E+00 0. -1.
<mgrwt>
<rscale>  1 0.30000000E+03</rscale>
<asrwt>0</asrwt>
<pdfrwt beam="1">  1       21 0.57995232E-02 0.30000000E+03</pdfrwt>
<pdfrwt beam="2">0</pdfrwt>
<totfact> 0.22342736E+04</totfact>
</mgrwt>
</event>
<event>
 6    1  0.1274196E-001  0.3000000E+03  0.7818608E-02  0.1093470E+00
         21   -1    0    0  501  502  0.00000000000E+00  0.00000000000E+00  0.14759926667E+01  0.14759926667E+01  0.00000000000E+00 0. -1.
         13   -1    0    0    0    0 -0.00000000000E+00 -0.00000000000E+00 -0.10000000000E+04  0.10000000000E+04  0.00000000000E+00 0.  1.
    9000005    2    1    2  501    0 -0.33600781748E+02 -0.17307431914E+02 -0.58610372779E+03  0.58732741219E+03  0.27110228951E+01 0.  0.
         13    1    3    3    0    0 -0.12582438971E+02 -0.68230794823E+01 -0.20243775980E+03  0.20294314173E+03  0.00000000000E+00 0.  1.
          3    1    3    3  501    0 -0.21018342777E+02 -0.10484352432E+02 -0.38366596799E+03  0.38438427046E+03  0.00000000000E+00 0.  1.
         -3    1    1    2    0  502  0.33600781748E+02  0.17307431914E+02 -0.41242027954E+03  0.41414858048E+03  0.00000000000E+00 0. -1.
<mgrwt>
<rscale>  1 0.30000000E+03</rscale>
<asrwt>0</asrwt>
<pdfrwt beam="1">  1       21 0.53672574E-02 0.30000000E+03</pdfrwt>
<pdfrwt beam="2">0</pdfrwt>
<totfact> 0.25520247E+04</totfact>
</mgrwt>
</event>
<event>
 6    1  0.1274196E-001  0.3000000E+03  0.7818608E-02  0.1093470E+00
         21   -1    0    0  501  502  0.00000000000E+00  0.00000000000E+00  0.24567279881E+01  0.24567279881E+01  0.00000000000E+00 0. -1.
         13   -1    0    0    0    0 -0.00000000000E+00 -0.00000000000E+00 -0.10000000000E+04  0.10000000000E+04  0.00000000000E+00 0.  1.
    9000005    2    1    2  501    0  0.43576506538E+02 -0.23080684299E+02 -0.54259179898E+03  0.54484065230E+03  0.37210447271E+01 0.  0.
         13    1    3    3    0    0  0.73315756092E+01 -0.31575156223E+01 -0.10195614478E+03  0.10226816398E+03  0.00000000000E+00 0.  1.
          3    1    3    3  501    0  0.36244930929E+02 -0.19923168676E+02 -0.44063565420E+03  0.44257248832E+03  0.00000000000E+00 0.  1.
         -3    1    1    2    0  502 -0.43576506538E+02  0.23080684299E+02 -0.45495147304E+03  0.45761607569E+03  0.00000000000E+00 0. -1.
<mgrwt>
<rscale>  1 0.30000000E+03</rscale>
<asrwt>0</asrwt>
<pdfrwt beam="1">  1       21 0.89335752E-02 0.30000000E+03</pdfrwt>
<pdfrwt beam="2">0</pdfrwt>
<totfact> 0.10515146E+04</totfact>
</mgrwt>
</event>
<event>
 6    1  0.1274196E-001  0.3000000E+03  0.7818608E-02  0.1093470E+00
         21   -1    0    0  501  502  0.00000000000E+00  0.00000000000E+00  0.36157603897E+01  0.36157603897E+01  0.00000000000E+00 0. -1.
         13   -1    0    0    0    0 -0.00000000000E+00 -0.00000000000E+00 -0.10000000000E+04  0.10000000000E+04  0.00000000000E+00 0.  1.
    9000005    2    1    2  501    0  0.41993800390E+02 -0.41104751845E+01 -0.85560435650E+03  0.85664858457E+03  0.27581372538E+01 0.  0.
         13    1    3    3    0    0  0.98822753394E+01 -0.60969010026E+00 -0.17903634529E+03  0.17930991055E+03  0.00000000000E+00 0.  1.
          1    1    3    3  501    0  0.32111525050E+02 -0.35007850842E+01 -0.67656801121E+03  0.67733867402E+03  0.00000000000E+00 0.  1.
         -3    1    1    2    0  502 -0.41993800390E+02  0.41104751845E+01 -0.14077988311E+03  0.14696717581E+03  0.00000000000E+00 0. -1.
<mgrwt>
<rscale>  1 0.30000000E+03</rscale>
<asrwt>0</asrwt>
<pdfrwt beam="1">  1       21 0.13148247E-01 0.30000000E+03</pdfrwt>
<pdfrwt beam="2">0</pdfrwt>
<totfact> 0.52467033E+03</totfact>
</mgrwt>
</event>
<event>
 6    1  0.1274196E-001  0.3000000E+03  0.7818608E-02  0.1093470E+00
         21   -1    0    0  501  502  0.00000000000E+00  0.00000000000E+00  0.70955624287E+01  0.70955624287E+01  0.00000000000E+00 0. -1.
         13   -1    0    0    0    0 -0.00000000000E+00 -0.00000000000E+00 -0.10000000000E+04  0.10000000000E+04  0.00000000000E+00 0.  1.
    9000005    2    1    2  501    0  0.54471570230E+02 -0.47211278369E+02 -0.75681526460E+03  0.76024711831E+03  0.32061506072E+01 0.  0.
         13    1    3    3    0    0  0.33022213738E+02 -0.30353052990E+02 -0.47937114359E+03  0.48146491848E+03  0.00000000000E+00 0.  1.
          3    1    3    3  501    0  0.21449356492E+02 -0.16858225379E+02 -0.27744412102E+03  0.27878219983E+03  0.00000000000E+00 0.  1.
         -1    1    1    2    0  502 -0.54471570230E+02  0.47211278369E+02 -0.23608917297E+03  0.24684844411E+03  0.00000000000E+00 0. -1.
<mgrwt>
<rscale>  1 0.30000000E+03</rscale>
<asrwt>0</asrwt>
<pdfrwt beam="1">  1       21 0.25802100E-01 0.30000000E+03</pdfrwt>
<pdfrwt beam="2">0</pdfrwt>
<totfact> 0.14658864E+03</totfact>
</mgrwt>
</event>
<event>
 6    1  0.1274196E-001  0.3000000E+03  0.7818608E-02  0.1093470E+00
         21   -1    0    0  501  502  0.00000000000E+00  0.00000000000E+00  0.35696912679E+01  0.35696912679E+01  0.00000000000E+00 0. -1.
         13   -1    0    0    0    0 -0.00000000000E+00 -0.00000000000E+00 -0.10000000000E+04  0.10000000000E+04  0.00000000000E+00 0.  1.
    9000005    2    1    2  501    0  0.16750849881E+02  0.32382111130E+02 -0.89563813971E+03  0.89638642098E+03  0.34272911594E+01 0.  0.
         13    1    3    3    0    0  0.11644153650E+01  0.47401531728E+01 -0.12411750481E+03  0.12421344499E+03  0.00000000000E+00 0.  1.
          1    1    3    3  501    0  0.15586434516E+02  0.27641957958E+02 -0.77152063489E+03  0.77217297599E+03  0.00000000000E+00 0.  1.
         -3    1    1    2    0  502 -0.16750849881E+02 -0.32382111130E+02 -0.10079216902E+03  0.10718327029E+03  0.00000000000E+00 0. -1.
<mgrwt>
<rscale>  1 0.30000000E+03</rscale>
<asrwt>0</asrwt>
<pdfrwt beam="1">  1       21 0.12980723E-01 0.30000000E+03</pdfrwt>
<pdfrwt beam="2">0</pdfrwt>
<totfact> 0.53710589E+03</totfact>
</mgrwt>
</event>
<event>
 6    1  0.1274196E-001  0.3000000E+03  0.7818608E-02  0.1093470E+00
         21   -1    0    0  501  502  0.00000000000E+00  0.00000000000E+00  0.25645373733E+01  0.25645373733E+01  0.00000000000E+00 0. -1.
         13   -1    0    0    0    0 -0.00000000000E+00 -0.00000000000E+00 -0.10000000000E+04  0.10000000000E+04  0.00000000000E+00 0.  1.
    9000005    2    1    2  501    0  0.17222226932E+02  0.37825037330E+02 -0.78443773874E+03  0.78554986291E+03  0.43223392138E+01 0.  0.
         13    1    3    3    0    0  0.73938024441E+01  0.16615860747E+02 -0.30356365696E+03  0.30410795611E+03  0.00000000000E+00 0.  1.
          3    1    3    3  501    0  0.98284244878E+01  0.21209176583E+02 -0.48087408178E+03  0.48144190680E+03  0.00000000000E+00 0.  1.
         -1    1    1    2    0  502 -0.17222226932E+02 -0.37825037330E+02 -0.21299772389E+03  0.21701467446E+03  0.00000000000E+00 0. -1.
<mgrwt>
<rscale>  1 0.30000000E+03</rscale>
<asrwt>0</asrwt>
<pdfrwt beam="1">  1       21 0.93256101E-02 0.30000000E+03</pdfrwt>
<pdfrwt beam="2">0</pdfrwt>
<totfact> 0.97437443E+03</totfact>
</mgrwt>
</event>
<event>
 6    1  0.1274196E-001  0.3000000E+03  0.7818608E-02  0.1093470E+00
         21   -1    0    0  501  502  0.00000000000E+00  0.00000000000E+00  0.30205146337E+01  0.30205146337E+01  0.00000000000E+00 0. -1.
         13   -1    0    0    0    0 -0.00000000000E+00 -0.00000000000E+00 -0.10000000000E+04  0.10000000000E+04  0.00000000000E+00 0.  1.
    9000005    2    1    2  501    0 -0.37292784717E+02 -0.17973395397E+02 -0.82819382728E+03  0.82923215740E+03  0.26759276334E+01 0.  0.
         13    1    3    3    0    0 -0.16606874262E+02 -0.94751364682E+01 -0.37873687264E+03  0.37921917828E+03  0.00000000000E+00 0.  1.
          1    1    3    3  501    0 -0.20685910455E+02 -0.84982589291E+01 -0.44945695465E+03  0.45001297912E+03  0.00000000000E+00 0.  1.
         -3    1    1    2    0  502  0.37292784717E+02  0.17973395397E+02 -0.16878565808E+03  0.17378835723E+03  0.00000000000E+00 0. -1.
<mgrwt>
<rscale>  1 0.30000000E+03</rscale>
<asrwt>0</asrwt>
<pdfrwt beam="1">  1       21 0.10983713E-01 0.30000000E+03</pdfrwt>
<pdfrwt beam="2">0</pdfrwt>
<totfact> 0.72713803E+03</totfact>
</mgrwt>
</event>
<event>
 6    1  0.1274196E-001  0.3000000E+03  0.7818608E-02  0.1093470E+00
         21   -1    0    0  501  502  0.00000000000E+00  0.00000000000E+00  0.10486055227E+01  0.10486055227E+01  0.00000000000E+00 0. -1.
         13   -1    0    0    0    0 -0.00000000000E+00 -0.00000000000E+00 -0.10000000000E+04  0.10000000000E+04  0.00000000000E+00 0.  1.
    9000005    2    1    2  501    0  0.23400233934E+02 -0.22245323253E+02 -0.51408985870E+03  0.51511328654E+03  0.32999698452E+01 0.  0.
         13    1    3    3    0    0  0.96819261068E+01 -0.10705901983E+02 -0.24894827110E+03  0.24936639251E+03  0.00000000000E+00 0.  1.
          3    1    3    3  501    0  0.13718307828E+02 -0.11539421270E+02 -0.26514158760E+03  0.26574689403E+03  0.00000000000E+00 0.  1.
         -3    1    1    2    0  502 -0.23400233934E+02  0.22245323253E+02 -0.48486153578E+03  0.48593531898E+03  0.00000000000E+00 0. -1.
<mgrwt>
<rscale>  1 0.30000000E+03</rscale>
<asrwt>0</asrwt>
<pdfrwt beam="1">  1       21 0.38131190E-02 0.30000000E+03</pdfrwt>
<pdfrwt beam="2">0</pdfrwt>
<totfact> 0.45571416E+04</totfact>
</mgrwt>
</event>
<event>
 6    1  0.1274196E-001  0.3000000E+03  0.7818608E-02  0.1093470E+00
         21   -1    0    0  501  502  0.00000000000E+00  0.00000000000E+00  0.40061005719E+01  0.40061005719E+01  0.00000000000E+00 0. -1.
         13   -1    0    0    0    0 -0.00000000000E+00 -0.00000000000E+00 -0.10000000000E+04  0.10000000000E+04  0.00000000000E+00 0.  1.
    9000005    2    1    2  501    0 -0.11211450457E+02 -0.46088948348E+02 -0.83018181546E+03  0.83154295967E+03  0.34582175566E+01 0.  0.
         13    1    3    3    0    0 -0.61655762698E+01 -0.31043588741E+02 -0.53663063908E+03  0.53756316981E+03  0.00000000000E+00 0.  1.
          1    1    3    3  501    0 -0.50458741875E+01 -0.15045359607E+02 -0.29355117638E+03  0.29397978986E+03  0.00000000000E+00 0.  1.
         -3    1    1    2    0  502  0.11211450457E+02  0.46088948348E+02 -0.16581208396E+03  0.17246314090E+03  0.00000000000E+00 0. -1.
<mgrwt>
<rscale>  1 0.30000000E+03</rscale>
<asrwt>0</asrwt>
<pdfrwt beam="1">  1       21 0.14567669E-01 0.30000000E+03</pdfrwt>
<pdfrwt beam="2">0</pdfrwt>
<totfact> 0.43466919E+03</totfact>
</mgrwt>
</event>
<event>
 6    1  0.1274196E-001  0.3000000E+03  0.7818608E-02  0.1093470E+00
         21   -1    0    0  501  502  0.00000000000E+00  0.00000000000E+00  0.20795390039E+01  0.20795390039E+01  0.00000000000E+00 0. -1.
         13   -1    0    0    0    0 -0.00000000000E+00 -0.00000000000E+00 -0.10000000000E+04  0.10000000000E+04  0.00000000000E+00 0.  1.
    9000005    2    1    2  501    0  0.33070548675E+02 -0.25809787438E+02 -0.30489034168E+03  0.30778093422E+03  0.33431580761E+01 0.  0.
         13    1    3    3    0    0  0.63054757674E+01 -0.58426723613E+01 -0.54501696845E+02  0.55175454724E+02  0.00000000000E+00 0.  1.
          1    1    3    3  501    0  0.26765072908E+02 -0.19967115077E+02 -0.25038864483E+03  0.25260547950E+03  0.00000000000E+00 0.  1.
         -3    1    1    2    0  502 -0.33070548675E+02  0.25809787438E+02 -0.69303011932E+03  0.69429860478E+03  0.00000000000E+00 0. -1.
<mgrwt>
<rscale>  1 0.30000000E+03</rscale>
<asrwt>0</asrwt>
<pdfrwt beam="1">  1       21 0.75619760E-02 0.30000000E+03</pdfrwt>
<pdfrwt beam="2">0</pdfrwt>
<totfact> 0.14099795E+04</totfact>
</mgrwt>
</event>
<event>
 6    1  0.1274196E-001  0.3000000E+03  0.7818608E-02  0.1093470E+00
         21   -1    0    0  501  502  0.00000000000E+00  0.00000000000E+00  0.46340397395E+01  0.46340397395E+01  0.00000000000E+00 0. -1.
         13   -1    0    0    0    0 -0.00000000000E+00 -0.00000000000E+00 -0.10000000000E+04  0.10000000000E+04  0.00000000000E+00 0.  1.
    9000005    2    1    2  501    0  0.26344811180E+02 -0.28632818679E+02 -0.90936020165E+03  0.91023659330E+03  0.89884392988E+01 0.  0.
         13    1    3    3    0    0  0.60012430218E+01 -0.12601261898E+02 -0.34553476143E+03  0.34581653818E+03  0.00000000000E+00 0.  1.
          1    1    3    3  501    0  0.20343568158E+02 -0.16031556781E+02 -0.56382544022E+03  0.56442005512E+03  0.00000000000E+00 0.  1.
         -1    1    1    2    0  502 -0.26344811180E+02  0.28632818679E+02 -0.86005758607E+02  0.94397446444E+02  0.00000000000E+00 0. -1.
<mgrwt>
<rscale>  1 0.30000000E+03</rscale>
<asrwt>0</asrwt>
<pdfrwt beam="1">  1       21 0.16851089E-01 0.30000000E+03</pdfrwt>
<pdfrwt beam="2">0</pdfrwt>
<totfact> 0.33156895E+03</totfact>
</mgrwt>
</event>
<event>
 6    1  0.1274196E-001  0.3000000E+03  0.7818608E-02  0.1093470E+00
         21   -1    0    0  501  502  0.00000000000E+00  0.00000000000E+00  0.29595386026E+01  0.29595386026E+01  0.00000000000E+00 0. -1.
         13   -1    0    0    0    0 -0.00000000000E+00 -0.00000000000E+00 -0.10000000000E+04  0.10000000000E+04  0.00000000000E+00 0.  1.
    9000005    2    1    2  501    0  0.11899124408E+02 -0.35488042635E+02 -0.86217660137E+03  0.86299793289E+03  0.39937318061E+01 0.  0.
         13    1    3    3    0    0  0.11414632081E+02 -0.34907983747E+02 -0.82959317490E+03  0.83040574240E+03  0.00000000000E+00 0.  1.
          1    1    3    3  501    0  0.48449232659E+00 -0.58005888788E+00 -0.32583426462E+02  0.32592190493E+02  0.00000000000E+00 0.  1.
         -1    1    1    2    0  502 -0.11899124408E+02  0.35488042635E+02 -0.13486386003E+03  0.13996160571E+03  0.00000000000E+00 0. -1.
<mgrwt>
<rscale>  1 0.30000000E+03</rscale>
<asrwt>0</asrwt>
<pdfrwt beam="1">  1       21 0.10761981E-01 0.30000000E+03</pdfrwt>
<pdfrwt beam="2">0</pdfrwt>
<totfact> 0.75428618E+03</totfact>
</mgrwt>
</event>
<event>
 6    1  0.1274196E-001  0.3000000E+03  0.7818608E-02  0.1093470E+00
         21   -1    0    0  501  502  0.00000000000E+00  0.00000000000E+00  0.22508929703E+01  0.22508929703E+01  0.00000000000E+00 0. -1.
         13   -1    0    0    0    0 -0.00000000000E+00 -0.00000000000E+00 -0.10000000000E+04  0.10000000000E+04  0.00000000000E+00 0.  1.
    9000005    2    1    2  501    0  0.33834546200E+02  0.51933975660E+01 -0.84572528746E+03  0.84642089069E+03  0.23053087245E+01 0.  0.
         13    1    3    3    0    0  0.84957732390E+01  0.16409813503E+01 -0.19124218874E+03  0.19143783779E+03  0.00000000000E+00 0.  1.
          1    1    3    3  501    0  0.25338772961E+02  0.35524162156E+01 -0.65448309872E+03  0.65498305290E+03  0.00000000000E+00 0.  1.
         -3    1    1    2    0  502 -0.33834546200E+02 -0.51933975660E+01 -0.15202381957E+03  0.15583000228E+03  0.00000000000E+00 0. -1.
<mgrwt>
<rscale>  1 0.30000000E+03</rscale>
<asrwt>0</asrwt>
<pdfrwt beam="1">  1       21 0.81850826E-02 0.30000000E+03</pdfrwt>
<pdfrwt beam="2">0</pdfrwt>
<totfact> 0.12270540E+04</totfact>
</mgrwt>
</event>
<event>
 6    1  0.1274196E-001  0.3000000E+03  0.7818608E-02  0.1093470E+00
         21   -1    0    0  501  502  0.00000000000E+00  0.00000000000E+00  0.16405693763E+01  0.16405693763E+01  0.00000000000E+00 0. -1.
         13   -1    0    0    0    0 -0.00000000000E+00 -0.00000000000E+00 -0.10000000000E+04  0.10000000000E+04  0.00000000000E+00 0.  1.
    9000005    2    1    2  501    0  0.10218340844E+02 -0.38745223959E+02 -0.56653695403E+03  0.56796297235E+03  0.34943972490E+01 0.  0.
         13    1    3    3    0    0  0.24488898552E+01 -0.48928263246E+01 -0.83133648814E+02  0.83313506565E+02  0.00000000000E+00 0.  1.
          1    1    3    3  501    0  0.77694509890E+01 -0.33852397634E+02 -0.48340330521E+03  0.48464946578E+03  0.00000000000E+00 0.  1.
         -3    1    1    2    0  502 -0.10218340844E+02  0.38745223959E+02 -0.43182247660E+03  0.43367759703E+03  0.00000000000E+00 0. -1.
<mgrwt>
<rscale>  1 0.30000000E+03</rscale>
<asrwt>0</asrwt>
<pdfrwt beam="1">  1       21 0.59657194E-02 0.30000000E+03</pdfrwt>
<pdfrwt beam="2">0</pdfrwt>
<totfact> 0.21280902E+04</totfact>
</mgrwt>
</event>
<event>
 6    1  0.1274196E-001  0.3000000E+03  0.7818608E-02  0.1093470E+00
         21   -1    0    0  501  502  0.00000000000E+00  0.00000000000E+00  0.16147241839E+01  0.16147241839E+01  0.00000000000E+00 0. -1.
         13   -1    0    0    0    0 -0.00000000000E+00 -0.00000000000E+00 -0.10000000000E+04  0.10000000000E+04  0.00000000000E+00 0.  1.
    9000005    2    1    2  501    0  0.11115330643E+02 -0.37484826571E+02 -0.61076069258E+03  0.61202329675E+03  0.39024825025E+01 0.  0.
         13    1    3    3    0    0  0.98812684386E+00 -0.66607165459E+01 -0.88540921060E+02  0.88796600395E+02  0.00000000000E+00 0.  1.
          1    1    3    3  501    0  0.10127203799E+02 -0.30824110025E+02 -0.52221977152E+03  0.52322669636E+03  0.00000000000E+00 0.  1.
         -3    1    1    2    0  502 -0.11115330643E+02  0.37484826571E+02 -0.38762458324E+03  0.38959142743E+03  0.00000000000E+00 0. -1.
<mgrwt>
<rscale>  1 0.30000000E+03</rscale>
<asrwt>0</asrwt>
<pdfrwt beam="1">  1       21 0.58717367E-02 0.30000000E+03</pdfrwt>
<pdfrwt beam="2">0</pdfrwt>
<totfact> 0.21871442E+04</totfact>
</mgrwt>
</event>
<event>
 6    1  0.1274196E-001  0.3000000E+03  0.7818608E-02  0.1093470E+00
         21   -1    0    0  501  502  0.00000000000E+00  0.00000000000E+00  0.21436267032E+01  0.21436267032E+01  0.00000000000E+00 0. -1.
         13   -1    0    0    0    0 -0.00000000000E+00 -0.00000000000E+00 -0.10000000000E+04  0.10000000000E+04  0.00000000000E+00 0.  1.
    9000005    2    1    2  501    0  0.97062296560E+01  0.32634604761E+02 -0.83520256641E+03  0.83596453892E+03  0.10684337601E+02 0.  0.
         13    1    3    3    0    0  0.44831419817E+01  0.46223879795E+01 -0.97898561619E+02  0.98110108551E+02  0.00000000000E+00 0.  1.
          3    1    3    3  501    0  0.52230876743E+01  0.28012216781E+02 -0.73730400479E+03  0.73785443037E+03  0.00000000000E+00 0.  1.
         -1    1    1    2    0  502 -0.97062296560E+01 -0.32634604761E+02 -0.16265380688E+03  0.16617908778E+03  0.00000000000E+00 0. -1.
<mgrwt>
<rscale>  1 0.30000000E+03</rscale>
<asrwt>0</asrwt>
<pdfrwt beam="1">  1       21 0.77950226E-02 0.30000000E+03</pdfrwt>
<pdfrwt beam="2">0</pdfrwt>
<totfact> 0.13369287E+04</totfact>
</mgrwt>
</event>
<event>
 6    1  0.1274196E-001  0.3000000E+03  0.7818608E-02  0.1093470E+00
         21   -1    0    0  501  502  0.00000000000E+00  0.00000000000E+00  0.18192770019E+01  0.18192770019E+01  0.00000000000E+00 0. -1.
         13   -1    0    0    0    0 -0.00000000000E+00 -0.00000000000E+00 -0.10000000000E+04  0.10000000000E+04  0.00000000000E+00 0.  1.
    9000005    2    1    2  501    0  0.35772056242E+02  0.19033616655E+02 -0.65174875263E+03  0.65302560065E+03  0.49071353420E+01 0.  0.
         13    1    3    3    0    0  0.31268186169E+02  0.18365903725E+02 -0.58009532346E+03  0.58122765779E+03  0.00000000000E+00 0.  1.
          3    1    3    3  501    0  0.45038700735E+01  0.66771292940E+00 -0.71653429178E+02  0.71797942861E+02  0.00000000000E+00 0.  1.
         -1    1    1    2    0  502 -0.35772056242E+02 -0.19033616655E+02 -0.34643197036E+03  0.34879367635E+03  0.00000000000E+00 0. -1.
<mgrwt>
<rscale>  1 0.30000000E+03</rscale>
<asrwt>0</asrwt>
<pdfrwt beam="1">  1       21 0.66155667E-02 0.30000000E+03</pdfrwt>
<pdfrwt beam="2">0</pdfrwt>
<totfact> 0.17798300E+04</totfact>
</mgrwt>
</event>
<event>
 6    1  0.1274196E-001  0.3000000E+03  0.7818608E-02  0.1093470E+00
         21   -1    0    0  501  502  0.00000000000E+00  0.00000000000E+00  0.31144457157E+01  0.31144457157E+01  0.00000000000E+00 0. -1.
         13   -1    0    0    0    0 -0.00000000000E+00 -0.00000000000E+00 -0.10000000000E+04  0.10000000000E+04  0.00000000000E+00 0.  1.
    9000005    2    1    2  501    0 -0.34618683813E+02  0.59415734414E+01 -0.88808874461E+03  0.88878815233E+03  0.30009758081E+01 0.  0.
         13    1    3    3    0    0 -0.67204643282E+01  0.19819244180E+01 -0.15576721729E+03  0.15592472109E+03  0.00000000000E+00 0.  1.
          1    1    3    3  501    0 -0.27898219485E+02  0.39596490234E+01 -0.73232152732E+03  0.73286343124E+03  0.00000000000E+00 0.  1.
         -1    1    1    2    0  502  0.34618683813E+02 -0.59415734414E+01 -0.10879680967E+03  0.11432629339E+03  0.00000000000E+00 0. -1.
<mgrwt>
<rscale>  1 0.30000000E+03</rscale>
<asrwt>0</asrwt>
<pdfrwt beam="1">  1       21 0.11325281E-01 0.30000000E+03</pdfrwt>
<pdfrwt beam="2">0</pdfrwt>
<totfact> 0.68811232E+03</totfact>
</mgrwt>
</event>
<event>
 6    1  0.1274196E-001  0.3000000E+03  0.7818608E-02  0.1093470E+00
         21   -1    0    0  501  502  0.00000000000E+00  0.00000000000E+00  0.15744200774E+01  0.15744200774E+01  0.00000000000E+00 0. -1.
         13   -1    0    0    0    0 -0.00000000000E+00 -0.00000000000E+00 -0.10000000000E+04  0.10000000000E+04  0.00000000000E+00 0.  1.
    9000005    2    1    2  501    0 -0.34792768870E+02 -0.16059727334E+02 -0.62565163177E+03  0.62683602062E+03  0.38705039481E+01 0.  0.
         13    1    3    3    0    0 -0.93845951744E+01 -0.32306254453E+01 -0.18503746694E+03  0.18530345852E+03  0.00000000000E+00 0.  1.
          3    1    3    3  501    0 -0.25408173696E+02 -0.12829101888E+02 -0.44061416483E+03  0.44153256210E+03  0.00000000000E+00 0.  1.
         -3    1    1    2    0  502  0.34792768870E+02  0.16059727334E+02 -0.37277394815E+03  0.37473839946E+03  0.00000000000E+00 0. -1.
<mgrwt>
<rscale>  1 0.30000000E+03</rscale>
<asrwt>0</asrwt>
<pdfrwt beam="1">  1       21 0.57251760E-02 0.30000000E+03</pdfrwt>
<pdfrwt beam="2">0</pdfrwt>
<totfact> 0.22844451E+04</totfact>
</mgrwt>
</event>
<event>
 6    1  0.1274196E-001  0.3000000E+03  0.7818608E-02  0.1093470E+00
         21   -1    0    0  501  502  0.00000000000E+00  0.00000000000E+00  0.27960790482E+01  0.27960790482E+01  0.00000000000E+00 0. -1.
         13   -1    0    0    0    0 -0.00000000000E+00 -0.00000000000E+00 -0.10000000000E+04  0.10000000000E+04  0.00000000000E+00 0.  1.
    9000005    2    1    2  501    0 -0.50402264876E+01  0.45265473396E+02 -0.75275986957E+03  0.75414519684E+03  0.36317659168E+01 0.  0.
         13    1    3    3    0    0 -0.29097749062E+01  0.20845869547E+02 -0.31963877417E+03  0.32033102101E+03  0.00000000000E+00 0.  1.
          1    1    3    3  501    0 -0.21304515814E+01  0.24419603849E+02 -0.43312109539E+03  0.43381417583E+03  0.00000000000E+00 0.  1.
         -3    1    1    2    0  502  0.50402264876E+01 -0.45265473396E+02 -0.24444405139E+03  0.24865088221E+03  0.00000000000E+00 0. -1.
<mgrwt>
<rscale>  1 0.30000000E+03</rscale>
<asrwt>0</asrwt>
<pdfrwt beam="1">  1       21 0.10167582E-01 0.30000000E+03</pdfrwt>
<pdfrwt beam="2">0</pdfrwt>
<totfact> 0.83513482E+03</totfact>
</mgrwt>
</event>
<event>
 6    1  0.1274196E-001  0.3000000E+03  0.7818608E-02  0.1093470E+00
         21   -1    0    0  501  502  0.00000000000E+00  0.00000000000E+00  0.14284406444E+01  0.14284406444E+01  0.00000000000E+00 0. -1.
         13   -1    0    0    0    0 -0.00000000000E+00 -0.00000000000E+00 -0.10000000000E+04  0.10000000000E+04  0.00000000000E+00 0.  1.
    9000005    2    1    2  501    0 -0.18143762536E+02 -0.31304300428E+02 -0.64183258305E+03  0.64285926662E+03  0.31331568227E+01 0.  0.
         13    1    3    3    0    0 -0.49063659808E+01 -0.78828647540E+01 -0.14209809407E+03  0.14240112472E+03  0.00000000000E+00 0.  1.
          1    1    3    3  501    0 -0.13237396555E+02 -0.23421435674E+02 -0.49973448897E+03  0.50045814189E+03  0.00000000000E+00 0.  1.
         -1    1    1    2    0  502  0.18143762536E+02  0.31304300428E+02 -0.35673897631E+03  0.35856917403E+03  0.00000000000E+00 0. -1.
<mgrwt>
<rscale>  1 0.30000000E+03</rscale>
<asrwt>0</asrwt>
<pdfrwt beam="1">  1       21 0.51943406E-02 0.30000000E+03</pdfrwt>
<pdfrwt beam="2">0</pdfrwt>
<totfact> 0.26990044E+04</totfact>
</mgrwt>
</event>
<event>
 6    1  0.1274196E-001  0.3000000E+03  0.7818608E-02  0.1093470E+00
         21   -1    0    0  501  502  0.00000000000E+00  0.00000000000E+00  0.12787753813E+01  0.12787753813E+01  0.00000000000E+00 0. -1.
         13   -1    0    0    0    0 -0.00000000000E+00 -0.00000000000E+00 -0.10000000000E+04  0.10000000000E+04  0.00000000000E+00 0.  1.
    9000005    2    1    2  501    0 -0.25036283329E+02  0.25011841952E+02 -0.43522186170E+03  0.43666922912E+03  0.30885331532E+01 0.  0.
         13    1    3    3    0    0 -0.22518024342E+02  0.21960995725E+02 -0.39658530899E+03  0.39783068517E+03  0.00000000000E+00 0.  1.
          1    1    3    3  501    0 -0.25182589864E+01  0.30508462266E+01 -0.38636552704E+02  0.38838543947E+02  0.00000000000E+00 0.  1.
         -1    1    1    2    0  502  0.25036283329E+02 -0.25011841952E+02 -0.56349936292E+03  0.56460954626E+03  0.00000000000E+00 0. -1.
<mgrwt>
<rscale>  1 0.30000000E+03</rscale>
<asrwt>0</asrwt>
<pdfrwt beam="1">  1       21 0.46501021E-02 0.30000000E+03</pdfrwt>
<pdfrwt beam="2">0</pdfrwt>
<totfact> 0.32590307E+04</totfact>
</mgrwt>
</event>
<event>
 6    1  0.1274196E-001  0.3000000E+03  0.7818608E-02  0.1093470E+00
         21   -1    0    0  501  502  0.00000000000E+00  0.00000000000E+00  0.30893046704E+01  0.30893046704E+01  0.00000000000E+00 0. -1.
         13   -1    0    0    0    0 -0.00000000000E+00 -0.00000000000E+00 -0.10000000000E+04  0.10000000000E+04  0.00000000000E+00 0.  1.
    9000005    2    1    2  501    0 -0.16080140451E+02 -0.30306100006E+02 -0.89290956584E+03  0.89357553590E+03  0.35658073528E+01 0.  0.
         13    1    3    3    0    0 -0.93694665476E+01 -0.20349781272E+02 -0.61020256147E+03  0.61061368026E+03  0.00000000000E+00 0.  1.
          1    1    3    3  501    0 -0.67106739032E+01 -0.99563187338E+01 -0.28270700437E+03  0.28296185564E+03  0.00000000000E+00 0.  1.
         -3    1    1    2    0  502  0.16080140451E+02  0.30306100006E+02 -0.10400112949E+03  0.10951376877E+03  0.00000000000E+00 0. -1.
<mgrwt>
<rscale>  1 0.30000000E+03</rscale>
<asrwt>0</asrwt>
<pdfrwt beam="1">  1       21 0.11233859E-01 0.30000000E+03</pdfrwt>
<pdfrwt beam="2">0</pdfrwt>
<totfact> 0.69824300E+03</totfact>
</mgrwt>
</event>
<event>
 6    1  0.1274196E-001  0.3000000E+03  0.7818608E-02  0.1093470E+00
         21   -1    0    0  501  502  0.00000000000E+00  0.00000000000E+00  0.14183583783E+02  0.14183583783E+02  0.00000000000E+00 0. -1.
         13   -1    0    0    0    0 -0.00000000000E+00 -0.00000000000E+00 -0.10000000000E+04  0.10000000000E+04  0.00000000000E+00 0.  1.
    9000005    2    1    2  501    0  0.65998727609E+02 -0.88699284790E+02 -0.68087084477E+03  0.68981466309E+03  0.59805503915E+01 0.  0.
         13    1    3    3    0    0  0.36807561309E+02 -0.54382408331E+02 -0.40477182219E+03  0.41006398397E+03  0.00000000000E+00 0.  1.
          3    1    3    3  501    0  0.29191166299E+02 -0.34316876459E+02 -0.27609902258E+03  0.27975067912E+03  0.00000000000E+00 0.  1.
         -3    1    1    2    0  502 -0.65998727609E+02  0.88699284790E+02 -0.30494557145E+03  0.32436892070E+03  0.00000000000E+00 0. -1.
<mgrwt>
<rscale>  1 0.30000000E+03</rscale>
<asrwt>0</asrwt>
<pdfrwt beam="1">  1       21 0.51576777E-01 0.30000000E+03</pdfrwt>
<pdfrwt beam="2">0</pdfrwt>
<totfact> 0.35118677E+02</totfact>
</mgrwt>
</event>
<event>
 6    1  0.1274196E-001  0.3000000E+03  0.7818608E-02  0.1093470E+00
         21   -1    0    0  501  502  0.00000000000E+00  0.00000000000E+00  0.16017023581E+01  0.16017023581E+01  0.00000000000E+00 0. -1.
         13   -1    0    0    0    0 -0.00000000000E+00 -0.00000000000E+00 -0.10000000000E+04  0.10000000000E+04  0.00000000000E+00 0.  1.
    9000005    2    1    2  501    0  0.23708888848E+00  0.39889211554E+02 -0.47798061656E+03  0.47965748293E+03  0.38243582610E+01 0.  0.
         13    1    3    3    0    0  0.16874275035E+01  0.31354786624E+02 -0.36901741197E+03  0.37035094221E+03  0.00000000000E+00 0.  1.
          3    1    3    3  501    0 -0.14503386150E+01  0.85344249305E+01 -0.10896320459E+03  0.10930654073E+03  0.00000000000E+00 0.  1.
         -1    1    1    2    0  502 -0.23708888848E+00 -0.39889211554E+02 -0.52041768108E+03  0.52194421942E+03  0.00000000000E+00 0. -1.
<mgrwt>
<rscale>  1 0.30000000E+03</rscale>
<asrwt>0</asrwt>
<pdfrwt beam="1">  1       21 0.58243845E-02 0.30000000E+03</pdfrwt>
<pdfrwt beam="2">0</pdfrwt>
<totfact> 0.22178718E+04</totfact>
</mgrwt>
</event>
<event>
 6    1  0.1274196E-001  0.3000000E+03  0.7818608E-02  0.1093470E+00
         21   -1    0    0  501  502  0.00000000000E+00  0.00000000000E+00  0.14625552582E+02  0.14625552582E+02  0.00000000000E+00 0. -1.
         13   -1    0    0    0    0 -0.00000000000E+00 -0.00000000000E+00 -0.10000000000E+04  0.10000000000E+04  0.00000000000E+00 0.  1.
    9000005    2    1    2  501    0 -0.76825991580E+02  0.37170052176E+01 -0.88408411838E+03  0.88744151323E+03  0.56268923600E+01 0.  0.
         13    1    3    3    0    0 -0.66670652711E+02  0.16071094931E+01 -0.75272128569E+03  0.75566983046E+03  0.00000000000E+00 0.  1.
          3    1    3    3  501    0 -0.10155338869E+02  0.21098957245E+01 -0.13136283269E+03  0.13177168277E+03  0.00000000000E+00 0.  1.
         -1    1    1    2    0  502  0.76825991580E+02 -0.37170052176E+01 -0.10129032904E+03  0.12718403935E+03  0.00000000000E+00 0. -1.
<mgrwt>
<rscale>  1 0.30000000E+03</rscale>
<asrwt>0</asrwt>
<pdfrwt beam="1">  1       21 0.53183940E-01 0.30000000E+03</pdfrwt>
<pdfrwt beam="2">0</pdfrwt>
<totfact> 0.32835150E+02</totfact>
</mgrwt>
</event>
<event>
 6    1  0.1274196E-001  0.3000000E+03  0.7818608E-02  0.1093470E+00
         21   -1    0    0  501  502  0.00000000000E+00  0.00000000000E+00  0.25475563401E+01  0.25475563401E+01  0.00000000000E+00 0. -1.
         13   -1    0    0    0    0 -0.00000000000E+00 -0.00000000000E+00 -0.10000000000E+04  0.10000000000E+04  0.00000000000E+00 0.  1.
    9000005    2    1    2  501    0  0.30322326225E+02  0.40220476894E+02 -0.52103248835E+03  0.52347229707E+03  0.33558384914E+01 0.  0.
         13    1    3    3    0    0  0.96671718182E+01  0.14680897646E+02 -0.16995772216E+03  0.17086430373E+03  0.00000000000E+00 0.  1.
          1    1    3    3  501    0  0.20655154407E+02  0.25539579248E+02 -0.35107476619E+03  0.35260799334E+03  0.00000000000E+00 0.  1.
         -3    1    1    2    0  502 -0.30322326225E+02 -0.40220476894E+02 -0.47641995531E+03  0.47907525927E+03  0.00000000000E+00 0. -1.
<mgrwt>
<rscale>  1 0.30000000E+03</rscale>
<asrwt>0</asrwt>
<pdfrwt beam="1">  1       21 0.92638608E-02 0.30000000E+03</pdfrwt>
<pdfrwt beam="2">0</pdfrwt>
<totfact> 0.98594691E+03</totfact>
</mgrwt>
</event>
<event>
 6    1  0.1274196E-001  0.3000000E+03  0.7818608E-02  0.1093470E+00
         21   -1    0    0  501  502  0.00000000000E+00  0.00000000000E+00  0.23907035527E+01  0.23907035527E+01  0.00000000000E+00 0. -1.
         13   -1    0    0    0    0 -0.00000000000E+00 -0.00000000000E+00 -0.10000000000E+04  0.10000000000E+04  0.00000000000E+00 0.  1.
    9000005    2    1    2  501    0  0.35957929961E+02  0.59106449607E+01 -0.83264861937E+03  0.83345304217E+03  0.35130778970E+01 0.  0.
         13    1    3    3    0    0  0.27652209569E+02  0.53162735674E+01 -0.61229869359E+03  0.61294583581E+03  0.00000000000E+00 0.  1.
          3    1    3    3  501    0  0.83057203914E+01  0.59437139328E+00 -0.22034992578E+03  0.22050720637E+03  0.00000000000E+00 0.  1.
         -3    1    1    2    0  502 -0.35957929961E+02 -0.59106449607E+01 -0.16496067708E+03  0.16893766138E+03  0.00000000000E+00 0. -1.
<mgrwt>
<rscale>  1 0.30000000E+03</rscale>
<asrwt>0</asrwt>
<pdfrwt beam="1">  1       21 0.86934858E-02 0.30000000E+03</pdfrwt>
<pdfrwt beam="2">0</pdfrwt>
<totfact> 0.11034127E+04</totfact>
</mgrwt>
</event>
<event>
 6    1  0.1274196E-001  0.3000000E+03  0.7818608E-02  0.1093470E+00
         21   -1    0    0  501  502  0.00000000000E+00  0.00000000000E+00  0.29197954255E+01  0.29197954255E+01  0.00000000000E+00 0. -1.
         13   -1    0    0    0    0 -0.00000000000E+00 -0.00000000000E+00 -0.10000000000E+04  0.10000000000E+04  0.00000000000E+00 0.  1.
    9000005    2    1    2  501    0  0.39370016678E+02 -0.15298437535E+02 -0.81098819568E+03  0.81209454505E+03  0.34141138508E+01 0.  0.
         13    1    3    3    0    0  0.86423567011E+00 -0.79135251800E+00 -0.30385089384E+02  0.30407676646E+02  0.00000000000E+00 0.  1.
          3    1    3    3  501    0  0.38505781007E+02 -0.14507085017E+02 -0.78060310629E+03  0.78168686841E+03  0.00000000000E+00 0.  1.
         -1    1    1    2    0  502 -0.39370016678E+02  0.15298437535E+02 -0.18609200890E+03  0.19082525037E+03  0.00000000000E+00 0. -1.
<mgrwt>
<rscale>  1 0.30000000E+03</rscale>
<asrwt>0</asrwt>
<pdfrwt beam="1">  1       21 0.10617460E-01 0.30000000E+03</pdfrwt>
<pdfrwt beam="2">0</pdfrwt>
<totfact> 0.77281471E+03</totfact>
</mgrwt>
</event>
<event>
 6    1  0.1274196E-001  0.3000000E+03  0.7818608E-02  0.1093470E+00
         21   -1    0    0  501  502  0.00000000000E+00  0.00000000000E+00  0.30814903955E+01  0.30814903955E+01  0.00000000000E+00 0. -1.
         13   -1    0    0    0    0 -0.00000000000E+00 -0.00000000000E+00 -0.10000000000E+04  0.10000000000E+04  0.00000000000E+00 0.  1.
    9000005    2    1    2  501    0  0.44955434855E+02 -0.12049813191E+02 -0.77153537494E+03  0.77294295274E+03  0.27900345239E+01 0.  0.
         13    1    3    3    0    0  0.31029291376E+02 -0.81177901543E+01 -0.50997872818E+03  0.51098631943E+03  0.00000000000E+00 0.  1.
          1    1    3    3  501    0  0.13926143479E+02 -0.39320230367E+01 -0.26155664675E+03  0.26195663331E+03  0.00000000000E+00 0.  1.
         -1    1    1    2    0  502 -0.44955434855E+02  0.12049813191E+02 -0.22538313467E+03  0.23013853766E+03  0.00000000000E+00 0. -1.
<mgrwt>
<rscale>  1 0.30000000E+03</rscale>
<asrwt>0</asrwt>
<pdfrwt beam="1">  1       21 0.11205443E-01 0.30000000E+03</pdfrwt>
<pdfrwt beam="2">0</pdfrwt>
<totfact> 0.70143749E+03</totfact>
</mgrwt>
</event>
<event>
 6    1  0.1274196E-001  0.3000000E+03  0.7818608E-02  0.1093470E+00
         21   -1    0    0  501  502  0.00000000000E+00  0.00000000000E+00  0.13370119957E+01  0.13370119957E+01  0.00000000000E+00 0. -1.
         13   -1    0    0    0    0 -0.00000000000E+00 -0.00000000000E+00 -0.10000000000E+04  0.10000000000E+04  0.00000000000E+00 0.  1.
    9000005    2    1    2  501    0  0.33583433821E+02 -0.14004620349E+02 -0.53924186589E+03  0.54047722435E+03  0.31406529237E+01 0.  0.
         13    1    3    3    0    0  0.27129849442E+02 -0.99447178871E+01 -0.42418570701E+03  0.42516871966E+03  0.00000000000E+00 0.  1.
          1    1    3    3  501    0  0.64535843796E+01 -0.40599024622E+01 -0.11505615887E+03  0.11530850469E+03  0.00000000000E+00 0.  1.
         -3    1    1    2    0  502 -0.33583433821E+02  0.14004620349E+02 -0.45942112212E+03  0.46085978764E+03  0.00000000000E+00 0. -1.
<mgrwt>
<rscale>  1 0.30000000E+03</rscale>
<asrwt>0</asrwt>
<pdfrwt beam="1">  1       21 0.48618721E-02 0.30000000E+03</pdfrwt>
<pdfrwt beam="2">0</pdfrwt>
<totfact> 0.30212694E+04</totfact>
</mgrwt>
</event>
<event>
 6    1  0.1274196E-001  0.3000000E+03  0.7818608E-02  0.1093470E+00
         21   -1    0    0  501  502  0.00000000000E+00  0.00000000000E+00  0.12128712392E+01  0.12128712392E+01  0.00000000000E+00 0. -1.
         13   -1    0    0    0    0 -0.00000000000E+00 -0.00000000000E+00 -0.10000000000E+04  0.10000000000E+04  0.00000000000E+00 0.  1.
    9000005    2    1    2  501    0  0.12943577802E+00  0.33804169550E+02 -0.38525104835E+03  0.38674622398E+03  0.33960083262E+01 0.  0.
         13    1    3    3    0    0 -0.12267536803E+01  0.27060447208E+02 -0.30389540907E+03  0.30510029888E+03  0.00000000000E+00 0.  1.
          3    1    3    3  501    0  0.13561894583E+01  0.67437223421E+01 -0.81355639285E+02  0.81645925093E+02  0.00000000000E+00 0.  1.
         -1    1    1    2    0  502 -0.12943577802E+00 -0.33804169550E+02 -0.61353608041E+03  0.61446664726E+03  0.00000000000E+00 0. -1.
<mgrwt>
<rscale>  1 0.30000000E+03</rscale>
<asrwt>0</asrwt>
<pdfrwt beam="1">  1       21 0.44104502E-02 0.30000000E+03</pdfrwt>
<pdfrwt beam="2">0</pdfrwt>
<totfact> 0.35652834E+04</totfact>
</mgrwt>
</event>
<event>
 6    1  0.1274196E-001  0.3000000E+03  0.7818608E-02  0.1093470E+00
         21   -1    0    0  501  502  0.00000000000E+00  0.00000000000E+00  0.18275671819E+01  0.18275671819E+01  0.00000000000E+00 0. -1.
         13   -1    0    0    0    0 -0.00000000000E+00 -0.00000000000E+00 -0.10000000000E+04  0.10000000000E+04  0.00000000000E+00 0.  1.
    9000005    2    1    2  501    0  0.22965801522E+02  0.27489557534E+02 -0.77180350569E+03  0.77264206375E+03  0.34646026586E+01 0.  0.
         13    1    3    3    0    0  0.15363462651E+01  0.33263999434E+01 -0.88126725692E+02  0.88202863205E+02  0.00000000000E+00 0.  1.
          3    1    3    3  501    0  0.21429455257E+02  0.24163157591E+02 -0.68367678000E+03  0.68443920055E+03  0.00000000000E+00 0.  1.
         -1    1    1    2    0  502 -0.22965801522E+02 -0.27489557534E+02 -0.22636892713E+03  0.22918550343E+03  0.00000000000E+00 0. -1.
<mgrwt>
<rscale>  1 0.30000000E+03</rscale>
<asrwt>0</asrwt>
<pdfrwt beam="1">  1       21 0.66457129E-02 0.30000000E+03</pdfrwt>
<pdfrwt beam="2">0</pdfrwt>
<totfact> 0.17658575E+04</totfact>
</mgrwt>
</event>
<event>
 6    1  0.1274196E-001  0.3000000E+03  0.7818608E-02  0.1093470E+00
         21   -1    0    0  501  502  0.00000000000E+00  0.00000000000E+00  0.98896436344E+00  0.98896436344E+00  0.00000000000E+00 0. -1.
         13   -1    0    0    0    0 -0.00000000000E+00 -0.00000000000E+00 -0.10000000000E+04  0.10000000000E+04  0.00000000000E+00 0.  1.
    9000005    2    1    2  501    0  0.80361483974E+01 -0.29263316394E+02 -0.62591343239E+03  0.62665923950E+03  0.36409116944E+01 0.  0.
         13    1    3    3    0    0  0.64721303176E+01 -0.20514951102E+02 -0.47118566453E+03  0.47167645919E+03  0.00000000000E+00 0.  1.
          3    1    3    3  501    0  0.15640180798E+01 -0.87483652920E+01 -0.15472776786E+03  0.15498278031E+03  0.00000000000E+00 0.  1.
         -1    1    1    2    0  502 -0.80361483974E+01  0.29263316394E+02 -0.37309760325E+03  0.37432972486E+03  0.00000000000E+00 0. -1.
<mgrwt>
<rscale>  1 0.30000000E+03</rscale>
<asrwt>0</asrwt>
<pdfrwt beam="1">  1       21 0.35962416E-02 0.30000000E+03</pdfrwt>
<pdfrwt beam="2">0</pdfrwt>
<totfact> 0.50278302E+04</totfact>
</mgrwt>
</event>
<event>
 6    1  0.1274196E-001  0.3000000E+03  0.7818608E-02  0.1093470E+00
         21   -1    0    0  501  502  0.00000000000E+00  0.00000000000E+00  0.32427466062E+01  0.32427466062E+01  0.00000000000E+00 0. -1.
         13   -1    0    0    0    0 -0.00000000000E+00 -0.00000000000E+00 -0.10000000000E+04  0.10000000000E+04  0.00000000000E+00 0.  1.
    9000005    2    1    2  501    0  0.92652474546E+01  0.55897126230E+02 -0.45136410246E+03  0.45491435721E+03  0.26806484472E+01 0.  0.
         13    1    3    3    0    0  0.82518207275E+01  0.43494029925E+02 -0.34895671352E+03  0.35175362272E+03  0.00000000000E+00 0.  1.
          3    1    3    3  501    0  0.10134267271E+01  0.12403096305E+02 -0.10240738894E+03  0.10316073450E+03  0.00000000000E+00 0.  1.
         -3    1    1    2    0  502 -0.92652474546E+01 -0.55897126230E+02 -0.54539315093E+03  0.54832838939E+03  0.00000000000E+00 0. -1.
<mgrwt>
<rscale>  1 0.30000000E+03</rscale>
<asrwt>0</asrwt>
<pdfrwt beam="1">  1       21 0.11791831E-01 0.30000000E+03</pdfrwt>
<pdfrwt beam="2">0</pdfrwt>
<totfact> 0.63968999E+03</totfact>
</mgrwt>
</event>
<event>
 6    1  0.1274196E-001  0.3000000E+03  0.7818608E-02  0.1093470E+00
         21   -1    0    0  501  502  0.00000000000E+00  0.00000000000E+00  0.45852527489E+01  0.45852527489E+01  0.00000000000E+00 0. -1.
         13   -1    0    0    0    0 -0.00000000000E+00 -0.00000000000E+00 -0.10000000000E+04  0.10000000000E+04  0.00000000000E+00 0.  1.
    9000005    2    1    2  501    0  0.29621082440E+02  0.30639784237E+02 -0.88793733215E+03  0.88896691658E+03  0.36425313224E+01 0.  0.
         13    1    3    3    0    0  0.88324321183E+01  0.11619529598E+02 -0.30360448476E+03  0.30395510934E+03  0.00000000000E+00 0.  1.
          3    1    3    3  501    0  0.20788650322E+02  0.19020254639E+02 -0.58433284739E+03  0.58501180723E+03  0.00000000000E+00 0.  1.
         -3    1    1    2    0  502 -0.29621082440E+02 -0.30639784237E+02 -0.10747741510E+03  0.11561833617E+03  0.00000000000E+00 0. -1.
<mgrwt>
<rscale>  1 0.30000000E+03</rscale>
<asrwt>0</asrwt>
<pdfrwt beam="1">  1       21 0.16673682E-01 0.30000000E+03</pdfrwt>
<pdfrwt beam="2">0</pdfrwt>
<totfact> 0.33819905E+03</totfact>
</mgrwt>
</event>
<event>
 6    1  0.1274196E-001  0.3000000E+03  0.7818608E-02  0.1093470E+00
         21   -1    0    0  501  502  0.00000000000E+00  0.00000000000E+00  0.24619514534E+01  0.24619514534E+01  0.00000000000E+00 0. -1.
         13   -1    0    0    0    0 -0.00000000000E+00 -0.00000000000E+00 -0.10000000000E+04  0.10000000000E+04  0.00000000000E+00 0.  1.
    9000005    2    1    2  501    0 -0.13644688614E+02  0.27435279488E+02 -0.89285534882E+03  0.89338702440E+03  0.32908016987E+01 0.  0.
         13    1    3    3    0    0 -0.12538825458E+02  0.22749965104E+02 -0.73924465931E+03  0.73970091887E+03  0.00000000000E+00 0.  1.
          1    1    3    3  501    0 -0.11058631553E+01  0.46853143845E+01 -0.15361068951E+03  0.15368610554E+03  0.00000000000E+00 0.  1.
         -3    1    1    2    0  502  0.13644688614E+02 -0.27435279488E+02 -0.10468269973E+03  0.10907492705E+03  0.00000000000E+00 0. -1.
<mgrwt>
<rscale>  1 0.30000000E+03</rscale>
<asrwt>0</asrwt>
<pdfrwt beam="1">  1       21 0.89525696E-02 0.30000000E+03</pdfrwt>
<pdfrwt beam="2">0</pdfrwt>
<totfact> 0.10475676E+04</totfact>
</mgrwt>
</event>
<event>
 6    1  0.1274196E-001  0.3000000E+03  0.7818608E-02  0.1093470E+00
         21   -1    0    0  501  502  0.00000000000E+00  0.00000000000E+00  0.31240445442E+01  0.31240445442E+01  0.00000000000E+00 0. -1.
         13   -1    0    0    0    0 -0.00000000000E+00 -0.00000000000E+00 -0.10000000000E+04  0.10000000000E+04  0.00000000000E+00 0.  1.
    9000005    2    1    2  501    0 -0.13601525450E+02 -0.54119191984E+02 -0.47931032758E+03  0.48255890203E+03  0.32886736248E+01 0.  0.
         13    1    3    3    0    0 -0.12085602672E+02 -0.46179819082E+02 -0.41857069941E+03  0.42128383293E+03  0.00000000000E+00 0.  1.
          3    1    3    3  501    0 -0.15159227780E+01 -0.79393729027E+01 -0.60739628166E+02  0.61275069104E+02  0.00000000000E+00 0.  1.
         -3    1    1    2    0  502  0.13601525450E+02  0.54119191984E+02 -0.51756562788E+03  0.52056514251E+03  0.00000000000E+00 0. -1.
<mgrwt>
<rscale>  1 0.30000000E+03</rscale>
<asrwt>0</asrwt>
<pdfrwt beam="1">  1       21 0.11360186E-01 0.30000000E+03</pdfrwt>
<pdfrwt beam="2">0</pdfrwt>
<totfact> 0.68430260E+03</totfact>
</mgrwt>
</event>
<event>
 6    1  0.1274196E-001  0.3000000E+03  0.7818608E-02  0.1093470E+00
         21   -1    0    0  501  502  0.00000000000E+00  0.00000000000E+00  0.35063869009E+01  0.35063869009E+01  0.00000000000E+00 0. -1.
         13   -1    0    0    0    0 -0.00000000000E+00 -0.00000000000E+00 -0.10000000000E+04  0.10000000000E+04  0.00000000000E+00 0.  1.
    9000005    2    1    2  501    0 -0.55685915973E+02 -0.16845056433E+02 -0.58990710176E+03  0.59277865669E+03  0.33867318115E+01 0.  0.
         13    1    3    3    0    0 -0.31441116259E+02 -0.86888724769E+01 -0.34564562478E+03  0.34718141976E+03  0.00000000000E+00 0.  1.
          3    1    3    3  501    0 -0.24244799714E+02 -0.81561839563E+01 -0.24426147699E+03  0.24559723694E+03  0.00000000000E+00 0.  1.
         -3    1    1    2    0  502  0.55685915973E+02  0.16845056433E+02 -0.40658651134E+03  0.41072773021E+03  0.00000000000E+00 0. -1.
<mgrwt>
<rscale>  1 0.30000000E+03</rscale>
<asrwt>0</asrwt>
<pdfrwt beam="1">  1       21 0.12750525E-01 0.30000000E+03</pdfrwt>
<pdfrwt beam="2">0</pdfrwt>
<totfact> 0.55493255E+03</totfact>
</mgrwt>
</event>
<event>
 6    1  0.1274196E-001  0.3000000E+03  0.7818608E-02  0.1093470E+00
         21   -1    0    0  501  502  0.00000000000E+00  0.00000000000E+00  0.63559163855E+01  0.63559163855E+01  0.00000000000E+00 0. -1.
         13   -1    0    0    0    0 -0.00000000000E+00 -0.00000000000E+00 -0.10000000000E+04  0.10000000000E+04  0.00000000000E+00 0.  1.
    9000005    2    1    2  501    0 -0.25967572185E+02 -0.69387746656E+02 -0.68230336577E+03  0.68632151702E+03  0.32198739860E+01 0.  0.
         13    1    3    3    0    0 -0.58313535731E+01 -0.18425470600E+02 -0.18733254157E+03  0.18832680049E+03  0.00000000000E+00 0.  1.
          1    1    3    3  501    0 -0.20136218612E+02 -0.50962276056E+02 -0.49497082420E+03  0.49799471653E+03  0.00000000000E+00 0.  1.
         -3    1    1    2    0  502  0.25967572185E+02  0.69387746656E+02 -0.31134071785E+03  0.32003439937E+03  0.00000000000E+00 0. -1.
<mgrwt>
<rscale>  1 0.30000000E+03</rscale>
<asrwt>0</asrwt>
<pdfrwt beam="1">  1       21 0.23112472E-01 0.30000000E+03</pdfrwt>
<pdfrwt beam="2">0</pdfrwt>
<totfact> 0.18170408E+03</totfact>
</mgrwt>
</event>
<event>
 6    1  0.1274196E-001  0.3000000E+03  0.7818608E-02  0.1093470E+00
         21   -1    0    0  501  502  0.00000000000E+00  0.00000000000E+00  0.23655200696E+01  0.23655200696E+01  0.00000000000E+00 0. -1.
         13   -1    0    0    0    0 -0.00000000000E+00 -0.00000000000E+00 -0.10000000000E+04  0.10000000000E+04  0.00000000000E+00 0.  1.
    9000005    2    1    2  501    0 -0.47559704182E+02 -0.22829473698E+01 -0.59894682563E+03  0.60084468250E+03  0.31456710629E+01 0.  0.
         13    1    3    3    0    0 -0.34243164826E+02 -0.23459147494E+01 -0.44652437286E+03  0.44784161621E+03  0.00000000000E+00 0.  1.
          3    1    3    3  501    0 -0.13316539356E+02  0.62967379637E-01 -0.15242245277E+03  0.15300306629E+03  0.00000000000E+00 0.  1.
         -3    1    1    2    0  502  0.47559704182E+02  0.22829473698E+01 -0.39868765430E+03  0.40152083757E+03  0.00000000000E+00 0. -1.
<mgrwt>
<rscale>  1 0.30000000E+03</rscale>
<asrwt>0</asrwt>
<pdfrwt beam="1">  1       21 0.86019093E-02 0.30000000E+03</pdfrwt>
<pdfrwt beam="2">0</pdfrwt>
<totfact> 0.11242385E+04</totfact>
</mgrwt>
</event>
<event>
 6    1  0.1274196E-001  0.3000000E+03  0.7818608E-02  0.1093470E+00
         21   -1    0    0  501  502  0.00000000000E+00  0.00000000000E+00  0.16945863236E+01  0.16945863236E+01  0.00000000000E+00 0. -1.
         13   -1    0    0    0    0 -0.00000000000E+00 -0.00000000000E+00 -0.10000000000E+04  0.10000000000E+04  0.00000000000E+00 0.  1.
    9000005    2    1    2  501    0  0.19453426233E+01 -0.30040155466E+02 -0.84027012140E+03  0.84081777350E+03  0.38021077386E+01 0.  0.
         13    1    3    3    0    0  0.17372133379E+01 -0.51783546695E+01 -0.14065612227E+03  0.14076213269E+03  0.00000000000E+00 0.  1.
          1    1    3    3  501    0  0.20812928533E+00 -0.24861800796E+02 -0.69961399913E+03  0.70005564081E+03  0.00000000000E+00 0.  1.
         -1    1    1    2    0  502 -0.19453426233E+01  0.30040155466E+02 -0.15803529228E+03  0.16087681282E+03  0.00000000000E+00 0. -1.
<mgrwt>
<rscale>  1 0.30000000E+03</rscale>
<asrwt>0</asrwt>
<pdfrwt beam="1">  1       21 0.61621451E-02 0.30000000E+03</pdfrwt>
<pdfrwt beam="2">0</pdfrwt>
<totfact> 0.20124046E+04</totfact>
</mgrwt>
</event>
<event>
 6    1  0.1274196E-001  0.3000000E+03  0.7818608E-02  0.1093470E+00
         21   -1    0    0  501  502  0.00000000000E+00  0.00000000000E+00  0.22826804236E+01  0.22826804236E+01  0.00000000000E+00 0. -1.
         13   -1    0    0    0    0 -0.00000000000E+00 -0.00000000000E+00 -0.10000000000E+04  0.10000000000E+04  0.00000000000E+00 0.  1.
    9000005    2    1    2  501    0 -0.17332244566E+02 -0.32580695155E+02 -0.81679919916E+03  0.81763903798E+03  0.32796780570E+01 0.  0.
         13    1    3    3    0    0 -0.99851639004E+01 -0.17023727479E+02 -0.46746255616E+03  0.46787899313E+03  0.00000000000E+00 0.  1.
          1    1    3    3  501    0 -0.73470806660E+01 -0.15556967676E+02 -0.34933664300E+03  0.34976004486E+03  0.00000000000E+00 0.  1.
         -1    1    1    2    0  502  0.17332244566E+02  0.32580695155E+02 -0.18091812042E+03  0.18464364244E+03  0.00000000000E+00 0. -1.
<mgrwt>
<rscale>  1 0.30000000E+03</rscale>
<asrwt>0</asrwt>
<pdfrwt beam="1">  1       21 0.83006736E-02 0.30000000E+03</pdfrwt>
<pdfrwt beam="2">0</pdfrwt>
<totfact> 0.11971455E+04</totfact>
</mgrwt>
</event>
<event>
 6    1  0.1274196E-001  0.3000000E+03  0.7818608E-02  0.1093470E+00
         21   -1    0    0  501  502  0.00000000000E+00  0.00000000000E+00  0.16934715451E+01  0.16934715451E+01  0.00000000000E+00 0. -1.
         13   -1    0    0    0    0 -0.00000000000E+00 -0.00000000000E+00 -0.10000000000E+04  0.10000000000E+04  0.00000000000E+00 0.  1.
    9000005    2    1    2  501    0  0.38731690713E+02 -0.13556827193E+02 -0.52430500609E+03  0.52591897178E+03  0.33307703136E+01 0.  0.
         13    1    3    3    0    0  0.86187996948E+01 -0.32842167249E+01 -0.13623374483E+03  0.13654560783E+03  0.00000000000E+00 0.  1.
          3    1    3    3  501    0  0.30112891018E+02 -0.10272610469E+02 -0.38807126126E+03  0.38937336394E+03  0.00000000000E+00 0.  1.
         -3    1    1    2    0  502 -0.38731690713E+02  0.13556827193E+02 -0.47400152236E+03  0.47577449977E+03  0.00000000000E+00 0. -1.
<mgrwt>
<rscale>  1 0.30000000E+03</rscale>
<asrwt>0</asrwt>
<pdfrwt beam="1">  1       21 0.61580913E-02 0.30000000E+03</pdfrwt>
<pdfrwt beam="2">0</pdfrwt>
<totfact> 0.20146924E+04</totfact>
</mgrwt>
</event>
<event>
 6    1  0.1274196E-001  0.3000000E+03  0.7818608E-02  0.1093470E+00
         21   -1    0    0  501  502  0.00000000000E+00  0.00000000000E+00  0.27075013918E+01  0.27075013918E+01  0.00000000000E+00 0. -1.
         13   -1    0    0    0    0 -0.00000000000E+00 -0.00000000000E+00 -0.10000000000E+04  0.10000000000E+04  0.00000000000E+00 0.  1.
    9000005    2    1    2  501    0  0.33011443061E+02  0.97499104016E+01 -0.87444555893E+03  0.87512934216E+03  0.33932054839E+01 0.  0.
         13    1    3    3    0    0  0.26715784711E+02  0.89195242586E+01 -0.69045156448E+03  0.69102579833E+03  0.00000000000E+00 0.  1.
          3    1    3    3  501    0  0.62956583493E+01  0.83038614292E+00 -0.18399399446E+03  0.18410354383E+03  0.00000000000E+00 0.  1.
         -3    1    1    2    0  502 -0.33011443061E+02 -0.97499104016E+01 -0.12284693967E+03  0.12757815923E+03  0.00000000000E+00 0. -1.
<mgrwt>
<rscale>  1 0.30000000E+03</rscale>
<asrwt>0</asrwt>
<pdfrwt beam="1">  1       21 0.98454804E-02 0.30000000E+03</pdfrwt>
<pdfrwt beam="2">0</pdfrwt>
<totfact> 0.88458373E+03</totfact>
</mgrwt>
</event>
<event>
 6    1  0.1274196E-001  0.3000000E+03  0.7818608E-02  0.1093470E+00
         21   -1    0    0  501  502  0.00000000000E+00  0.00000000000E+00  0.54555835451E+01  0.54555835451E+01  0.00000000000E+00 0. -1.
         13   -1    0    0    0    0 -0.00000000000E+00 -0.00000000000E+00 -0.10000000000E+04  0.10000000000E+04  0.00000000000E+00 0.  1.
    9000005    2    1    2  501    0 -0.55448708781E+01 -0.73256730878E+02 -0.44860000535E+03  0.45459026949E+03  0.36130462670E+01 0.  0.
         13    1    3    3    0    0 -0.19157415380E+00 -0.15952332240E+02 -0.10427376208E+03  0.10548711326E+03  0.00000000000E+00 0.  1.
          3    1    3    3  501    0 -0.53532967243E+01 -0.57304398638E+02 -0.34432624327E+03  0.34910315624E+03  0.00000000000E+00 0.  1.
         -3    1    1    2    0  502  0.55448708781E+01  0.73256730878E+02 -0.54594441110E+03  0.55086531405E+03  0.00000000000E+00 0. -1.
<mgrwt>
<rscale>  1 0.30000000E+03</rscale>
<asrwt>0</asrwt>
<pdfrwt beam="1">  1       21 0.19838527E-01 0.30000000E+03</pdfrwt>
<pdfrwt beam="2">0</pdfrwt>
<totfact> 0.24366163E+03</totfact>
</mgrwt>
</event>
<event>
 6    1  0.1274196E-001  0.3000000E+03  0.7818608E-02  0.1093470E+00
         21   -1    0    0  501  502  0.00000000000E+00  0.00000000000E+00  0.11022170179E+01  0.11022170179E+01  0.00000000000E+00 0. -1.
         13   -1    0    0    0    0 -0.00000000000E+00 -0.00000000000E+00 -0.10000000000E+04  0.10000000000E+04  0.00000000000E+00 0.  1.
    9000005    2    1    2  501    0  0.25240189528E+02  0.19259500303E+02 -0.64060400949E+03  0.64140453334E+03  0.42758503777E+01 0.  0.
         13    1    3    3    0    0  0.12639347724E+01  0.17253684362E+01 -0.28444318031E+02  0.28524614907E+02  0.00000000000E+00 0.  1.
          3    1    3    3  501    0  0.23976254755E+02  0.17534131866E+02 -0.61215969146E+03  0.61287991844E+03  0.00000000000E+00 0.  1.
         -3    1    1    2    0  502 -0.25240189528E+02 -0.19259500303E+02 -0.35829377349E+03  0.35969768367E+03  0.00000000000E+00 0. -1.
<mgrwt>
<rscale>  1 0.30000000E+03</rscale>
<asrwt>0</asrwt>
<pdfrwt beam="1">  1       21 0.40080703E-02 0.30000000E+03</pdfrwt>
<pdfrwt beam="2">0</pdfrwt>
<totfact> 0.41904839E+04</totfact>
</mgrwt>
</event>
<event>
 6    1  0.1274196E-001  0.3000000E+03  0.7818608E-02  0.1093470E+00
         21   -1    0    0  501  502  0.00000000000E+00  0.00000000000E+00  0.20133500958E+01  0.20133500958E+01  0.00000000000E+00 0. -1.
         13   -1    0    0    0    0 -0.00000000000E+00 -0.00000000000E+00 -0.10000000000E+04  0.10000000000E+04  0.00000000000E+00 0.  1.
    9000005    2    1    2  501    0  0.41036233527E+02  0.18334532175E+00 -0.70058713988E+03  0.70179597112E+03  0.33523774853E+01 0.  0.
         13    1    3    3    0    0  0.22524114254E+02  0.14249900672E+01 -0.40170347299E+03  0.40233698131E+03  0.00000000000E+00 0.  1.
          1    1    3    3  501    0  0.18512119273E+02 -0.12416447454E+01 -0.29888366689E+03  0.29945898981E+03  0.00000000000E+00 0.  1.
         -3    1    1    2    0  502 -0.41036233527E+02 -0.18334532175E+00 -0.29739951002E+03  0.30021737898E+03  0.00000000000E+00 0. -1.
<mgrwt>
<rscale>  1 0.30000000E+03</rscale>
<asrwt>0</asrwt>
<pdfrwt beam="1">  1       21 0.73212885E-02 0.30000000E+03</pdfrwt>
<pdfrwt beam="2">0</pdfrwt>
<totfact> 0.14920832E+04</totfact>
</mgrwt>
</event>
<event>
 6    1  0.1274196E-001  0.3000000E+03  0.7818608E-02  0.1093470E+00
         21   -1    0    0  501  502  0.00000000000E+00  0.00000000000E+00  0.13388511380E+01  0.13388511380E+01  0.00000000000E+00 0. -1.
         13   -1    0    0    0    0 -0.00000000000E+00 -0.00000000000E+00 -0.10000000000E+04  0.10000000000E+04  0.00000000000E+00 0.  1.
    9000005    2    1    2  501    0 -0.15014777908E+02  0.32466707524E+02 -0.55767460070E+03  0.55890392223E+03  0.96490088293E+01 0.  0.
         13    1    3    3    0    0 -0.55822368678E+01  0.43666357057E+01 -0.13968030898E+03  0.13985999282E+03  0.00000000000E+00 0.  1.
          3    1    3    3  501    0 -0.94325410397E+01  0.28100071818E+02 -0.41799429171E+03  0.41904392941E+03  0.00000000000E+00 0.  1.
         -3    1    1    2    0  502  0.15014777908E+02 -0.32466707524E+02 -0.44098654817E+03  0.44243492891E+03  0.00000000000E+00 0. -1.
<mgrwt>
<rscale>  1 0.30000000E+03</rscale>
<asrwt>0</asrwt>
<pdfrwt beam="1">  1       21 0.48685599E-02 0.30000000E+03</pdfrwt>
<pdfrwt beam="2">0</pdfrwt>
<totfact> 0.30142068E+04</totfact>
</mgrwt>
</event>
<event>
 6    1  0.1274196E-001  0.3000000E+03  0.7818608E-02  0.1093470E+00
         21   -1    0    0  501  502  0.00000000000E+00  0.00000000000E+00  0.42437875214E+01  0.42437875214E+01  0.00000000000E+00 0. -1.
         13   -1    0    0    0    0 -0.00000000000E+00 -0.00000000000E+00 -0.10000000000E+04  0.10000000000E+04  0.00000000000E+00 0.  1.
    9000005    2    1    2  501    0 -0.58991005235E+02 -0.23428712633E+02 -0.61004173211E+03  0.61334162119E+03  0.28611357023E+01 0.  0.
         13    1    3    3    0    0 -0.63544616388E+01 -0.31556429816E+01 -0.75038701361E+02  0.75373363778E+02  0.00000000000E+00 0.  1.
          1    1    3    3  501    0 -0.52636543596E+02 -0.20273069652E+02 -0.53500303075E+03  0.53796825741E+03  0.00000000000E+00 0.  1.
         -3    1    1    2    0  502  0.58991005235E+02  0.23428712633E+02 -0.38571448037E+03  0.39090216633E+03  0.00000000000E+00 0. -1.
<mgrwt>
<rscale>  1 0.30000000E+03</rscale>
<asrwt>0</asrwt>
<pdfrwt beam="1">  1       21 0.15431987E-01 0.30000000E+03</pdfrwt>
<pdfrwt beam="2">0</pdfrwt>
<totfact> 0.39068565E+03</totfact>
</mgrwt>
</event>
<event>
 6    1  0.1274196E-001  0.3000000E+03  0.7818608E-02  0.1093470E+00
         21   -1    0    0  501  502  0.00000000000E+00  0.00000000000E+00  0.29282750538E+01  0.29282750538E+01  0.00000000000E+00 0. -1.
         13   -1    0    0    0    0 -0.00000000000E+00 -0.00000000000E+00 -0.10000000000E+04  0.10000000000E+04  0.00000000000E+00 0.  1.
    9000005    2    1    2  501    0  0.52335619150E+02 -0.57298844336E+01 -0.61303137071E+03  0.61529592051E+03  0.31240541293E+01 0.  0.
         13    1    3    3    0    0  0.44547762526E+02 -0.56395837363E+01 -0.53146023066E+03  0.53335380830E+03  0.00000000000E+00 0.  1.
          1    1    3    3  501    0  0.77878566237E+01 -0.90300697324E-01 -0.81571140045E+02  0.81942112209E+02  0.00000000000E+00 0.  1.
         -1    1    1    2    0  502 -0.52335619150E+02  0.57298844336E+01 -0.38404035424E+03  0.38763235455E+03  0.00000000000E+00 0. -1.
<mgrwt>
<rscale>  1 0.30000000E+03</rscale>
<asrwt>0</asrwt>
<pdfrwt beam="1">  1       21 0.10648295E-01 0.30000000E+03</pdfrwt>
<pdfrwt beam="2">0</pdfrwt>
<totfact> 0.76880404E+03</totfact>
</mgrwt>
</event>
<event>
 6    1  0.1274196E-001  0.3000000E+03  0.7818608E-02  0.1093470E+00
         21   -1    0    0  501  502  0.00000000000E+00  0.00000000000E+00  0.68468885244E+01  0.68468885244E+01  0.00000000000E+00 0. -1.
         13   -1    0    0    0    0 -0.00000000000E+00 -0.00000000000E+00 -0.10000000000E+04  0.10000000000E+04  0.00000000000E+00 0.  1.
    9000005    2    1    2  501    0  0.34101938318E+02 -0.11407353361E+02 -0.94993468508E+03  0.95062498632E+03  0.43461225591E+01 0.  0.
         13    1    3    3    0    0  0.70124474746E+01 -0.15286213826E+01 -0.15171387897E+03  0.15188354807E+03  0.00000000000E+00 0.  1.
          3    1    3    3  501    0  0.27089490844E+02 -0.98787319784E+01 -0.79822080611E+03  0.79874143825E+03  0.00000000000E+00 0.  1.
         -3    1    1    2    0  502 -0.34101938318E+02  0.11407353361E+02 -0.43218426391E+02  0.56221902205E+02  0.00000000000E+00 0. -1.
<mgrwt>
<rscale>  1 0.30000000E+03</rscale>
<asrwt>0</asrwt>
<pdfrwt beam="1">  1       21 0.24897829E-01 0.30000000E+03</pdfrwt>
<pdfrwt beam="2">0</pdfrwt>
<totfact> 0.15721449E+03</totfact>
</mgrwt>
</event>
<event>
 6    1  0.1274196E-001  0.3000000E+03  0.7818608E-02  0.1093470E+00
         21   -1    0    0  501  502  0.00000000000E+00  0.00000000000E+00  0.12013802686E+01  0.12013802686E+01  0.00000000000E+00 0. -1.
         13   -1    0    0    0    0 -0.00000000000E+00 -0.00000000000E+00 -0.10000000000E+04  0.10000000000E+04  0.00000000000E+00 0.  1.
    9000005    2    1    2  501    0 -0.27595745737E+02 -0.13844444110E+02 -0.27600618194E+03  0.27774986016E+03  0.35183143195E+01 0.  0.
         13    1    3    3    0    0 -0.87095516796E+01 -0.42334732337E+01 -0.10179077902E+03  0.10225038523E+03  0.00000000000E+00 0.  1.
          3    1    3    3  501    0 -0.18886194057E+02 -0.96109708759E+01 -0.17421540292E+03  0.17549947493E+03  0.00000000000E+00 0.  1.
         -3    1    1    2    0  502  0.27595745737E+02  0.13844444110E+02 -0.72279243779E+03  0.72345152010E+03  0.00000000000E+00 0. -1.
<mgrwt>
<rscale>  1 0.30000000E+03</rscale>
<asrwt>0</asrwt>
<pdfrwt beam="1">  1       21 0.43686647E-02 0.30000000E+03</pdfrwt>
<pdfrwt beam="2">0</pdfrwt>
<totfact> 0.36232310E+04</totfact>
</mgrwt>
</event>
<event>
 6    1  0.1274196E-001  0.3000000E+03  0.7818608E-02  0.1093470E+00
         21   -1    0    0  501  502  0.00000000000E+00  0.00000000000E+00  0.24290303114E+01  0.24290303114E+01  0.00000000000E+00 0. -1.
         13   -1    0    0    0    0 -0.00000000000E+00 -0.00000000000E+00 -0.10000000000E+04  0.10000000000E+04  0.00000000000E+00 0.  1.
    9000005    2    1    2  501    0 -0.18189868839E+01 -0.43737280794E+02 -0.72807152632E+03  0.72939751488E+03  0.40408942252E+01 0.  0.
         13    1    3    3    0    0  0.11647376190E+01 -0.64252702711E+01 -0.10869196782E+03  0.10888794507E+03  0.00000000000E+00 0.  1.
          1    1    3    3  501    0 -0.29837245030E+01 -0.37312010523E+02 -0.61937955850E+03  0.62050956981E+03  0.00000000000E+00 0.  1.
         -1    1    1    2    0  502  0.18189868839E+01  0.43737280794E+02 -0.26949944337E+03  0.27303151543E+03  0.00000000000E+00 0. -1.
<mgrwt>
<rscale>  1 0.30000000E+03</rscale>
<asrwt>0</asrwt>
<pdfrwt beam="1">  1       21 0.88328561E-02 0.30000000E+03</pdfrwt>
<pdfrwt beam="2">0</pdfrwt>
<totfact> 0.10728254E+04</totfact>
</mgrwt>
</event>
<event>
 6    1  0.1274196E-001  0.3000000E+03  0.7818608E-02  0.1093470E+00
         21   -1    0    0  501  502  0.00000000000E+00  0.00000000000E+00  0.28075651874E+01  0.28075651874E+01  0.00000000000E+00 0. -1.
         13   -1    0    0    0    0 -0.00000000000E+00 -0.00000000000E+00 -0.10000000000E+04  0.10000000000E+04  0.00000000000E+00 0.  1.
    9000005    2    1    2  501    0  0.11691686496E+02  0.40400037626E+02 -0.80314830086E+03  0.80425786235E+03  0.38285000597E+01 0.  0.
         13    1    3    3    0    0  0.76442803263E+01  0.32051853170E+02 -0.62250647616E+03  0.62337795050E+03  0.00000000000E+00 0.  1.
          1    1    3    3  501    0  0.40474061699E+01  0.83481844564E+01 -0.18064182470E+03  0.18087991185E+03  0.00000000000E+00 0.  1.
         -3    1    1    2    0  502 -0.11691686496E+02 -0.40400037626E+02 -0.19404413395E+03  0.19854970283E+03  0.00000000000E+00 0. -1.
<mgrwt>
<rscale>  1 0.30000000E+03</rscale>
<asrwt>0</asrwt>
<pdfrwt beam="1">  1       21 0.10209349E-01 0.30000000E+03</pdfrwt>
<pdfrwt beam="2">0</pdfrwt>
<totfact> 0.82903265E+03</totfact>
</mgrwt>
</event>
<event>
 6    1  0.1274196E-001  0.3000000E+03  0.7818608E-02  0.1093470E+00
         21   -1    0    0  501  502  0.00000000000E+00  0.00000000000E+00  0.14922117420E+01  0.14922117420E+01  0.00000000000E+00 0. -1.
         13   -1    0    0    0    0 -0.00000000000E+00 -0.00000000000E+00 -0.10000000000E+04  0.10000000000E+04  0.00000000000E+00 0.  1.
    9000005    2    1    2  501    0 -0.30194209456E+02  0.19469894391E+02 -0.68158786222E+03  0.68254236209E+03  0.33608111098E+01 0.  0.
         13    1    3    3    0    0 -0.14010859145E+02  0.76225128474E+01 -0.32430637988E+03  0.32469837528E+03  0.00000000000E+00 0.  1.
          3    1    3    3  501    0 -0.16183350311E+02  0.11847381544E+02 -0.35728148234E+03  0.35784398681E+03  0.00000000000E+00 0.  1.
         -3    1    1    2    0  502  0.30194209456E+02 -0.19469894391E+02 -0.31691992604E+03  0.31894984965E+03  0.00000000000E+00 0. -1.
<mgrwt>
<rscale>  1 0.30000000E+03</rscale>
<asrwt>0</asrwt>
<pdfrwt beam="1">  1       21 0.54262360E-02 0.30000000E+03</pdfrwt>
<pdfrwt beam="2">0</pdfrwt>
<totfact> 0.25047106E+04</totfact>
</mgrwt>
</event>
<event>
 6    1  0.1274196E-001  0.3000000E+03  0.7818608E-02  0.1093470E+00
         21   -1    0    0  501  502  0.00000000000E+00  0.00000000000E+00  0.16825604656E+01  0.16825604656E+01  0.00000000000E+00 0. -1.
         13   -1    0    0    0    0 -0.00000000000E+00 -0.00000000000E+00 -0.10000000000E+04  0.10000000000E+04  0.00000000000E+00 0.  1.
    9000005    2    1    2  501    0 -0.18332056261E+02 -0.29168816637E+02 -0.22977566911E+03  0.23236901123E+03  0.34080954017E+01 0.  0.
         13    1    3    3    0    0 -0.12802511545E+02 -0.21423215540E+02 -0.17543280870E+03  0.17719912199E+03  0.00000000000E+00 0.  1.
          1    1    3    3  501    0 -0.55295447162E+01 -0.77456010968E+01 -0.54342860413E+02  0.55169889242E+02  0.00000000000E+00 0.  1.
         -1    1    1    2    0  502  0.18332056261E+02  0.29168816637E+02 -0.76854177042E+03  0.76931354923E+03  0.00000000000E+00 0. -1.
<mgrwt>
<rscale>  1 0.30000000E+03</rscale>
<asrwt>0</asrwt>
<pdfrwt beam="1">  1       21 0.61184146E-02 0.30000000E+03</pdfrwt>
<pdfrwt beam="2">0</pdfrwt>
<totfact> 0.20372993E+04</totfact>
</mgrwt>
</event>
<event>
 6    1  0.1274196E-001  0.3000000E+03  0.7818608E-02  0.1093470E+00
         21   -1    0    0  501  502  0.00000000000E+00  0.00000000000E+00  0.13274450378E+01  0.13274450378E+01  0.00000000000E+00 0. -1.
         13   -1    0    0    0    0 -0.00000000000E+00 -0.00000000000E+00 -0.10000000000E+04  0.10000000000E+04  0.00000000000E+00 0.  1.
    9000005    2    1    2  501    0  0.86426373652E+01  0.34748037849E+02 -0.41550681606E+03  0.41706346331E+03  0.37278574089E+01 0.  0.
         13    1    3    3    0    0  0.53485364024E+01  0.26517302522E+02 -0.32470790617E+03  0.32583277691E+03  0.00000000000E+00 0.  1.
          1    1    3    3  501    0  0.32941009628E+01  0.82307353268E+01 -0.90798909885E+02  0.91230686403E+02  0.00000000000E+00 0.  1.
         -3    1    1    2    0  502 -0.86426373652E+01 -0.34748037849E+02 -0.58316573890E+03  0.58426398173E+03  0.00000000000E+00 0. -1.
<mgrwt>
<rscale>  1 0.30000000E+03</rscale>
<asrwt>0</asrwt>
<pdfrwt beam="1">  1       21 0.48270830E-02 0.30000000E+03</pdfrwt>
<pdfrwt beam="2">0</pdfrwt>
<totfact> 0.30584288E+04</totfact>
</mgrwt>
</event>
<event>
 6    1  0.1274196E-001  0.3000000E+03  0.7818608E-02  0.1093470E+00
         21   -1    0    0  501  502  0.00000000000E+00  0.00000000000E+00  0.12266145900E+01  0.12266145900E+01  0.00000000000E+00 0. -1.
         13   -1    0    0    0    0 -0.00000000000E+00 -0.00000000000E+00 -0.10000000000E+04  0.10000000000E+04  0.00000000000E+00 0.  1.
    9000005    2    1    2  501    0  0.23792588410E+02 -0.21775577789E+02 -0.69254560160E+03  0.69330500341E+03  0.34863180841E+01 0.  0.
         13    1    3    3    0    0  0.47237680442E+01 -0.36917177523E+01 -0.10355797352E+03  0.10373136770E+03  0.00000000000E+00 0.  1.
          3    1    3    3  501    0  0.19068820366E+02 -0.18083860037E+02 -0.58898762807E+03  0.58957363571E+03  0.00000000000E+00 0.  1.
         -3    1    1    2    0  502 -0.23792588410E+02  0.21775577789E+02 -0.30622778381E+03  0.30792161118E+03  0.00000000000E+00 0. -1.
<mgrwt>
<rscale>  1 0.30000000E+03</rscale>
<asrwt>0</asrwt>
<pdfrwt beam="1">  1       21 0.44604261E-02 0.30000000E+03</pdfrwt>
<pdfrwt beam="2">0</pdfrwt>
<totfact> 0.34978386E+04</totfact>
</mgrwt>
</event>
<event>
 6    1  0.1274196E-001  0.3000000E+03  0.7818608E-02  0.1093470E+00
         21   -1    0    0  501  502  0.00000000000E+00  0.00000000000E+00  0.39701786433E+01  0.39701786433E+01  0.00000000000E+00 0. -1.
         13   -1    0    0    0    0 -0.00000000000E+00 -0.00000000000E+00 -0.10000000000E+04  0.10000000000E+04  0.00000000000E+00 0.  1.
    9000005    2    1    2  501    0 -0.20240040497E+02  0.36578692156E+02 -0.87343456960E+03  0.87444313238E+03  0.38967221751E+01 0.  0.
         13    1    3    3    0    0 -0.26017274983E+01  0.29917221230E+01 -0.67756612250E+02  0.67872512041E+02  0.00000000000E+00 0.  1.
          1    1    3    3  501    0 -0.17638312999E+02  0.33586970033E+02 -0.80567795735E+03  0.80657062034E+03  0.00000000000E+00 0.  1.
         -3    1    1    2    0  502  0.20240040497E+02 -0.36578692156E+02 -0.12259525176E+03  0.12952704626E+03  0.00000000000E+00 0. -1.
<mgrwt>
<rscale>  1 0.30000000E+03</rscale>
<asrwt>0</asrwt>
<pdfrwt beam="1">  1       21 0.14437044E-01 0.30000000E+03</pdfrwt>
<pdfrwt beam="2">0</pdfrwt>
<totfact> 0.44194844E+03</totfact>
</mgrwt>
</event>
<event>
 6    1  0.1274196E-001  0.3000000E+03  0.7818608E-02  0.1093470E+00
         21   -1    0    0  501  502  0.00000000000E+00  0.00000000000E+00  0.40556063387E+01  0.40556063387E+01  0.00000000000E+00 0. -1.
         13   -1    0    0    0    0 -0.00000000000E+00 -0.00000000000E+00 -0.10000000000E+04  0.10000000000E+04  0.00000000000E+00 0.  1.
    9000005    2    1    2  501    0  0.52686585468E+01 -0.52271096553E+02 -0.78140041694E+03  0.78317295821E+03  0.36393099308E+01 0.  0.
         13    1    3    3    0    0 -0.39911792957E+00 -0.52603947983E+01 -0.87357781439E+02  0.87516929943E+02  0.00000000000E+00 0.  1.
          1    1    3    3  501    0  0.56677764764E+01 -0.47010701755E+02 -0.69404263550E+03  0.69565602827E+03  0.00000000000E+00 0.  1.
         -1    1    1    2    0  502 -0.52686585468E+01  0.52271096553E+02 -0.21454397672E+03  0.22088264813E+03  0.00000000000E+00 0. -1.
<mgrwt>
<rscale>  1 0.30000000E+03</rscale>
<asrwt>0</asrwt>
<pdfrwt beam="1">  1       21 0.14747691E-01 0.30000000E+03</pdfrwt>
<pdfrwt beam="2">0</pdfrwt>
<totfact> 0.42492523E+03</totfact>
</mgrwt>
</event>
<event>
 6    1  0.1274196E-001  0.3000000E+03  0.7818608E-02  0.1093470E+00
         21   -1    0    0  501  502  0.00000000000E+00  0.00000000000E+00  0.43912444552E+01  0.43912444552E+01  0.00000000000E+00 0. -1.
         13   -1    0    0    0    0 -0.00000000000E+00 -0.00000000000E+00 -0.10000000000E+04  0.10000000000E+04  0.00000000000E+00 0.  1.
    9000005    2    1    2  501    0 -0.40886723169E+02  0.41137807508E+02 -0.73999851102E+03  0.74228317429E+03  0.47403785652E+01 0.  0.
         13    1    3    3    0    0 -0.27579312373E+02  0.24731985611E+02 -0.46071589808E+03  0.46220280000E+03  0.00000000000E+00 0.  1.
          1    1    3    3  501    0 -0.13307410796E+02  0.16405821897E+02 -0.27928261294E+03  0.28008037429E+03  0.00000000000E+00 0.  1.
         -1    1    1    2    0  502  0.40886723169E+02 -0.41137807508E+02 -0.25561024453E+03  0.26210807017E+03  0.00000000000E+00 0. -1.
<mgrwt>
<rscale>  1 0.30000000E+03</rscale>
<asrwt>0</asrwt>
<pdfrwt beam="1">  1       21 0.15968195E-01 0.30000000E+03</pdfrwt>
<pdfrwt beam="2">0</pdfrwt>
<totfact> 0.36662355E+03</totfact>
</mgrwt>
</event>
<event>
 6    1  0.1274196E-001  0.3000000E+03  0.7818608E-02  0.1093470E+00
         21   -1    0    0  501  502  0.00000000000E+00  0.00000000000E+00  0.20868281856E+01  0.20868281856E+01  0.00000000000E+00 0. -1.
         13   -1    0    0    0    0 -0.00000000000E+00 -0.00000000000E+00 -0.10000000000E+04  0.10000000000E+04  0.00000000000E+00 0.  1.
    9000005    2    1    2  501    0 -0.19955667690E+02  0.25121998818E+02 -0.85537017727E+03  0.85597779769E+03  0.32413708125E+01 0.  0.
         13    1    3    3    0    0 -0.11737456011E+02  0.12207297729E+02 -0.44239844880E+03  0.44272245651E+03  0.00000000000E+00 0.  1.
          1    1    3    3  501    0 -0.82182116793E+01  0.12914701089E+02 -0.41297172846E+03  0.41325534118E+03  0.00000000000E+00 0.  1.
         -1    1    1    2    0  502  0.19955667690E+02 -0.25121998818E+02 -0.14254299455E+03  0.14610903050E+03  0.00000000000E+00 0. -1.
<mgrwt>
<rscale>  1 0.30000000E+03</rscale>
<asrwt>0</asrwt>
<pdfrwt beam="1">  1       21 0.75884821E-02 0.30000000E+03</pdfrwt>
<pdfrwt beam="2">0</pdfrwt>
<totfact> 0.14013641E+04</totfact>
</mgrwt>
</event>
<event>
 6    1  0.1274196E-001  0.3000000E+03  0.7818608E-02  0.1093470E+00
         21   -1    0    0  501  502  0.00000000000E+00  0.00000000000E+00  0.27701769957E+01  0.27701769957E+01  0.00000000000E+00 0. -1.
         13   -1    0    0    0    0 -0.00000000000E+00 -0.00000000000E+00 -0.10000000000E+04  0.10000000000E+04  0.00000000000E+00 0.  1.
    9000005    2    1    2  501    0 -0.29391732021E+02 -0.20340975385E+02 -0.86615552941E+03  0.86690958804E+03  0.54040274977E+01 0.  0.
         13    1    3    3    0    0 -0.19275391051E+02 -0.10138730989E+02 -0.52766255137E+03  0.52811182782E+03  0.00000000000E+00 0.  1.
          1    1    3    3  501    0 -0.10116340970E+02 -0.10202244396E+02 -0.33849297804E+03  0.33879776022E+03  0.00000000000E+00 0.  1.
         -1    1    1    2    0  502  0.29391732021E+02  0.20340975385E+02 -0.13107429359E+03  0.13586058896E+03  0.00000000000E+00 0. -1.
<mgrwt>
<rscale>  1 0.30000000E+03</rscale>
<asrwt>0</asrwt>
<pdfrwt beam="1">  1       21 0.10073392E-01 0.30000000E+03</pdfrwt>
<pdfrwt beam="2">0</pdfrwt>
<totfact> 0.84914944E+03</totfact>
</mgrwt>
</event>
<event>
 6    1  0.1274196E-001  0.3000000E+03  0.7818608E-02  0.1093470E+00
         21   -1    0    0  501  502  0.00000000000E+00  0.00000000000E+00  0.21327424902E+01  0.21327424902E+01  0.00000000000E+00 0. -1.
         13   -1    0    0    0    0 -0.00000000000E+00 -0.00000000000E+00 -0.10000000000E+04  0.10000000000E+04  0.00000000000E+00 0.  1.
    9000005    2    1    2  501    0  0.27349485354E+02 -0.13527877990E+02 -0.87486789772E+03  0.87540531712E+03  0.31036994317E+01 0.  0.
         13    1    3    3    0    0  0.20913716914E+02 -0.99496688502E+01 -0.62506414580E+03  0.62549305818E+03  0.00000000000E+00 0.  1.
          1    1    3    3  501    0  0.64357684407E+01 -0.35782091395E+01 -0.24980375192E+03  0.24991225895E+03  0.00000000000E+00 0.  1.
         -1    1    1    2    0  502 -0.27349485354E+02  0.13527877990E+02 -0.12299935979E+03  0.12672742537E+03  0.00000000000E+00 0. -1.
<mgrwt>
<rscale>  1 0.30000000E+03</rscale>
<asrwt>0</asrwt>
<pdfrwt beam="1">  1       21 0.77554436E-02 0.30000000E+03</pdfrwt>
<pdfrwt beam="2">0</pdfrwt>
<totfact> 0.13489176E+04</totfact>
</mgrwt>
</event>
<event>
 6    1  0.1274196E-001  0.3000000E+03  0.7818608E-02  0.1093470E+00
         21   -1    0    0  501  502  0.00000000000E+00  0.00000000000E+00  0.41104884905E+02  0.41104884905E+02  0.00000000000E+00 0. -1.
         13   -1    0    0    0    0 -0.00000000000E+00 -0.00000000000E+00 -0.10000000000E+04  0.10000000000E+04  0.00000000000E+00 0.  1.
    9000005    2    1    2  501    0 -0.51125114039E+02 -0.26435341193E+02 -0.97857298948E+03  0.98027871217E+03  0.53528713771E+01 0.  0.
         13    1    3    3    0    0 -0.32227860949E+01 -0.32325301640E+01 -0.71858911662E+02  0.72003741478E+02  0.00000000000E+00 0.  1.
          3    1    3    3  501    0 -0.47902327944E+02 -0.23202811029E+02 -0.90671407782E+03  0.90827497069E+03  0.00000000000E+00 0.  1.
         -3    1    1    2    0  502  0.51125114039E+02  0.26435341193E+02  0.19677874389E+02  0.60826172738E+02  0.00000000000E+00 0. -1.
<mgrwt>
<rscale>  1 0.30000000E+03</rscale>
<asrwt>0</asrwt>
<pdfrwt beam="1">  1       21 0.14947262E+00 0.30000000E+03</pdfrwt>
<pdfrwt beam="2">0</pdfrwt>
<totfact> 0.24183320E+01</totfact>
</mgrwt>
</event>
<event>
 6    1  0.1274196E-001  0.3000000E+03  0.7818608E-02  0.1093470E+00
         21   -1    0    0  501  502  0.00000000000E+00  0.00000000000E+00  0.11701835994E+01  0.11701835994E+01  0.00000000000E+00 0. -1.
         13   -1    0    0    0    0 -0.00000000000E+00 -0.00000000000E+00 -0.10000000000E+04  0.10000000000E+04  0.00000000000E+00 0.  1.
    9000005    2    1    2  501    0  0.54345239567E+01  0.33049978944E+02 -0.40409280918E+03  0.40549078752E+03  0.31535966445E+01 0.  0.
         13    1    3    3    0    0  0.24818519279E+01  0.79960533540E+01 -0.10973883569E+03  0.11005775083E+03  0.00000000000E+00 0.  1.
          1    1    3    3  501    0  0.29526720288E+01  0.25053925589E+02 -0.29435397349E+03  0.29543303669E+03  0.00000000000E+00 0.  1.
         -3    1    1    2    0  502 -0.54345239567E+01 -0.33049978944E+02 -0.59473700722E+03  0.59567939608E+03  0.00000000000E+00 0. -1.
<mgrwt>
<rscale>  1 0.30000000E+03</rscale>
<asrwt>0</asrwt>
<pdfrwt beam="1">  1       21 0.42552221E-02 0.30000000E+03</pdfrwt>
<pdfrwt beam="2">0</pdfrwt>
<totfact> 0.37881251E+04</totfact>
</mgrwt>
</event>
<event>
 6    1  0.1274196E-001  0.3000000E+03  0.7818608E-02  0.1093470E+00
         21   -1    0    0  501  502  0.00000000000E+00  0.00000000000E+00  0.39540132836E+01  0.39540132836E+01  0.00000000000E+00 0. -1.
         13   -1    0    0    0    0 -0.00000000000E+00 -0.00000000000E+00 -0.10000000000E+04  0.10000000000E+04  0.00000000000E+00 0.  1.
    9000005    2    1    2  501    0  0.37539562706E+02  0.60870105386E+01 -0.89769556245E+03  0.89850698195E+03  0.33471315262E+01 0.  0.
         13    1    3    3    0    0  0.26585961854E+02  0.38485049288E+01 -0.59832423312E+03  0.59892696742E+03  0.00000000000E+00 0.  1.
          1    1    3    3  501    0  0.10953600852E+02  0.22385056098E+01 -0.29937132933E+03  0.29958001453E+03  0.00000000000E+00 0.  1.
         -1    1    1    2    0  502 -0.37539562706E+02 -0.60870105386E+01 -0.98350424263E+02  0.10544703134E+03  0.00000000000E+00 0. -1.
<mgrwt>
<rscale>  1 0.30000000E+03</rscale>
<asrwt>0</asrwt>
<pdfrwt beam="1">  1       21 0.14378260E-01 0.30000000E+03</pdfrwt>
<pdfrwt beam="2">0</pdfrwt>
<totfact> 0.44528340E+03</totfact>
</mgrwt>
</event>
<event>
 6    1  0.1274196E-001  0.3000000E+03  0.7818608E-02  0.1093470E+00
         21   -1    0    0  501  502  0.00000000000E+00  0.00000000000E+00  0.66826694730E+01  0.66826694730E+01  0.00000000000E+00 0. -1.
         13   -1    0    0    0    0 -0.00000000000E+00 -0.00000000000E+00 -0.10000000000E+04  0.10000000000E+04  0.00000000000E+00 0.  1.
    9000005    2    1    2  501    0  0.20719816183E+02 -0.40769462733E+02 -0.91381170460E+03  0.91496241856E+03  0.35966694182E+01 0.  0.
         13    1    3    3    0    0  0.11011154543E+02 -0.22158881619E+02 -0.52964400502E+03  0.53022168346E+03  0.00000000000E+00 0.  1.
          1    1    3    3  501    0  0.97086616399E+01 -0.18610581114E+02 -0.38416769958E+03  0.38474073510E+03  0.00000000000E+00 0.  1.
         -1    1    1    2    0  502 -0.20719816183E+02  0.40769462733E+02 -0.79505625922E+02  0.91720250913E+02  0.00000000000E+00 0. -1.
<mgrwt>
<rscale>  1 0.30000000E+03</rscale>
<asrwt>0</asrwt>
<pdfrwt beam="1">  1       21 0.24300668E-01 0.30000000E+03</pdfrwt>
<pdfrwt beam="2">0</pdfrwt>
<totfact> 0.16484563E+03</totfact>
</mgrwt>
</event>
<event>
 6    1  0.1274196E-001  0.3000000E+03  0.7818608E-02  0.1093470E+00
         21   -1    0    0  501  502  0.00000000000E+00  0.00000000000E+00  0.11229096266E+01  0.11229096266E+01  0.00000000000E+00 0. -1.
         13   -1    0    0    0    0 -0.00000000000E+00 -0.00000000000E+00 -0.10000000000E+04  0.10000000000E+04  0.00000000000E+00 0.  1.
    9000005    2    1    2  501    0  0.59361943355E+01  0.30167874141E+02 -0.69666300299E+03  0.69734882639E+03  0.32721397977E+01 0.  0.
         13    1    3    3    0    0  0.17777504249E+01  0.16687492113E+02 -0.39395049941E+03  0.39430778432E+03  0.00000000000E+00 0.  1.
          3    1    3    3  501    0  0.41584439106E+01  0.13480382028E+02 -0.30271250358E+03  0.30304104207E+03  0.00000000000E+00 0.  1.
         -3    1    1    2    0  502 -0.59361943355E+01 -0.30167874141E+02 -0.30221408738E+03  0.30377408324E+03  0.00000000000E+00 0. -1.
<mgrwt>
<rscale>  1 0.30000000E+03</rscale>
<asrwt>0</asrwt>
<pdfrwt beam="1">  1       21 0.40833163E-02 0.30000000E+03</pdfrwt>
<pdfrwt beam="2">0</pdfrwt>
<totfact> 0.40611879E+04</totfact>
</mgrwt>
</event>
<event>
 6    1  0.1274196E-001  0.3000000E+03  0.7818608E-02  0.1093470E+00
         21   -1    0    0  501  502  0.00000000000E+00  0.00000000000E+00  0.23334317195E+01  0.23334317195E+01  0.00000000000E+00 0. -1.
         13   -1    0    0    0    0 -0.00000000000E+00 -0.00000000000E+00 -0.10000000000E+04  0.10000000000E+04  0.00000000000E+00 0.  1.
    9000005    2    1    2  501    0  0.84902337914E+01 -0.44719483695E+02 -0.66274993900E+03  0.66433777367E+03  0.59396623234E+01 0.  0.
         13    1    3    3    0    0  0.15689467205E+01 -0.13944368854E+02 -0.24250823645E+03  0.24291387725E+03  0.00000000000E+00 0.  1.
          1    1    3    3  501    0  0.69212870709E+01 -0.30775114841E+02 -0.42024170255E+03  0.42142389641E+03  0.00000000000E+00 0.  1.
         -1    1    1    2    0  502 -0.84902337914E+01  0.44719483695E+02 -0.33491662928E+03  0.33799565805E+03  0.00000000000E+00 0. -1.
<mgrwt>
<rscale>  1 0.30000000E+03</rscale>
<asrwt>0</asrwt>
<pdfrwt beam="1">  1       21 0.84852241E-02 0.30000000E+03</pdfrwt>
<pdfrwt beam="2">0</pdfrwt>
<totfact> 0.11516538E+04</totfact>
</mgrwt>
</event>
<event>
 6    1  0.1274196E-001  0.3000000E+03  0.7818608E-02  0.1093470E+00
         21   -1    0    0  501  502  0.00000000000E+00  0.00000000000E+00  0.16920222478E+01  0.16920222478E+01  0.00000000000E+00 0. -1.
         13   -1    0    0    0    0 -0.00000000000E+00 -0.00000000000E+00 -0.10000000000E+04  0.10000000000E+04  0.00000000000E+00 0.  1.
    9000005    2    1    2  501    0  0.91546190608E+01 -0.37288755131E+02 -0.67647165939E+03  0.67757341105E+03  0.41908342204E+01 0.  0.
         13    1    3    3    0    0  0.18292579267E+01 -0.41728642167E+01 -0.62656644890E+02  0.62822083133E+02  0.00000000000E+00 0.  1.
          1    1    3    3  501    0  0.73253611340E+01 -0.33115890915E+02 -0.61381501450E+03  0.61475132792E+03  0.00000000000E+00 0.  1.
         -1    1    1    2    0  502 -0.91546190608E+01  0.37288755131E+02 -0.32183631836E+03  0.32411861120E+03  0.00000000000E+00 0. -1.
<mgrwt>
<rscale>  1 0.30000000E+03</rscale>
<asrwt>0</asrwt>
<pdfrwt beam="1">  1       21 0.61528211E-02 0.30000000E+03</pdfrwt>
<pdfrwt beam="2">0</pdfrwt>
<totfact> 0.20176728E+04</totfact>
</mgrwt>
</event>
<event>
 6    1  0.1274196E-001  0.3000000E+03  0.7818608E-02  0.1093470E+00
         21   -1    0    0  501  502  0.00000000000E+00  0.00000000000E+00  0.19143525685E+01  0.19143525685E+01  0.00000000000E+00 0. -1.
         13   -1    0    0    0    0 -0.00000000000E+00 -0.00000000000E+00 -0.10000000000E+04  0.10000000000E+04  0.00000000000E+00 0.  1.
    9000005    2    1    2  501    0  0.12330222263E+02 -0.27873245468E+02 -0.85804378792E+03  0.85859417042E+03  0.39818723059E+01 0.  0.
         13    1    3    3    0    0  0.40005863482E+00 -0.17401034963E+01 -0.80670224969E+02  0.80689982053E+02  0.00000000000E+00 0.  1.
          3    1    3    3  501    0  0.11930163629E+02 -0.26133141972E+02 -0.77737356295E+03  0.77790418837E+03  0.00000000000E+00 0.  1.
         -1    1    1    2    0  502 -0.12330222263E+02  0.27873245468E+02 -0.14004185951E+03  0.14332018214E+03  0.00000000000E+00 0. -1.
<mgrwt>
<rscale>  1 0.30000000E+03</rscale>
<asrwt>0</asrwt>
<pdfrwt beam="1">  1       21 0.69612967E-02 0.30000000E+03</pdfrwt>
<pdfrwt beam="2">0</pdfrwt>
<totfact> 0.16291696E+04</totfact>
</mgrwt>
</event>
<event>
 6    1  0.1274196E-001  0.3000000E+03  0.7818608E-02  0.1093470E+00
         21   -1    0    0  501  502  0.00000000000E+00  0.00000000000E+00  0.14900091980E+01  0.14900091980E+01  0.00000000000E+00 0. -1.
         13   -1    0    0    0    0 -0.00000000000E+00 -0.00000000000E+00 -0.10000000000E+04  0.10000000000E+04  0.00000000000E+00 0.  1.
    9000005    2    1    2  501    0  0.19252822461E+02  0.33357157390E+02 -0.51577810791E+03  0.51722412987E+03  0.32206827919E+01 0.  0.
         13    1    3    3    0    0  0.13542438966E+02  0.21720273187E+02 -0.32529793176E+03  0.32630340533E+03  0.00000000000E+00 0.  1.
          3    1    3    3  501    0  0.57103834949E+01  0.11636884202E+02 -0.19048017614E+03  0.19092072454E+03  0.00000000000E+00 0.  1.
         -1    1    1    2    0  502 -0.19252822461E+02 -0.33357157390E+02 -0.48273188290E+03  0.48426587933E+03  0.00000000000E+00 0. -1.
<mgrwt>
<rscale>  1 0.30000000E+03</rscale>
<asrwt>0</asrwt>
<pdfrwt beam="1">  1       21 0.54182267E-02 0.30000000E+03</pdfrwt>
<pdfrwt beam="2">0</pdfrwt>
<totfact> 0.25110560E+04</totfact>
</mgrwt>
</event>
<event>
 6    1  0.1274196E-001  0.3000000E+03  0.7818608E-02  0.1093470E+00
         21   -1    0    0  501  502  0.00000000000E+00  0.00000000000E+00  0.10228452487E+01  0.10228452487E+01  0.00000000000E+00 0. -1.
         13   -1    0    0    0    0 -0.00000000000E+00 -0.00000000000E+00 -0.10000000000E+04  0.10000000000E+04  0.00000000000E+00 0.  1.
    9000005    2    1    2  501    0 -0.28121002186E+02  0.12772966066E+02 -0.62545349326E+03  0.62622441260E+03  0.33171180642E+01 0.  0.
         13    1    3    3    0    0 -0.21120161681E+02  0.10730740319E+02 -0.45817739010E+03  0.45878941882E+03  0.00000000000E+00 0.  1.
          3    1    3    3  501    0 -0.70008405055E+01  0.20422257475E+01 -0.16727610316E+03  0.16743499378E+03  0.00000000000E+00 0.  1.
         -1    1    1    2    0  502  0.28121002186E+02 -0.12772966066E+02 -0.37352366149E+03  0.37479843265E+03  0.00000000000E+00 0. -1.
<mgrwt>
<rscale>  1 0.30000000E+03</rscale>
<asrwt>0</asrwt>
<pdfrwt beam="1">  1       21 0.37194451E-02 0.30000000E+03</pdfrwt>
<pdfrwt beam="2">0</pdfrwt>
<totfact> 0.47515516E+04</totfact>
</mgrwt>
</event>
<event>
 6    1  0.1274196E-001  0.3000000E+03  0.7818608E-02  0.1093470E+00
         21   -1    0    0  501  502  0.00000000000E+00  0.00000000000E+00  0.50301362641E+01  0.50301362641E+01  0.00000000000E+00 0. -1.
         13   -1    0    0    0    0 -0.00000000000E+00 -0.00000000000E+00 -0.10000000000E+04  0.10000000000E+04  0.00000000000E+00 0.  1.
    9000005    2    1    2  501    0  0.48751136162E+02 -0.50894084250E+02 -0.44298517713E+03  0.44856452606E+03  0.27176822607E+01 0.  0.
         13    1    3    3    0    0  0.44683574057E+01 -0.44797112754E+01 -0.35151578982E+02  0.35716488293E+02  0.00000000000E+00 0.  1.
          3    1    3    3  501    0  0.44282778756E+02 -0.46414372974E+02 -0.40783359815E+03  0.41284803777E+03  0.00000000000E+00 0.  1.
         -1    1    1    2    0  502 -0.48751136162E+02  0.50894084250E+02 -0.55198468660E+03  0.55646561020E+03  0.00000000000E+00 0. -1.
<mgrwt>
<rscale>  1 0.30000000E+03</rscale>
<asrwt>0</asrwt>
<pdfrwt beam="1">  1       21 0.18291443E-01 0.30000000E+03</pdfrwt>
<pdfrwt beam="2">0</pdfrwt>
<totfact> 0.28421830E+03</totfact>
</mgrwt>
</event>
<event>
 6    1  0.1274196E-001  0.3000000E+03  0.7818608E-02  0.1093470E+00
         21   -1    0    0  501  502  0.00000000000E+00  0.00000000000E+00  0.87294301419E+01  0.87294301419E+01  0.00000000000E+00 0. -1.
         13   -1    0    0    0    0 -0.00000000000E+00 -0.00000000000E+00 -0.10000000000E+04  0.10000000000E+04  0.00000000000E+00 0.  1.
    9000005    2    1    2  501    0 -0.31467264053E+02 -0.49413264727E+01 -0.96977229015E+03  0.97030051597E+03  0.31923545618E+01 0.  0.
         13    1    3    3    0    0 -0.23501232138E+02 -0.50481787670E+01 -0.71863398477E+03  0.71903587956E+03  0.00000000000E+00 0.  1.
          3    1    3    3  501    0 -0.79660319159E+01  0.10685229430E+00 -0.25113830538E+03  0.25126463641E+03  0.00000000000E+00 0.  1.
         -1    1    1    2    0  502  0.31467264053E+02  0.49413264727E+01 -0.21498279709E+02  0.38428914176E+02  0.00000000000E+00 0. -1.
<mgrwt>
<rscale>  1 0.30000000E+03</rscale>
<asrwt>0</asrwt>
<pdfrwt beam="1">  1       21 0.31743449E-01 0.30000000E+03</pdfrwt>
<pdfrwt beam="2">0</pdfrwt>
<totfact> 0.97062185E+02</totfact>
</mgrwt>
</event>
<event>
 6    1  0.1274196E-001  0.3000000E+03  0.7818608E-02  0.1093470E+00
         21   -1    0    0  501  502  0.00000000000E+00  0.00000000000E+00  0.35833670078E+01  0.35833670078E+01  0.00000000000E+00 0. -1.
         13   -1    0    0    0    0 -0.00000000000E+00 -0.00000000000E+00 -0.10000000000E+04  0.10000000000E+04  0.00000000000E+00 0.  1.
    9000005    2    1    2  501    0 -0.52416957722E+02  0.71022288497E+01 -0.73251922182E+03  0.73443689622E+03  0.38942379802E+01 0.  0.
         13    1    3    3    0    0 -0.43421532898E+02  0.73081603574E+01 -0.60305369781E+03  0.60465907846E+03  0.00000000000E+00 0.  1.
          3    1    3    3  501    0 -0.89954248234E+01 -0.20593150769E+00 -0.12946552401E+03  0.12977781776E+03  0.00000000000E+00 0.  1.
         -3    1    1    2    0  502  0.52416957722E+02 -0.71022288497E+01 -0.26389741117E+03  0.26914647078E+03  0.00000000000E+00 0. -1.
<mgrwt>
<rscale>  1 0.30000000E+03</rscale>
<asrwt>0</asrwt>
<pdfrwt beam="1">  1       21 0.13030453E-01 0.30000000E+03</pdfrwt>
<pdfrwt beam="2">0</pdfrwt>
<totfact> 0.53336838E+03</totfact>
</mgrwt>
</event>
<event>
 6    1  0.1274196E-001  0.3000000E+03  0.7818608E-02  0.1093470E+00
         21   -1    0    0  501  502  0.00000000000E+00  0.00000000000E+00  0.29524866164E+01  0.29524866164E+01  0.00000000000E+00 0. -1.
         13   -1    0    0    0    0 -0.00000000000E+00 -0.00000000000E+00 -0.10000000000E+04  0.10000000000E+04  0.00000000000E+00 0.  1.
    9000005    2    1    2  501    0  0.43637416647E+02 -0.27917146252E+02 -0.64896204781E+03  0.65103334459E+03  0.30141455917E+01 0.  0.
         13    1    3    3    0    0  0.17710619886E+02 -0.12417809979E+02 -0.28559484020E+03  0.28641278046E+03  0.00000000000E+00 0.  1.
          1    1    3    3  501    0  0.25926796762E+02 -0.15499336273E+02 -0.36336720762E+03  0.36462056413E+03  0.00000000000E+00 0.  1.
         -1    1    1    2    0  502 -0.43637416647E+02  0.27917146252E+02 -0.34808546557E+03  0.35191914203E+03  0.00000000000E+00 0. -1.
<mgrwt>
<rscale>  1 0.30000000E+03</rscale>
<asrwt>0</asrwt>
<pdfrwt beam="1">  1       21 0.10736338E-01 0.30000000E+03</pdfrwt>
<pdfrwt beam="2">0</pdfrwt>
<totfact> 0.75752445E+03</totfact>
</mgrwt>
</event>
<event>
 6    1  0.1274196E-001  0.3000000E+03  0.7818608E-02  0.1093470E+00
         21   -1    0    0  501  502  0.00000000000E+00  0.00000000000E+00  0.10491305092E+01  0.10491305092E+01  0.00000000000E+00 0. -1.
         13   -1    0    0    0    0 -0.00000000000E+00 -0.00000000000E+00 -0.10000000000E+04  0.10000000000E+04  0.00000000000E+00 0.  1.
    9000005    2    1    2  501    0  0.27644961851E+02  0.13246652165E+02 -0.65798469402E+03  0.65870770660E+03  0.35024933623E+01 0.  0.
         13    1    3    3    0    0  0.86027944172E+01  0.39011048300E+01 -0.17003535547E+03  0.17029753023E+03  0.00000000000E+00 0.  1.
          1    1    3    3  501    0  0.19042167433E+02  0.93455473352E+01 -0.48794933854E+03  0.48841017637E+03  0.00000000000E+00 0.  1.
         -3    1    1    2    0  502 -0.27644961851E+02 -0.13246652165E+02 -0.34096617547E+03  0.34234142391E+03  0.00000000000E+00 0. -1.
<mgrwt>
<rscale>  1 0.30000000E+03</rscale>
<asrwt>0</asrwt>
<pdfrwt beam="1">  1       21 0.38150281E-02 0.30000000E+03</pdfrwt>
<pdfrwt beam="2">0</pdfrwt>
<totfact> 0.45533103E+04</totfact>
</mgrwt>
</event>
<event>
 6    1  0.1274196E-001  0.3000000E+03  0.7818608E-02  0.1093470E+00
         21   -1    0    0  501  502  0.00000000000E+00  0.00000000000E+00  0.13827930742E+01  0.13827930742E+01  0.00000000000E+00 0. -1.
         13   -1    0    0    0    0 -0.00000000000E+00 -0.00000000000E+00 -0.10000000000E+04  0.10000000000E+04  0.00000000000E+00 0.  1.
    9000005    2    1    2  501    0  0.29701497566E+02  0.70698398511E+01 -0.78449732995E+03  0.78509714097E+03  0.30493369574E+01 0.  0.
         13    1    3    3    0    0  0.19584183474E+02  0.31679410157E+01 -0.50450451621E+03  0.50489442755E+03  0.00000000000E+00 0.  1.
          3    1    3    3  501    0  0.10117314091E+02  0.39018988354E+01 -0.27999281374E+03  0.28020271342E+03  0.00000000000E+00 0.  1.
         -3    1    1    2    0  502 -0.29701497566E+02 -0.70698398511E+01 -0.21411987697E+03  0.21628565211E+03  0.00000000000E+00 0. -1.
<mgrwt>
<rscale>  1 0.30000000E+03</rscale>
<asrwt>0</asrwt>
<pdfrwt beam="1">  1       21 0.50283491E-02 0.30000000E+03</pdfrwt>
<pdfrwt beam="2">0</pdfrwt>
<totfact> 0.28528326E+04</totfact>
</mgrwt>
</event>
<event>
 6    1  0.1274196E-001  0.3000000E+03  0.7818608E-02  0.1093470E+00
         21   -1    0    0  501  502  0.00000000000E+00  0.00000000000E+00  0.27837119967E+01  0.27837119967E+01  0.00000000000E+00 0. -1.
         13   -1    0    0    0    0 -0.00000000000E+00 -0.00000000000E+00 -0.10000000000E+04  0.10000000000E+04  0.00000000000E+00 0.  1.
    9000005    2    1    2  501    0  0.33327747118E+02  0.48165147722E+01 -0.88442522940E+03  0.88507321780E+03  0.35604676831E+01 0.  0.
         13    1    3    3    0    0  0.21188314663E+02  0.28241702571E+01 -0.51566236621E+03  0.51610521848E+03  0.00000000000E+00 0.  1.
          3    1    3    3  501    0  0.12139432455E+02  0.19923445152E+01 -0.36876286318E+03  0.36896799932E+03  0.00000000000E+00 0.  1.
         -3    1    1    2    0  502 -0.33327747118E+02 -0.48165147722E+01 -0.11279105861E+03  0.11771049420E+03  0.00000000000E+00 0. -1.
<mgrwt>
<rscale>  1 0.30000000E+03</rscale>
<asrwt>0</asrwt>
<pdfrwt beam="1">  1       21 0.10122610E-01 0.30000000E+03</pdfrwt>
<pdfrwt beam="2">0</pdfrwt>
<totfact> 0.84178183E+03</totfact>
</mgrwt>
</event>
<event>
 6    1  0.1274196E-001  0.3000000E+03  0.7818608E-02  0.1093470E+00
         21   -1    0    0  501  502  0.00000000000E+00  0.00000000000E+00  0.13612253522E+01  0.13612253522E+01  0.00000000000E+00 0. -1.
         13   -1    0    0    0    0 -0.00000000000E+00 -0.00000000000E+00 -0.10000000000E+04  0.10000000000E+04  0.00000000000E+00 0.  1.
    9000005    2    1    2  501    0 -0.27674253811E+02 -0.23589118671E+02 -0.41910664709E+03  0.42068937507E+03  0.26187428909E+01 0.  0.
         13    1    3    3    0    0 -0.13208840678E+02 -0.11564557559E+02 -0.18750038045E+03  0.18832048516E+03  0.00000000000E+00 0.  1.
          1    1    3    3  501    0 -0.14465413134E+02 -0.12024561112E+02 -0.23160626665E+03  0.23236888991E+03  0.00000000000E+00 0.  1.
         -1    1    1    2    0  502  0.27674253811E+02  0.23589118671E+02 -0.57953212755E+03  0.58067185028E+03  0.00000000000E+00 0. -1.
<mgrwt>
<rscale>  1 0.30000000E+03</rscale>
<asrwt>0</asrwt>
<pdfrwt beam="1">  1       21 0.49499208E-02 0.30000000E+03</pdfrwt>
<pdfrwt beam="2">0</pdfrwt>
<totfact> 0.29303095E+04</totfact>
</mgrwt>
</event>
<event>
 6    1  0.1274196E-001  0.3000000E+03  0.7818608E-02  0.1093470E+00
         21   -1    0    0  501  502  0.00000000000E+00  0.00000000000E+00  0.17545187608E+01  0.17545187608E+01  0.00000000000E+00 0. -1.
         13   -1    0    0    0    0 -0.00000000000E+00 -0.00000000000E+00 -0.10000000000E+04  0.10000000000E+04  0.00000000000E+00 0.  1.
    9000005    2    1    2  501    0  0.87929786526E+01  0.38385981831E+02 -0.66834994387E+03  0.66951685435E+03  0.32203598407E+01 0.  0.
         13    1    3    3    0    0  0.50276778163E+01  0.28216470717E+02 -0.49028636024E+03  0.49112336719E+03  0.00000000000E+00 0.  1.
          1    1    3    3  501    0  0.37653008363E+01  0.10169511115E+02 -0.17806358363E+03  0.17839348716E+03  0.00000000000E+00 0.  1.
         -1    1    1    2    0  502 -0.87929786526E+01 -0.38385981831E+02 -0.32989553737E+03  0.33223766441E+03  0.00000000000E+00 0. -1.
<mgrwt>
<rscale>  1 0.30000000E+03</rscale>
<asrwt>0</asrwt>
<pdfrwt beam="1">  1       21 0.63800817E-02 0.30000000E+03</pdfrwt>
<pdfrwt beam="2">0</pdfrwt>
<totfact> 0.18950980E+04</totfact>
</mgrwt>
</event>
<event>
 6    1  0.1274196E-001  0.3000000E+03  0.7818608E-02  0.1093470E+00
         21   -1    0    0  501  502  0.00000000000E+00  0.00000000000E+00  0.27306968943E+01  0.27306968943E+01  0.00000000000E+00 0. -1.
         13   -1    0    0    0    0 -0.00000000000E+00 -0.00000000000E+00 -0.10000000000E+04  0.10000000000E+04  0.00000000000E+00 0.  1.
    9000005    2    1    2  501    0  0.38552414563E+02  0.21367704451E+02 -0.76774949178E+03  0.76901674512E+03  0.21458534220E+01 0.  0.
         13    1    3    3    0    0  0.28120439203E+02  0.16175066609E+02 -0.57838065452E+03  0.57928971457E+03  0.00000000000E+00 0.  1.
          3    1    3    3  501    0  0.10431975361E+02  0.51926378420E+01 -0.18936883726E+03  0.18972703055E+03  0.00000000000E+00 0.  1.
         -1    1    1    2    0  502 -0.38552414563E+02 -0.21367704451E+02 -0.22951981133E+03  0.23371395177E+03  0.00000000000E+00 0. -1.
<mgrwt>
<rscale>  1 0.30000000E+03</rscale>
<asrwt>0</asrwt>
<pdfrwt beam="1">  1       21 0.99298278E-02 0.30000000E+03</pdfrwt>
<pdfrwt beam="2">0</pdfrwt>
<totfact> 0.87121113E+03</totfact>
</mgrwt>
</event>
<event>
 6    1  0.1274196E-001  0.3000000E+03  0.7818608E-02  0.1093470E+00
         21   -1    0    0  501  502  0.00000000000E+00  0.00000000000E+00  0.93044709259E+00  0.93044709259E+00  0.00000000000E+00 0. -1.
         13   -1    0    0    0    0 -0.00000000000E+00 -0.00000000000E+00 -0.10000000000E+04  0.10000000000E+04  0.00000000000E+00 0.  1.
    9000005    2    1    2  501    0 -0.28568403067E+02  0.10288861567E+02 -0.49991781484E+03  0.50085598069E+03  0.41082208349E+01 0.  0.
         13    1    3    3    0    0 -0.27702541218E+02  0.96201882654E+01 -0.46689453952E+03  0.46781458918E+03  0.00000000000E+00 0.  1.
          3    1    3    3  501    0 -0.86586184820E+00  0.66867330157E+00 -0.33023275317E+02  0.33041391517E+02  0.00000000000E+00 0.  1.
         -1    1    1    2    0  502  0.28568403067E+02 -0.10288861567E+02 -0.49915173807E+03  0.50007446640E+03  0.00000000000E+00 0. -1.
<mgrwt>
<rscale>  1 0.30000000E+03</rscale>
<asrwt>0</asrwt>
<pdfrwt beam="1">  1       21 0.33834511E-02 0.30000000E+03</pdfrwt>
<pdfrwt beam="2">0</pdfrwt>
<totfact> 0.55683126E+04</totfact>
</mgrwt>
</event>
<event>
 6    1  0.1274196E-001  0.3000000E+03  0.7818608E-02  0.1093470E+00
         21   -1    0    0  501  502  0.00000000000E+00  0.00000000000E+00  0.26488763658E+01  0.26488763658E+01  0.00000000000E+00 0. -1.
         13   -1    0    0    0    0 -0.00000000000E+00 -0.00000000000E+00 -0.10000000000E+04  0.10000000000E+04  0.00000000000E+00 0.  1.
    9000005    2    1    2  501    0  0.49140760780E+02 -0.65406477569E+01 -0.63208220735E+03  0.63403122127E+03  0.31746270180E+01 0.  0.
         13    1    3    3    0    0  0.19619666382E+02 -0.39450512130E+01 -0.26535805503E+03  0.26611161588E+03  0.00000000000E+00 0.  1.
          3    1    3    3  501    0  0.29521094398E+02 -0.25955965438E+01 -0.36672415232E+03  0.36791960539E+03  0.00000000000E+00 0.  1.
         -3    1    1    2    0  502 -0.49140760780E+02  0.65406477569E+01 -0.36526891628E+03  0.36861765509E+03  0.00000000000E+00 0. -1.
<mgrwt>
<rscale>  1 0.30000000E+03</rscale>
<asrwt>0</asrwt>
<pdfrwt beam="1">  1       21 0.96322980E-02 0.30000000E+03</pdfrwt>
<pdfrwt beam="2">0</pdfrwt>
<totfact> 0.91981623E+03</totfact>
</mgrwt>
</event>
<event>
 6    1  0.1274196E-001  0.3000000E+03  0.7818608E-02  0.1093470E+00
         21   -1    0    0  501  502  0.00000000000E+00  0.00000000000E+00  0.24485949611E+01  0.24485949611E+01  0.00000000000E+00 0. -1.
         13   -1    0    0    0    0 -0.00000000000E+00 -0.00000000000E+00 -0.10000000000E+04  0.10000000000E+04  0.00000000000E+00 0.  1.
    9000005    2    1    2  501    0 -0.38932048089E+02  0.20528976423E+02 -0.27123520812E+03  0.27480008012E+03  0.30663772510E+01 0.  0.
         13    1    3    3    0    0 -0.28337185335E+02  0.14203696011E+02 -0.20256445135E+03  0.20502950521E+03  0.00000000000E+00 0.  1.
          1    1    3    3  501    0 -0.10594862755E+02  0.63252804123E+01 -0.68670756764E+02  0.69770574912E+02  0.00000000000E+00 0.  1.
         -1    1    1    2    0  502  0.38932048089E+02 -0.20528976423E+02 -0.72631619692E+03  0.72764851484E+03  0.00000000000E+00 0. -1.
<mgrwt>
<rscale>  1 0.30000000E+03</rscale>
<asrwt>0</asrwt>
<pdfrwt beam="1">  1       21 0.89040005E-02 0.30000000E+03</pdfrwt>
<pdfrwt beam="2">0</pdfrwt>
<totfact> 0.10577052E+04</totfact>
</mgrwt>
</event>
<event>
 6    1  0.1274196E-001  0.3000000E+03  0.7818608E-02  0.1093470E+00
         21   -1    0    0  501  502  0.00000000000E+00  0.00000000000E+00  0.12119897702E+01  0.12119897702E+01  0.00000000000E+00 0. -1.
         13   -1    0    0    0    0 -0.00000000000E+00 -0.00000000000E+00 -0.10000000000E+04  0.10000000000E+04  0.00000000000E+00 0.  1.
    9000005    2    1    2  501    0 -0.33291784844E+02  0.64558355956E+01 -0.39307732504E+03  0.39455273211E+03  0.34719164559E+01 0.  0.
         13    1    3    3    0    0 -0.29368445006E+02  0.62384242874E+01 -0.33504889277E+03  0.33639141494E+03  0.00000000000E+00 0.  1.
          1    1    3    3  501    0 -0.39233398379E+01  0.21741130827E+00 -0.58028432268E+02  0.58161317168E+02  0.00000000000E+00 0.  1.
         -1    1    1    2    0  502  0.33291784844E+02 -0.64558355956E+01 -0.60571068519E+03  0.60665925766E+03  0.00000000000E+00 0. -1.
<mgrwt>
<rscale>  1 0.30000000E+03</rscale>
<asrwt>0</asrwt>
<pdfrwt beam="1">  1       21 0.44072448E-02 0.30000000E+03</pdfrwt>
<pdfrwt beam="2">0</pdfrwt>
<totfact> 0.35696776E+04</totfact>
</mgrwt>
</event>
<event>
 6    1  0.1274196E-001  0.3000000E+03  0.7818608E-02  0.1093470E+00
         21   -1    0    0  501  502  0.00000000000E+00  0.00000000000E+00  0.15263443493E+01  0.15263443493E+01  0.00000000000E+00 0. -1.
         13   -1    0    0    0    0 -0.00000000000E+00 -0.00000000000E+00 -0.10000000000E+04  0.10000000000E+04  0.00000000000E+00 0.  1.
    9000005    2    1    2  501    0  0.23439149340E+02  0.20207013877E+02 -0.80348206141E+03  0.80409423207E+03  0.51375014448E+01 0.  0.
         13    1    3    3    0    0  0.15706250859E+01  0.12644266829E-01 -0.32914500360E+02  0.32951955283E+02  0.00000000000E+00 0.  1.
          3    1    3    3  501    0  0.21868524254E+02  0.20194369610E+02 -0.77056756105E+03  0.77114227679E+03  0.00000000000E+00 0.  1.
         -1    1    1    2    0  502 -0.23439149340E+02 -0.20207013877E+02 -0.19499159424E+03  0.19743211227E+03  0.00000000000E+00 0. -1.
<mgrwt>
<rscale>  1 0.30000000E+03</rscale>
<asrwt>0</asrwt>
<pdfrwt beam="1">  1       21 0.55503548E-02 0.30000000E+03</pdfrwt>
<pdfrwt beam="2">0</pdfrwt>
<totfact> 0.24094533E+04</totfact>
</mgrwt>
</event>
<event>
 6    1  0.1274196E-001  0.3000000E+03  0.7818608E-02  0.1093470E+00
         21   -1    0    0  501  502  0.00000000000E+00  0.00000000000E+00  0.11693797992E+01  0.11693797992E+01  0.00000000000E+00 0. -1.
         13   -1    0    0    0    0 -0.00000000000E+00 -0.00000000000E+00 -0.10000000000E+04  0.10000000000E+04  0.00000000000E+00 0.  1.
    9000005    2    1    2  501    0 -0.28477076435E+02 -0.18694847927E+02 -0.52690751070E+03  0.52801838646E+03  0.33838412655E+01 0.  0.
         13    1    3    3    0    0 -0.22407063608E+02 -0.15146799403E+02 -0.39638579212E+03  0.39730743540E+03  0.00000000000E+00 0.  1.
          1    1    3    3  501    0 -0.60700128269E+01 -0.35480485244E+01 -0.13052171858E+03  0.13071095105E+03  0.00000000000E+00 0.  1.
         -3    1    1    2    0  502  0.28477076435E+02  0.18694847927E+02 -0.47192310950E+03  0.47315099334E+03  0.00000000000E+00 0. -1.
<mgrwt>
<rscale>  1 0.30000000E+03</rscale>
<asrwt>0</asrwt>
<pdfrwt beam="1">  1       21 0.42522991E-02 0.30000000E+03</pdfrwt>
<pdfrwt beam="2">0</pdfrwt>
<totfact> 0.37925266E+04</totfact>
</mgrwt>
</event>
<event>
 6    1  0.1274196E-001  0.3000000E+03  0.7818608E-02  0.1093470E+00
         21   -1    0    0  501  502  0.00000000000E+00  0.00000000000E+00  0.17261475988E+01  0.17261475988E+01  0.00000000000E+00 0. -1.
         13   -1    0    0    0    0 -0.00000000000E+00 -0.00000000000E+00 -0.10000000000E+04  0.10000000000E+04  0.00000000000E+00 0.  1.
    9000005    2    1    2  501    0  0.16382962924E+01 -0.31715032703E+02 -0.82165649884E+03  0.82227638612E+03  0.32443456169E+01 0.  0.
         13    1    3    3    0    0  0.13685542126E+01 -0.26098295384E+02 -0.70544143968E+03  0.70592536346E+03  0.00000000000E+00 0.  1.
          3    1    3    3  501    0  0.26974207977E+00 -0.56167373190E+01 -0.11621505916E+03  0.11635102266E+03  0.00000000000E+00 0.  1.
         -1    1    1    2    0  502 -0.16382962924E+01  0.31715032703E+02 -0.17661735356E+03  0.17944976147E+03  0.00000000000E+00 0. -1.
<mgrwt>
<rscale>  1 0.30000000E+03</rscale>
<asrwt>0</asrwt>
<pdfrwt beam="1">  1       21 0.62769136E-02 0.30000000E+03</pdfrwt>
<pdfrwt beam="2">0</pdfrwt>
<totfact> 0.19492699E+04</totfact>
</mgrwt>
</event>
<event>
 6    1  0.1274196E-001  0.3000000E+03  0.7818608E-02  0.1093470E+00
         21   -1    0    0  501  502  0.00000000000E+00  0.00000000000E+00  0.64626333094E+01  0.64626333094E+01  0.00000000000E+00 0. -1.
         13   -1    0    0    0    0 -0.00000000000E+00 -0.00000000000E+00 -0.10000000000E+04  0.10000000000E+04  0.00000000000E+00 0.  1.
    9000005    2    1    2  501    0 -0.70001154092E+02 -0.28221158359E+02 -0.66972526291E+03  0.67397071776E+03  0.28293567229E+01 0.  0.
         13    1    3    3    0    0 -0.22781821922E+02 -0.97801955681E+01 -0.23088393390E+03  0.23221122834E+03  0.00000000000E+00 0.  1.
          1    1    3    3  501    0 -0.47219332171E+02 -0.18440962791E+02 -0.43884132901E+03  0.44175948942E+03  0.00000000000E+00 0.  1.
         -1    1    1    2    0  502  0.70001154092E+02  0.28221158359E+02 -0.32381210378E+03  0.33249191555E+03  0.00000000000E+00 0. -1.
<mgrwt>
<rscale>  1 0.30000000E+03</rscale>
<asrwt>0</asrwt>
<pdfrwt beam="1">  1       21 0.23500534E-01 0.30000000E+03</pdfrwt>
<pdfrwt beam="2">0</pdfrwt>
<totfact> 0.17593412E+03</totfact>
</mgrwt>
</event>
<event>
 6    1  0.1274196E-001  0.3000000E+03  0.7818608E-02  0.1093470E+00
         21   -1    0    0  501  502  0.00000000000E+00  0.00000000000E+00  0.24675672735E+01  0.24675672735E+01  0.00000000000E+00 0. -1.
         13   -1    0    0    0    0 -0.00000000000E+00 -0.00000000000E+00 -0.10000000000E+04  0.10000000000E+04  0.00000000000E+00 0.  1.
    9000005    2    1    2  501    0 -0.11010932595E+02 -0.32601696988E+02 -0.86000148686E+03  0.86069707544E+03  0.35758901675E+01 0.  0.
         13    1    3    3    0    0 -0.10816017476E+01 -0.21043430494E+01 -0.83443481073E+02  0.83477018727E+02  0.00000000000E+00 0.  1.
          1    1    3    3  501    0 -0.99293308474E+01 -0.30497353938E+02 -0.77655800579E+03  0.77722005672E+03  0.00000000000E+00 0.  1.
         -1    1    1    2    0  502  0.11010932595E+02  0.32601696988E+02 -0.13753094586E+03  0.14177049183E+03  0.00000000000E+00 0. -1.
<mgrwt>
<rscale>  1 0.30000000E+03</rscale>
<asrwt>0</asrwt>
<pdfrwt beam="1">  1       21 0.89729908E-02 0.30000000E+03</pdfrwt>
<pdfrwt beam="2">0</pdfrwt>
<totfact> 0.10433490E+04</totfact>
</mgrwt>
</event>
<event>
 6    1  0.1274196E-001  0.3000000E+03  0.7818608E-02  0.1093470E+00
         21   -1    0    0  501  502  0.00000000000E+00  0.00000000000E+00  0.15302746514E+01  0.15302746514E+01  0.00000000000E+00 0. -1.
         13   -1    0    0    0    0 -0.00000000000E+00 -0.00000000000E+00 -0.10000000000E+04  0.10000000000E+04  0.00000000000E+00 0.  1.
    9000005    2    1    2  501    0 -0.30902559267E+02 -0.22629783749E+02 -0.40511376156E+03  0.40693934380E+03  0.39235760554E+01 0.  0.
         13    1    3    3    0    0 -0.14348916945E+02 -0.84006239857E+01 -0.16526625521E+03  0.16610056295E+03  0.00000000000E+00 0.  1.
          3    1    3    3  501    0 -0.16553642321E+02 -0.14229159763E+02 -0.23984750635E+03  0.24083878085E+03  0.00000000000E+00 0.  1.
         -1    1    1    2    0  502  0.30902559267E+02  0.22629783749E+02 -0.59335596379E+03  0.59459093085E+03  0.00000000000E+00 0. -1.
<mgrwt>
<rscale>  1 0.30000000E+03</rscale>
<asrwt>0</asrwt>
<pdfrwt beam="1">  1       21 0.55646468E-02 0.30000000E+03</pdfrwt>
<pdfrwt beam="2">0</pdfrwt>
<totfact> 0.23988437E+04</totfact>
</mgrwt>
</event>
<event>
 6    1  0.1274196E-001  0.3000000E+03  0.7818608E-02  0.1093470E+00
         21   -1    0    0  501  502  0.00000000000E+00  0.00000000000E+00  0.15543502374E+02  0.15543502374E+02  0.00000000000E+00 0. -1.
         13   -1    0    0    0    0 -0.00000000000E+00 -0.00000000000E+00 -0.10000000000E+04  0.10000000000E+04  0.00000000000E+00 0.  1.
    9000005    2    1    2  501    0 -0.75088680918E+02 -0.64742915146E+02 -0.80002605492E+03  0.80615261608E+03  0.32244085211E+01 0.  0.
         13    1    3    3    0    0 -0.29796007308E+02 -0.27780534205E+02 -0.32940106453E+03  0.33191056242E+03  0.00000000000E+00 0.  1.
          1    1    3    3  501    0 -0.45292673610E+02 -0.36962380941E+02 -0.47062499039E+03  0.47424205366E+03  0.00000000000E+00 0.  1.
         -1    1    1    2    0  502  0.75088680918E+02  0.64742915146E+02 -0.18443044271E+03  0.20939088629E+03  0.00000000000E+00 0. -1.
<mgrwt>
<rscale>  1 0.30000000E+03</rscale>
<asrwt>0</asrwt>
<pdfrwt beam="1">  1       21 0.56521946E-01 0.30000000E+03</pdfrwt>
<pdfrwt beam="2">0</pdfrwt>
<totfact> 0.28697342E+02</totfact>
</mgrwt>
</event>
<event>
 6    1  0.1274196E-001  0.3000000E+03  0.7818608E-02  0.1093470E+00
         21   -1    0    0  501  502  0.00000000000E+00  0.00000000000E+00  0.18090132230E+01  0.18090132230E+01  0.00000000000E+00 0. -1.
         13   -1    0    0    0    0 -0.00000000000E+00 -0.00000000000E+00 -0.10000000000E+04  0.10000000000E+04  0.00000000000E+00 0.  1.
    9000005    2    1    2  501    0 -0.36614874495E+02  0.45707890696E+01 -0.74754888533E+03  0.74846536487E+03  0.30863073619E+01 0.  0.
         13    1    3    3    0    0 -0.33966284013E+02  0.42299360639E+01 -0.67491231052E+03  0.67577971832E+03  0.00000000000E+00 0.  1.
          1    1    3    3  501    0 -0.26485904819E+01  0.34085300573E+00 -0.72636574814E+02  0.72685646541E+02  0.00000000000E+00 0.  1.
         -1    1    1    2    0  502  0.36614874495E+02 -0.45707890696E+01 -0.25064210144E+03  0.25334364836E+03  0.00000000000E+00 0. -1.
<mgrwt>
<rscale>  1 0.30000000E+03</rscale>
<asrwt>0</asrwt>
<pdfrwt beam="1">  1       21 0.65782438E-02 0.30000000E+03</pdfrwt>
<pdfrwt beam="2">0</pdfrwt>
<totfact> 0.17973661E+04</totfact>
</mgrwt>
</event>
<event>
 6    1  0.1274196E-001  0.3000000E+03  0.7818608E-02  0.1093470E+00
         21   -1    0    0  501  502  0.00000000000E+00  0.00000000000E+00  0.11810858577E+02  0.11810858577E+02  0.00000000000E+00 0. -1.
         13   -1    0    0    0    0 -0.00000000000E+00 -0.00000000000E+00 -0.10000000000E+04  0.10000000000E+04  0.00000000000E+00 0.  1.
    9000005    2    1    2  501    0 -0.45870883344E+02 -0.68584152985E+02 -0.82327651217E+03  0.82740885407E+03  0.36431198441E+01 0.  0.
         13    1    3    3    0    0 -0.44800518712E+02 -0.67282290874E+02 -0.80083776552E+03  0.80490690134E+03  0.00000000000E+00 0.  1.
          3    1    3    3  501    0 -0.10703646320E+01 -0.13018621112E+01 -0.22438746649E+02  0.22501952728E+02  0.00000000000E+00 0.  1.
         -3    1    1    2    0  502  0.45870883344E+02  0.68584152985E+02 -0.16491262926E+03  0.18440200451E+03  0.00000000000E+00 0. -1.
<mgrwt>
<rscale>  1 0.30000000E+03</rscale>
<asrwt>0</asrwt>
<pdfrwt beam="1">  1       21 0.42948667E-01 0.30000000E+03</pdfrwt>
<pdfrwt beam="2">0</pdfrwt>
<totfact> 0.52011333E+02</totfact>
</mgrwt>
</event>
<event>
 6    1  0.1274196E-001  0.3000000E+03  0.7818608E-02  0.1093470E+00
         21   -1    0    0  501  502  0.00000000000E+00  0.00000000000E+00  0.73795160396E+01  0.73795160396E+01  0.00000000000E+00 0. -1.
         13   -1    0    0    0    0 -0.00000000000E+00 -0.00000000000E+00 -0.10000000000E+04  0.10000000000E+04  0.00000000000E+00 0.  1.
    9000005    2    1    2  501    0 -0.29520201575E+02 -0.39966201406E+02 -0.90715846755E+03  0.90852358144E+03  0.31421705900E+01 0.  0.
         13    1    3    3    0    0 -0.21355112470E+02 -0.27781147977E+02 -0.61579128381E+03  0.61678743359E+03  0.00000000000E+00 0.  1.
          1    1    3    3  501    0 -0.81650891054E+01 -0.12185053428E+02 -0.29136718374E+03  0.29173614786E+03  0.00000000000E+00 0.  1.
         -1    1    1    2    0  502  0.29520201575E+02  0.39966201406E+02 -0.85462016411E+02  0.98855934596E+02  0.00000000000E+00 0. -1.
<mgrwt>
<rscale>  1 0.30000000E+03</rscale>
<asrwt>0</asrwt>
<pdfrwt beam="1">  1       21 0.26834660E-01 0.30000000E+03</pdfrwt>
<pdfrwt beam="2">0</pdfrwt>
<totfact> 0.13568337E+03</totfact>
</mgrwt>
</event>
<event>
 6    1  0.1274196E-001  0.3000000E+03  0.7818608E-02  0.1093470E+00
         21   -1    0    0  501  502  0.00000000000E+00  0.00000000000E+00  0.12596075457E+01  0.12596075457E+01  0.00000000000E+00 0. -1.
         13   -1    0    0    0    0 -0.00000000000E+00 -0.00000000000E+00 -0.10000000000E+04  0.10000000000E+04  0.00000000000E+00 0.  1.
    9000005    2    1    2  501    0  0.29039713830E+02  0.18977025482E+02 -0.40795783063E+03  0.40945941506E+03  0.48978086937E+01 0.  0.
         13    1    3    3    0    0  0.20234455052E+02  0.13787057690E+02 -0.26069858665E+03  0.26184588828E+03  0.00000000000E+00 0.  1.
          3    1    3    3  501    0  0.88052587778E+01  0.51899677918E+01 -0.14725924398E+03  0.14761352677E+03  0.00000000000E+00 0.  1.
         -3    1    1    2    0  502 -0.29039713830E+02 -0.18977025482E+02 -0.59078256182E+03  0.59180019249E+03  0.00000000000E+00 0. -1.
<mgrwt>
<rscale>  1 0.30000000E+03</rscale>
<asrwt>0</asrwt>
<pdfrwt beam="1">  1       21 0.45804007E-02 0.30000000E+03</pdfrwt>
<pdfrwt beam="2">0</pdfrwt>
<totfact> 0.33437454E+04</totfact>
</mgrwt>
</event>
<event>
 6    1  0.1274196E-001  0.3000000E+03  0.7818608E-02  0.1093470E+00
         21   -1    0    0  501  502  0.00000000000E+00  0.00000000000E+00  0.12243062001E+01  0.12243062001E+01  0.00000000000E+00 0. -1.
         13   -1    0    0    0    0 -0.00000000000E+00 -0.00000000000E+00 -0.10000000000E+04  0.10000000000E+04  0.00000000000E+00 0.  1.
    9000005    2    1    2  501    0 -0.34428890149E+02  0.22155276108E+01 -0.57516448324E+03  0.57621052437E+03  0.37587985256E+01 0.  0.
         13    1    3    3    0    0 -0.26169563491E+02  0.53480553241E+00 -0.45305535742E+03  0.45381085152E+03  0.00000000000E+00 0.  1.
          1    1    3    3  501    0 -0.82593266578E+01  0.16807220784E+01 -0.12210912582E+03  0.12239967285E+03  0.00000000000E+00 0.  1.
         -3    1    1    2    0  502  0.34428890149E+02 -0.22155276108E+01 -0.42361121056E+03  0.42501378183E+03  0.00000000000E+00 0. -1.
<mgrwt>
<rscale>  1 0.30000000E+03</rscale>
<asrwt>0</asrwt>
<pdfrwt beam="1">  1       21 0.44520319E-02 0.30000000E+03</pdfrwt>
<pdfrwt beam="2">0</pdfrwt>
<totfact> 0.35090285E+04</totfact>
</mgrwt>
</event>
<event>
 6    1  0.1274196E-001  0.3000000E+03  0.7818608E-02  0.1093470E+00
         21   -1    0    0  501  502  0.00000000000E+00  0.00000000000E+00  0.12499537370E+01  0.12499537370E+01  0.00000000000E+00 0. -1.
         13   -1    0    0    0    0 -0.00000000000E+00 -0.00000000000E+00 -0.10000000000E+04  0.10000000000E+04  0.00000000000E+00 0.  1.
    9000005    2    1    2  501    0  0.24959651920E+02  0.22294734291E+02 -0.65900077353E+03  0.65985632796E+03  0.28835099702E+01 0.  0.
         13    1    3    3    0    0  0.20147294131E+02  0.16615855374E+02 -0.50047755718E+03  0.50115844337E+03  0.00000000000E+00 0.  1.
          3    1    3    3  501    0  0.48123577882E+01  0.56788789172E+01 -0.15852321635E+03  0.15869788459E+03  0.00000000000E+00 0.  1.
         -1    1    1    2    0  502 -0.24959651920E+02 -0.22294734291E+02 -0.33974927273E+03  0.34139362578E+03  0.00000000000E+00 0. -1.
<mgrwt>
<rscale>  1 0.30000000E+03</rscale>
<asrwt>0</asrwt>
<pdfrwt beam="1">  1       21 0.45452959E-02 0.30000000E+03</pdfrwt>
<pdfrwt beam="2">0</pdfrwt>
<totfact> 0.33877278E+04</totfact>
</mgrwt>
</event>
<event>
 6    1  0.1274196E-001  0.3000000E+03  0.7818608E-02  0.1093470E+00
         21   -1    0    0  501  502  0.00000000000E+00  0.00000000000E+00  0.29139914508E+01  0.29139914508E+01  0.00000000000E+00 0. -1.
         13   -1    0    0    0    0 -0.00000000000E+00 -0.00000000000E+00 -0.10000000000E+04  0.10000000000E+04  0.00000000000E+00 0.  1.
    9000005    2    1    2  501    0  0.57498762988E+01 -0.32234325136E+02 -0.89707253935E+03  0.89767708340E+03  0.35906009657E+01 0.  0.
         13    1    3    3    0    0  0.48129251987E+01 -0.24538534635E+02 -0.64219168390E+03  0.64267835097E+03  0.00000000000E+00 0.  1.
          3    1    3    3  501    0  0.93695110010E+00 -0.76957905009E+01 -0.25488085545E+03  0.25499873243E+03  0.00000000000E+00 0.  1.
         -3    1    1    2    0  502 -0.57498762988E+01  0.32234325136E+02 -0.10001346920E+03  0.10523690805E+03  0.00000000000E+00 0. -1.
<mgrwt>
<rscale>  1 0.30000000E+03</rscale>
<asrwt>0</asrwt>
<pdfrwt beam="1">  1       21 0.10596355E-01 0.30000000E+03</pdfrwt>
<pdfrwt beam="2">0</pdfrwt>
<totfact> 0.77557817E+03</totfact>
</mgrwt>
</event>
<event>
 6    1  0.1274196E-001  0.3000000E+03  0.7818608E-02  0.1093470E+00
         21   -1    0    0  501  502  0.00000000000E+00  0.00000000000E+00  0.13689892418E+01  0.13689892418E+01  0.00000000000E+00 0. -1.
         13   -1    0    0    0    0 -0.00000000000E+00 -0.00000000000E+00 -0.10000000000E+04  0.10000000000E+04  0.00000000000E+00 0.  1.
    9000005    2    1    2  501    0  0.27685081091E+02  0.15055257748E+02 -0.76095256006E+03  0.76161042229E+03  0.29175635316E+01 0.  0.
         13    1    3    3    0    0  0.99594623879E+00  0.12524109721E+01 -0.36934743443E+02  0.36969388896E+02  0.00000000000E+00 0.  1.
          3    1    3    3  501    0  0.26689134852E+02  0.13802846776E+02 -0.72401781662E+03  0.72464103339E+03  0.00000000000E+00 0.  1.
         -3    1    1    2    0  502 -0.27685081091E+02 -0.15055257748E+02 -0.23767845070E+03  0.23975856695E+03  0.00000000000E+00 0. -1.
<mgrwt>
<rscale>  1 0.30000000E+03</rscale>
<asrwt>0</asrwt>
<pdfrwt beam="1">  1       21 0.49781532E-02 0.30000000E+03</pdfrwt>
<pdfrwt beam="2">0</pdfrwt>
<totfact> 0.29020460E+04</totfact>
</mgrwt>
</event>
<event>
 6    1  0.1274196E-001  0.3000000E+03  0.7818608E-02  0.1093470E+00
         21   -1    0    0  501  502  0.00000000000E+00  0.00000000000E+00  0.56929604063E+01  0.56929604063E+01  0.00000000000E+00 0. -1.
         13   -1    0    0    0    0 -0.00000000000E+00 -0.00000000000E+00 -0.10000000000E+04  0.10000000000E+04  0.00000000000E+00 0.  1.
    9000005    2    1    2  501    0  0.18776411012E+02  0.66282907029E+02 -0.70184383129E+03  0.70522548199E+03  0.34985073131E+01 0.  0.
         13    1    3    3    0    0  0.13358412512E+02  0.52428448388E+02 -0.55107502894E+03  0.55372454967E+03  0.00000000000E+00 0.  1.
          3    1    3    3  501    0  0.54179984997E+01  0.13854458640E+02 -0.15076880235E+03  0.15150093232E+03  0.00000000000E+00 0.  1.
         -1    1    1    2    0  502 -0.18776411012E+02 -0.66282907029E+02 -0.29246320830E+03  0.30046747842E+03  0.00000000000E+00 0. -1.
<mgrwt>
<rscale>  1 0.30000000E+03</rscale>
<asrwt>0</asrwt>
<pdfrwt beam="1">  1       21 0.20701718E-01 0.30000000E+03</pdfrwt>
<pdfrwt beam="2">0</pdfrwt>
<totfact> 0.22461437E+03</totfact>
</mgrwt>
</event>
<event>
 6    1  0.1274196E-001  0.3000000E+03  0.7818608E-02  0.1093470E+00
         21   -1    0    0  501  502  0.00000000000E+00  0.00000000000E+00  0.11258045391E+01  0.11258045391E+01  0.00000000000E+00 0. -1.
         13   -1    0    0    0    0 -0.00000000000E+00 -0.00000000000E+00 -0.10000000000E+04  0.10000000000E+04  0.00000000000E+00 0.  1.
    9000005    2    1    2  501    0 -0.29321728790E+02  0.13535784317E+02 -0.62969477513E+03  0.63053650946E+03  0.42188495275E+01 0.  0.
         13    1    3    3    0    0 -0.16508251519E+02  0.79486140168E+01 -0.39655011631E+03  0.39697316985E+03  0.00000000000E+00 0.  1.
          3    1    3    3  501    0 -0.12813477271E+02  0.55871702998E+01 -0.23314465882E+03  0.23356333960E+03  0.00000000000E+00 0.  1.
         -3    1    1    2    0  502  0.29321728790E+02 -0.13535784317E+02 -0.36917942033E+03  0.37058929508E+03  0.00000000000E+00 0. -1.
<mgrwt>
<rscale>  1 0.30000000E+03</rscale>
<asrwt>0</asrwt>
<pdfrwt beam="1">  1       21 0.40938433E-02 0.30000000E+03</pdfrwt>
<pdfrwt beam="2">0</pdfrwt>
<totfact> 0.40435967E+04</totfact>
</mgrwt>
</event>
<event>
 6    1  0.1274196E-001  0.3000000E+03  0.7818608E-02  0.1093470E+00
         21   -1    0    0  501  502  0.00000000000E+00  0.00000000000E+00  0.83338642803E+01  0.83338642803E+01  0.00000000000E+00 0. -1.
         13   -1    0    0    0    0 -0.00000000000E+00 -0.00000000000E+00 -0.10000000000E+04  0.10000000000E+04  0.00000000000E+00 0.  1.
    9000005    2    1    2  501    0 -0.24439736901E+02  0.55495836483E+02 -0.87264512571E+03  0.87475583678E+03  0.33421477119E+01 0.  0.
         13    1    3    3    0    0 -0.11828823412E+01  0.41933353479E+01 -0.72045845771E+02  0.72177469926E+02  0.00000000000E+00 0.  1.
          1    1    3    3  501    0 -0.23256854560E+02  0.51302501135E+02 -0.80059927994E+03  0.80257836685E+03  0.00000000000E+00 0.  1.
         -1    1    1    2    0  502  0.24439736901E+02 -0.55495836483E+02 -0.11902101001E+03  0.13357802750E+03  0.00000000000E+00 0. -1.
<mgrwt>
<rscale>  1 0.30000000E+03</rscale>
<asrwt>0</asrwt>
<pdfrwt beam="1">  1       21 0.30305025E-01 0.30000000E+03</pdfrwt>
<pdfrwt beam="2">0</pdfrwt>
<totfact> 0.10654815E+03</totfact>
</mgrwt>
</event>
<event>
 6    1  0.1274196E-001  0.3000000E+03  0.7818608E-02  0.1093470E+00
         21   -1    0    0  501  502  0.00000000000E+00  0.00000000000E+00  0.10086121623E+01  0.10086121623E+01  0.00000000000E+00 0. -1.
         13   -1    0    0    0    0 -0.00000000000E+00 -0.00000000000E+00 -0.10000000000E+04  0.10000000000E+04  0.00000000000E+00 0.  1.
    9000005    2    1    2  501    0  0.17155410711E+02 -0.25750189049E+02 -0.42037836398E+03  0.42156887265E+03  0.67056042967E+01 0.  0.
         13    1    3    3    0    0  0.10521364992E+00 -0.40761588068E+01 -0.51537470225E+02  0.51698520072E+02  0.00000000000E+00 0.  1.
          3    1    3    3  501    0  0.17050197061E+02 -0.21674030242E+02 -0.36884089376E+03  0.36987035258E+03  0.00000000000E+00 0.  1.
         -3    1    1    2    0  502 -0.17155410711E+02  0.25750189049E+02 -0.57861302386E+03  0.57943973951E+03  0.00000000000E+00 0. -1.
<mgrwt>
<rscale>  1 0.30000000E+03</rscale>
<asrwt>0</asrwt>
<pdfrwt beam="1">  1       21 0.36676883E-02 0.30000000E+03</pdfrwt>
<pdfrwt beam="2">0</pdfrwt>
<totfact> 0.48646264E+04</totfact>
</mgrwt>
</event>
<event>
 6    1  0.1274196E-001  0.3000000E+03  0.7818608E-02  0.1093470E+00
         21   -1    0    0  501  502  0.00000000000E+00  0.00000000000E+00  0.72438951247E+01  0.72438951247E+01  0.00000000000E+00 0. -1.
         13   -1    0    0    0    0 -0.00000000000E+00 -0.00000000000E+00 -0.10000000000E+04  0.10000000000E+04  0.00000000000E+00 0.  1.
    9000005    2    1    2  501    0 -0.15427515769E+02 -0.30584051582E+02 -0.95739110321E+03  0.95800899087E+03  0.31795645996E+01 0.  0.
         13    1    3    3    0    0 -0.44951376907E+01 -0.12312864493E+02 -0.35952060965E+03  0.35975947751E+03  0.00000000000E+00 0.  1.
          3    1    3    3  501    0 -0.10932378079E+02 -0.18271187089E+02 -0.59787049356E+03  0.59824951336E+03  0.00000000000E+00 0.  1.
         -1    1    1    2    0  502  0.15427515769E+02  0.30584051582E+02 -0.35365001663E+02  0.49234904251E+02  0.00000000000E+00 0. -1.
<mgrwt>
<rscale>  1 0.30000000E+03</rscale>
<asrwt>0</asrwt>
<pdfrwt beam="1">  1       21 0.26341492E-01 0.30000000E+03</pdfrwt>
<pdfrwt beam="2">0</pdfrwt>
<totfact> 0.14073851E+03</totfact>
</mgrwt>
</event>
<event>
 6    1  0.1274196E-001  0.3000000E+03  0.7818608E-02  0.1093470E+00
         21   -1    0    0  501  502  0.00000000000E+00  0.00000000000E+00  0.47403621530E+01  0.47403621530E+01  0.00000000000E+00 0. -1.
         13   -1    0    0    0    0 -0.00000000000E+00 -0.00000000000E+00 -0.10000000000E+04  0.10000000000E+04  0.00000000000E+00 0.  1.
    9000005    2    1    2  501    0 -0.37609656074E+02  0.63061956547E+00 -0.91839600375E+03  0.91916640491E+03  0.88108232274E+00 0.  0.
         13    1    3    3    0    0 -0.13874154862E+02  0.54999664695E+00 -0.34590413368E+03  0.34618270374E+03  0.00000000000E+00 0.  1.
          3    1    3    3  501    0 -0.23735501212E+02  0.80622918519E-01 -0.57249187007E+03  0.57298370118E+03  0.00000000000E+00 0.  1.
         -3    1    1    2    0  502  0.37609656074E+02 -0.63061956547E+00 -0.76863634097E+02  0.85573957240E+02  0.00000000000E+00 0. -1.
<mgrwt>
<rscale>  1 0.30000000E+03</rscale>
<asrwt>0</asrwt>
<pdfrwt beam="1">  1       21 0.17237717E-01 0.30000000E+03</pdfrwt>
<pdfrwt beam="2">0</pdfrwt>
<totfact> 0.31777351E+03</totfact>
</mgrwt>
</event>
<event>
 6    1  0.1274196E-001  0.3000000E+03  0.7818608E-02  0.1093470E+00
         21   -1    0    0  501  502  0.00000000000E+00  0.00000000000E+00  0.13488442106E+02  0.13488442106E+02  0.00000000000E+00 0. -1.
         13   -1    0    0    0    0 -0.00000000000E+00 -0.00000000000E+00 -0.10000000000E+04  0.10000000000E+04  0.00000000000E+00 0.  1.
    9000005    2    1    2  501    0  0.28764973798E+02  0.14771260330E+02 -0.97995655991E+03  0.98049477835E+03  0.30882389133E+01 0.  0.
         13    1    3    3    0    0  0.21905617504E+02  0.12684578868E+02 -0.76518025421E+03  0.76559883493E+03  0.00000000000E+00 0.  1.
          3    1    3    3  501    0  0.68593562946E+01  0.20866814628E+01 -0.21477630570E+03  0.21489594342E+03  0.00000000000E+00 0.  1.
         -3    1    1    2    0  502 -0.28764973798E+02 -0.14771260330E+02 -0.65549979872E+01  0.32993663755E+02  0.00000000000E+00 0. -1.
<mgrwt>
<rscale>  1 0.30000000E+03</rscale>
<asrwt>0</asrwt>
<pdfrwt beam="1">  1       21 0.49048984E-01 0.30000000E+03</pdfrwt>
<pdfrwt beam="2">0</pdfrwt>
<totfact> 0.39166545E+02</totfact>
</mgrwt>
</event>
<event>
 6    1  0.1274196E-001  0.3000000E+03  0.7818608E-02  0.1093470E+00
         21   -1    0    0  501  502  0.00000000000E+00  0.00000000000E+00  0.92370866932E+01  0.92370866932E+01  0.00000000000E+00 0. -1.
         13   -1    0    0    0    0 -0.00000000000E+00 -0.00000000000E+00 -0.10000000000E+04  0.10000000000E+04  0.00000000000E+00 0.  1.
    9000005    2    1    2  501    0  0.18330151919E+02  0.33808348530E+02 -0.95782685053E+03  0.95860327258E+03  0.29932794112E+01 0.  0.
         13    1    3    3    0    0  0.15182790204E+02  0.28716368391E+02 -0.83265756958E+03  0.83329093065E+03  0.00000000000E+00 0.  1.
          1    1    3    3  501    0  0.31473617141E+01  0.50919801389E+01 -0.12516928095E+03  0.12531234193E+03  0.00000000000E+00 0.  1.
         -1    1    1    2    0  502 -0.18330151919E+02 -0.33808348530E+02 -0.32936062781E+02  0.50633814109E+02  0.00000000000E+00 0. -1.
<mgrwt>
<rscale>  1 0.30000000E+03</rscale>
<asrwt>0</asrwt>
<pdfrwt beam="1">  1       21 0.33589477E-01 0.30000000E+03</pdfrwt>
<pdfrwt beam="2">0</pdfrwt>
<totfact> 0.86547892E+02</totfact>
</mgrwt>
</event>
<event>
 6    1  0.1274196E-001  0.3000000E+03  0.7818608E-02  0.1093470E+00
         21   -1    0    0  501  502  0.00000000000E+00  0.00000000000E+00  0.27457102853E+01  0.27457102853E+01  0.00000000000E+00 0. -1.
         13   -1    0    0    0    0 -0.00000000000E+00 -0.00000000000E+00 -0.10000000000E+04  0.10000000000E+04  0.00000000000E+00 0.  1.
    9000005    2    1    2  501    0  0.49388532901E+02  0.17286938814E+02 -0.48283318957E+03  0.48567015129E+03  0.30889267583E+01 0.  0.
         13    1    3    3    0    0  0.35688300594E+02  0.13718944408E+02 -0.34545048340E+03  0.34755992392E+03  0.00000000000E+00 0.  1.
          3    1    3    3  501    0  0.13700232307E+02  0.35679944053E+01 -0.13738270617E+03  0.13811022737E+03  0.00000000000E+00 0.  1.
         -1    1    1    2    0  502 -0.49388532901E+02 -0.17286938814E+02 -0.51442110015E+03  0.51707555900E+03  0.00000000000E+00 0. -1.
<mgrwt>
<rscale>  1 0.30000000E+03</rscale>
<asrwt>0</asrwt>
<pdfrwt beam="1">  1       21 0.99844221E-02 0.30000000E+03</pdfrwt>
<pdfrwt beam="2">0</pdfrwt>
<totfact> 0.86271958E+03</totfact>
</mgrwt>
</event>
<event>
 6    1  0.1274196E-001  0.3000000E+03  0.7818608E-02  0.1093470E+00
         21   -1    0    0  501  502  0.00000000000E+00  0.00000000000E+00  0.12308726302E+01  0.12308726302E+01  0.00000000000E+00 0. -1.
         13   -1    0    0    0    0 -0.00000000000E+00 -0.00000000000E+00 -0.10000000000E+04  0.10000000000E+04  0.00000000000E+00 0.  1.
    9000005    2    1    2  501    0  0.34348931675E+02 -0.25536874491E+01 -0.41587751407E+03  0.41732248660E+03  0.41929324052E+01 0.  0.
         13    1    3    3    0    0  0.33242514317E+02 -0.25021052758E+01 -0.39033434564E+03  0.39175531480E+03  0.00000000000E+00 0.  1.
          3    1    3    3  501    0  0.11064173580E+01 -0.51582173268E-01 -0.25543168432E+02  0.25567171795E+02  0.00000000000E+00 0.  1.
         -3    1    1    2    0  502 -0.34348931675E+02  0.25536874491E+01 -0.58289161330E+03  0.58390838603E+03  0.00000000000E+00 0. -1.
<mgrwt>
<rscale>  1 0.30000000E+03</rscale>
<asrwt>0</asrwt>
<pdfrwt beam="1">  1       21 0.44759099E-02 0.30000000E+03</pdfrwt>
<pdfrwt beam="2">0</pdfrwt>
<totfact> 0.34773418E+04</totfact>
</mgrwt>
</event>
<event>
 6    1  0.1274196E-001  0.3000000E+03  0.7818608E-02  0.1093470E+00
         21   -1    0    0  501  502  0.00000000000E+00  0.00000000000E+00  0.19050090540E+01  0.19050090540E+01  0.00000000000E+00 0. -1.
         13   -1    0    0    0    0 -0.00000000000E+00 -0.00000000000E+00 -0.10000000000E+04  0.10000000000E+04  0.00000000000E+00 0.  1.
    9000005    2    1    2  501    0  0.92278528011E+01 -0.29682950959E+02 -0.14856909486E+03  0.15181061490E+03  0.27305686189E+01 0.  0.
         13    1    3    3    0    0  0.45350287333E+01 -0.18241686410E+02 -0.93366280700E+02  0.95239634504E+02  0.00000000000E+00 0.  1.
          1    1    3    3  501    0  0.46928240678E+01 -0.11441264549E+02 -0.55202814159E+02  0.56570980398E+02  0.00000000000E+00 0.  1.
         -3    1    1    2    0  502 -0.92278528011E+01  0.29682950959E+02 -0.84952589609E+03  0.85009439415E+03  0.00000000000E+00 0. -1.
<mgrwt>
<rscale>  1 0.30000000E+03</rscale>
<asrwt>0</asrwt>
<pdfrwt beam="1">  1       21 0.69273203E-02 0.30000000E+03</pdfrwt>
<pdfrwt beam="2">0</pdfrwt>
<totfact> 0.16430922E+04</totfact>
</mgrwt>
</event>
<event>
 6    1  0.1274196E-001  0.3000000E+03  0.7818608E-02  0.1093470E+00
         21   -1    0    0  501  502  0.00000000000E+00  0.00000000000E+00  0.14416105729E+01  0.14416105729E+01  0.00000000000E+00 0. -1.
         13   -1    0    0    0    0 -0.00000000000E+00 -0.00000000000E+00 -0.10000000000E+04  0.10000000000E+04  0.00000000000E+00 0.  1.
    9000005    2    1    2  501    0 -0.18890443876E+02 -0.26933915658E+02 -0.74399071411E+03  0.74475700644E+03  0.76505736410E+01 0.  0.
         13    1    3    3    0    0 -0.13000955162E+02 -0.12319716191E+02 -0.36584859716E+03  0.36628676783E+03  0.00000000000E+00 0.  1.
          1    1    3    3  501    0 -0.58894887141E+01 -0.14614199467E+02 -0.37814211695E+03  0.37847023861E+03  0.00000000000E+00 0.  1.
         -3    1    1    2    0  502  0.18890443876E+02  0.26933915658E+02 -0.25456767532E+03  0.25668460414E+03  0.00000000000E+00 0. -1.
<mgrwt>
<rscale>  1 0.30000000E+03</rscale>
<asrwt>0</asrwt>
<pdfrwt beam="1">  1       21 0.52422313E-02 0.30000000E+03</pdfrwt>
<pdfrwt beam="2">0</pdfrwt>
<totfact> 0.26570099E+04</totfact>
</mgrwt>
</event>
<event>
 6    1  0.1274196E-001  0.3000000E+03  0.7818608E-02  0.1093470E+00
         21   -1    0    0  501  502  0.00000000000E+00  0.00000000000E+00  0.12923117220E+01  0.12923117220E+01  0.00000000000E+00 0. -1.
         13   -1    0    0    0    0 -0.00000000000E+00 -0.00000000000E+00 -0.10000000000E+04  0.10000000000E+04  0.00000000000E+00 0.  1.
    9000005    2    1    2  501    0  0.26127491215E+02 -0.24366553351E+02 -0.45681763945E+03  0.45822583353E+03  0.34905701709E+01 0.  0.
         13    1    3    3    0    0  0.21072460749E+02 -0.17665156675E+02 -0.34672583886E+03  0.34781448172E+03  0.00000000000E+00 0.  1.
          3    1    3    3  501    0  0.50550304660E+01 -0.67013966761E+01 -0.11009180059E+03  0.11041135180E+03  0.00000000000E+00 0.  1.
         -3    1    1    2    0  502 -0.26127491215E+02  0.24366553351E+02 -0.54189004883E+03  0.54306647819E+03  0.00000000000E+00 0. -1.
<mgrwt>
<rscale>  1 0.30000000E+03</rscale>
<asrwt>0</asrwt>
<pdfrwt beam="1">  1       21 0.46993253E-02 0.30000000E+03</pdfrwt>
<pdfrwt beam="2">0</pdfrwt>
<totfact> 0.32012146E+04</totfact>
</mgrwt>
</event>
<event>
 6    1  0.1274196E-001  0.3000000E+03  0.7818608E-02  0.1093470E+00
         21   -1    0    0  501  502  0.00000000000E+00  0.00000000000E+00  0.37515224645E+01  0.37515224645E+01  0.00000000000E+00 0. -1.
         13   -1    0    0    0    0 -0.00000000000E+00 -0.00000000000E+00 -0.10000000000E+04  0.10000000000E+04  0.00000000000E+00 0.  1.
    9000005    2    1    2  501    0  0.30632891143E+02 -0.31267720022E+02 -0.84896262710E+03  0.85009877737E+03  0.37874458976E+01 0.  0.
         13    1    3    3    0    0  0.10648043179E+02 -0.84791910868E+01 -0.25318189765E+03  0.25354753164E+03  0.00000000000E+00 0.  1.
          1    1    3    3  501    0  0.19984847964E+02 -0.22788528935E+02 -0.59578072945E+03  0.59655124573E+03  0.00000000000E+00 0.  1.
         -3    1    1    2    0  502 -0.30632891143E+02  0.31267720022E+02 -0.14728585044E+03  0.15365274509E+03  0.00000000000E+00 0. -1.
<mgrwt>
<rscale>  1 0.30000000E+03</rscale>
<asrwt>0</asrwt>
<pdfrwt beam="1">  1       21 0.13641929E-01 0.30000000E+03</pdfrwt>
<pdfrwt beam="2">0</pdfrwt>
<totfact> 0.49044147E+03</totfact>
</mgrwt>
</event>
<event>
 6    1  0.1274196E-001  0.3000000E+03  0.7818608E-02  0.1093470E+00
         21   -1    0    0  501  502  0.00000000000E+00  0.00000000000E+00  0.99828000323E+00  0.99828000323E+00  0.00000000000E+00 0. -1.
         13   -1    0    0    0    0 -0.00000000000E+00 -0.00000000000E+00 -0.10000000000E+04  0.10000000000E+04  0.00000000000E+00 0.  1.
    9000005    2    1    2  501    0 -0.32532430728E+01  0.30417776403E+02 -0.61809733947E+03  0.61886744925E+03  0.40956028594E+01 0.  0.
         13    1    3    3    0    0 -0.81885480070E+00  0.70063200516E+01 -0.11076521403E+03  0.11098960169E+03  0.00000000000E+00 0.  1.
          1    1    3    3  501    0 -0.24343882721E+01  0.23411456352E+02 -0.50733212544E+03  0.50787784756E+03  0.00000000000E+00 0.  1.
         -3    1    1    2    0  502  0.32532430728E+01 -0.30417776403E+02 -0.38090438053E+03  0.38213083076E+03  0.00000000000E+00 0. -1.
<mgrwt>
<rscale>  1 0.30000000E+03</rscale>
<asrwt>0</asrwt>
<pdfrwt beam="1">  1       21 0.36301168E-02 0.30000000E+03</pdfrwt>
<pdfrwt beam="2">0</pdfrwt>
<totfact> 0.49493907E+04</totfact>
</mgrwt>
</event>
<event>
 6    1  0.1274196E-001  0.3000000E+03  0.7818608E-02  0.1093470E+00
         21   -1    0    0  501  502  0.00000000000E+00  0.00000000000E+00  0.11456070779E+01  0.11456070779E+01  0.00000000000E+00 0. -1.
         13   -1    0    0    0    0 -0.00000000000E+00 -0.00000000000E+00 -0.10000000000E+04  0.10000000000E+04  0.00000000000E+00 0.  1.
    9000005    2    1    2  501    0  0.10109779179E+02  0.30294443919E+02 -0.66296925292E+03  0.66374556522E+03  0.31597582862E+01 0.  0.
         13    1    3    3    0    0  0.42787654292E+01  0.86587701122E+01 -0.21235833559E+03  0.21257785592E+03  0.00000000000E+00 0.  1.
          1    1    3    3  501    0  0.58310137497E+01  0.21635673807E+02 -0.45061091733E+03  0.45116770931E+03  0.00000000000E+00 0.  1.
         -3    1    1    2    0  502 -0.10109779179E+02 -0.30294443919E+02 -0.33588514001E+03  0.33740004185E+03  0.00000000000E+00 0. -1.
<mgrwt>
<rscale>  1 0.30000000E+03</rscale>
<asrwt>0</asrwt>
<pdfrwt beam="1">  1       21 0.41658527E-02 0.30000000E+03</pdfrwt>
<pdfrwt beam="2">0</pdfrwt>
<totfact> 0.39263874E+04</totfact>
</mgrwt>
</event>
<event>
 6    1  0.1274196E-001  0.3000000E+03  0.7818608E-02  0.1093470E+00
         21   -1    0    0  501  502  0.00000000000E+00  0.00000000000E+00  0.21115226086E+01  0.21115226086E+01  0.00000000000E+00 0. -1.
         13   -1    0    0    0    0 -0.00000000000E+00 -0.00000000000E+00 -0.10000000000E+04  0.10000000000E+04  0.00000000000E+00 0.  1.
    9000005    2    1    2  501    0 -0.32515323741E+02 -0.12673425933E+02 -0.82362676604E+03  0.82438981306E+03  0.62969938805E+01 0.  0.
         13    1    3    3    0    0 -0.20761074102E+02 -0.91930542754E+01 -0.59717080934E+03  0.59760230084E+03  0.00000000000E+00 0.  1.
          1    1    3    3  501    0 -0.11754249639E+02 -0.34803716573E+01 -0.22645595671E+03  0.22678751222E+03  0.00000000000E+00 0.  1.
         -3    1    1    2    0  502  0.32515323741E+02  0.12673425933E+02 -0.17426171135E+03  0.17772170955E+03  0.00000000000E+00 0. -1.
<mgrwt>
<rscale>  1 0.30000000E+03</rscale>
<asrwt>0</asrwt>
<pdfrwt beam="1">  1       21 0.76782802E-02 0.30000000E+03</pdfrwt>
<pdfrwt beam="2">0</pdfrwt>
<totfact> 0.13727730E+04</totfact>
</mgrwt>
</event>
<event>
 6    1  0.1274196E-001  0.3000000E+03  0.7818608E-02  0.1093470E+00
         21   -1    0    0  501  502  0.00000000000E+00  0.00000000000E+00  0.13099431375E+01  0.13099431375E+01  0.00000000000E+00 0. -1.
         13   -1    0    0    0    0 -0.00000000000E+00 -0.00000000000E+00 -0.10000000000E+04  0.10000000000E+04  0.00000000000E+00 0.  1.
    9000005    2    1    2  501    0  0.21065077204E+02 -0.25528068640E+02 -0.69201818710E+03  0.69285726368E+03  0.81606849674E+01 0.  0.
         13    1    3    3    0    0  0.49299912605E+01 -0.12115599274E+02 -0.25262169615E+03  0.25296010342E+03  0.00000000000E+00 0.  1.
          1    1    3    3  501    0  0.16135085944E+02 -0.13412469366E+02 -0.43939649096E+03  0.43989716025E+03  0.00000000000E+00 0.  1.
         -3    1    1    2    0  502 -0.21065077204E+02  0.25528068640E+02 -0.30667186976E+03  0.30845267946E+03  0.00000000000E+00 0. -1.
<mgrwt>
<rscale>  1 0.30000000E+03</rscale>
<asrwt>0</asrwt>
<pdfrwt beam="1">  1       21 0.47634396E-02 0.30000000E+03</pdfrwt>
<pdfrwt beam="2">0</pdfrwt>
<totfact> 0.31282843E+04</totfact>
</mgrwt>
</event>
<event>
 6    1  0.1274196E-001  0.3000000E+03  0.7818608E-02  0.1093470E+00
         21   -1    0    0  501  502  0.00000000000E+00  0.00000000000E+00  0.16412885389E+01  0.16412885389E+01  0.00000000000E+00 0. -1.
         13   -1    0    0    0    0 -0.00000000000E+00 -0.00000000000E+00 -0.10000000000E+04  0.10000000000E+04  0.00000000000E+00 0.  1.
    9000005    2    1    2  501    0  0.34659544147E+02 -0.14841077220E+02 -0.67478445592E+03  0.67587781542E+03  0.74308709941E+01 0.  0.
         13    1    3    3    0    0  0.12206594884E+02 -0.68865691715E+01 -0.30981932119E+03  0.31013615974E+03  0.00000000000E+00 0.  1.
          3    1    3    3  501    0  0.22452949263E+02 -0.79545080489E+01 -0.36496513473E+03  0.36574165568E+03  0.00000000000E+00 0.  1.
         -3    1    1    2    0  502 -0.34659544147E+02  0.14841077220E+02 -0.32357425554E+03  0.32576347312E+03  0.00000000000E+00 0. -1.
<mgrwt>
<rscale>  1 0.30000000E+03</rscale>
<asrwt>0</asrwt>
<pdfrwt beam="1">  1       21 0.59683345E-02 0.30000000E+03</pdfrwt>
<pdfrwt beam="2">0</pdfrwt>
<totfact> 0.21264826E+04</totfact>
</mgrwt>
</event>
<event>
 6    1  0.1274196E-001  0.3000000E+03  0.7818608E-02  0.1093470E+00
         21   -1    0    0  501  502  0.00000000000E+00  0.00000000000E+00  0.17610346028E+01  0.17610346028E+01  0.00000000000E+00 0. -1.
         13   -1    0    0    0    0 -0.00000000000E+00 -0.00000000000E+00 -0.10000000000E+04  0.10000000000E+04  0.00000000000E+00 0.  1.
    9000005    2    1    2  501    0  0.23729108682E+02 -0.26176319260E+02 -0.76862776171E+03  0.76944750692E+03  0.35439434228E+01 0.  0.
         13    1    3    3    0    0  0.81036778569E+01 -0.11306700822E+02 -0.31625391319E+03  0.31655970794E+03  0.00000000000E+00 0.  1.
          3    1    3    3  501    0  0.15625430825E+02 -0.14869618438E+02 -0.45237384852E+03  0.45288779898E+03  0.00000000000E+00 0.  1.
         -1    1    1    2    0  502 -0.23729108682E+02  0.26176319260E+02 -0.22961120368E+03  0.23231352769E+03  0.00000000000E+00 0. -1.
<mgrwt>
<rscale>  1 0.30000000E+03</rscale>
<asrwt>0</asrwt>
<pdfrwt beam="1">  1       21 0.64037757E-02 0.30000000E+03</pdfrwt>
<pdfrwt beam="2">0</pdfrwt>
<totfact> 0.18829855E+04</totfact>
</mgrwt>
</event>
<event>
 6    1  0.1274196E-001  0.3000000E+03  0.7818608E-02  0.1093470E+00
         21   -1    0    0  501  502  0.00000000000E+00  0.00000000000E+00  0.16028550170E+01  0.16028550170E+01  0.00000000000E+00 0. -1.
         13   -1    0    0    0    0 -0.00000000000E+00 -0.00000000000E+00 -0.10000000000E+04  0.10000000000E+04  0.00000000000E+00 0.  1.
    9000005    2    1    2  501    0  0.27310613248E+02  0.28684173719E+02 -0.56725525684E+03  0.56864560641E+03  0.32631040779E+01 0.  0.
         13    1    3    3    0    0  0.11097742196E+01  0.19628277068E+01 -0.40420991604E+02  0.40483834473E+02  0.00000000000E+00 0.  1.
          3    1    3    3  501    0  0.26200839028E+02  0.26721346012E+02 -0.52683426524E+03  0.52816177193E+03  0.00000000000E+00 0.  1.
         -1    1    1    2    0  502 -0.27310613248E+02 -0.28684173719E+02 -0.43114188814E+03  0.43295724861E+03  0.00000000000E+00 0. -1.
<mgrwt>
<rscale>  1 0.30000000E+03</rscale>
<asrwt>0</asrwt>
<pdfrwt beam="1">  1       21 0.58285760E-02 0.30000000E+03</pdfrwt>
<pdfrwt beam="2">0</pdfrwt>
<totfact> 0.22151247E+04</totfact>
</mgrwt>
</event>
<event>
 6    1  0.1274196E-001  0.3000000E+03  0.7818608E-02  0.1093470E+00
         21   -1    0    0  501  502  0.00000000000E+00  0.00000000000E+00  0.11439555139E+01  0.11439555139E+01  0.00000000000E+00 0. -1.
         13   -1    0    0    0    0 -0.00000000000E+00 -0.00000000000E+00 -0.10000000000E+04  0.10000000000E+04  0.00000000000E+00 0.  1.
    9000005    2    1    2  501    0  0.28637542011E+02  0.12787398472E+02 -0.68478198633E+03  0.68550786699E+03  0.33227294123E+01 0.  0.
         13    1    3    3    0    0  0.19930950916E+02  0.79056454123E+01 -0.49358774746E+03  0.49405324255E+03  0.00000000000E+00 0.  1.
          3    1    3    3  501    0  0.87065910950E+01  0.48817530599E+01 -0.19119423887E+03  0.19145462444E+03  0.00000000000E+00 0.  1.
         -1    1    1    2    0  502 -0.28637542011E+02 -0.12787398472E+02 -0.31407405816E+03  0.31563608852E+03  0.00000000000E+00 0. -1.
<mgrwt>
<rscale>  1 0.30000000E+03</rscale>
<asrwt>0</asrwt>
<pdfrwt beam="1">  1       21 0.41598470E-02 0.30000000E+03</pdfrwt>
<pdfrwt beam="2">0</pdfrwt>
<totfact> 0.39359593E+04</totfact>
</mgrwt>
</event>
<event>
 6    1  0.1274196E-001  0.3000000E+03  0.7818608E-02  0.1093470E+00
         21   -1    0    0  501  502  0.00000000000E+00  0.00000000000E+00  0.10407308514E+01  0.10407308514E+01  0.00000000000E+00 0. -1.
         13   -1    0    0    0    0 -0.00000000000E+00 -0.00000000000E+00 -0.10000000000E+04  0.10000000000E+04  0.00000000000E+00 0.  1.
    9000005    2    1    2  501    0 -0.11205690909E+02  0.29226165002E+02 -0.61144862026E+03  0.61226799617E+03  0.47903744056E+01 0.  0.
         13    1    3    3    0    0 -0.17013058881E+01  0.74281867743E+01 -0.11703955491E+03  0.11728738131E+03  0.00000000000E+00 0.  1.
          3    1    3    3  501    0 -0.95043850207E+01  0.21797978228E+02 -0.49440906534E+03  0.49498061486E+03  0.00000000000E+00 0.  1.
         -3    1    1    2    0  502  0.11205690909E+02 -0.29226165002E+02 -0.38751064889E+03  0.38877273468E+03  0.00000000000E+00 0. -1.
<mgrwt>
<rscale>  1 0.30000000E+03</rscale>
<asrwt>0</asrwt>
<pdfrwt beam="1">  1       21 0.37844838E-02 0.30000000E+03</pdfrwt>
<pdfrwt beam="2">0</pdfrwt>
<totfact> 0.46152237E+04</totfact>
</mgrwt>
</event>
<event>
 6    1  0.1274196E-001  0.3000000E+03  0.7818608E-02  0.1093470E+00
         21   -1    0    0  501  502  0.00000000000E+00  0.00000000000E+00  0.17916550756E+01  0.17916550756E+01  0.00000000000E+00 0. -1.
         13   -1    0    0    0    0 -0.00000000000E+00 -0.00000000000E+00 -0.10000000000E+04  0.10000000000E+04  0.00000000000E+00 0.  1.
    9000005    2    1    2  501    0 -0.38172204223E+02 -0.31773168549E+01 -0.71134230929E+03  0.71237960468E+03  0.30996210384E+01 0.  0.
         13    1    3    3    0    0 -0.16702473408E+01 -0.20984502899E+00 -0.45234322019E+02  0.45265634312E+02  0.00000000000E+00 0.  1.
          1    1    3    3  501    0 -0.36501956882E+02 -0.29674718259E+01 -0.66610798727E+03  0.66711397036E+03  0.00000000000E+00 0.  1.
         -3    1    1    2    0  502  0.38172204223E+02  0.31773168549E+01 -0.28686603563E+03  0.28941205040E+03  0.00000000000E+00 0. -1.
<mgrwt>
<rscale>  1 0.30000000E+03</rscale>
<asrwt>0</asrwt>
<pdfrwt beam="1">  1       21 0.65151231E-02 0.30000000E+03</pdfrwt>
<pdfrwt beam="2">0</pdfrwt>
<totfact> 0.18276355E+04</totfact>
</mgrwt>
</event>
<event>
 6    1  0.1274196E-001  0.3000000E+03  0.7818608E-02  0.1093470E+00
         21   -1    0    0  501  502  0.00000000000E+00  0.00000000000E+00  0.21898967749E+01  0.21898967749E+01  0.00000000000E+00 0. -1.
         13   -1    0    0    0    0 -0.00000000000E+00 -0.00000000000E+00 -0.10000000000E+04  0.10000000000E+04  0.00000000000E+00 0.  1.
    9000005    2    1    2  501    0 -0.18923080729E+02  0.31628565239E+02 -0.80579867530E+03  0.80667304948E+03  0.71731802093E+01 0.  0.
         13    1    3    3    0    0 -0.80144197759E+01  0.78592383517E+01 -0.20819230735E+03  0.20849468912E+03  0.00000000000E+00 0.  1.
          3    1    3    3  501    0 -0.10908660953E+02  0.23769326887E+02 -0.59760636795E+03  0.59817836036E+03  0.00000000000E+00 0.  1.
         -1    1    1    2    0  502  0.18923080729E+02 -0.31628565239E+02 -0.19201142792E+03  0.19551684729E+03  0.00000000000E+00 0. -1.
<mgrwt>
<rscale>  1 0.30000000E+03</rscale>
<asrwt>0</asrwt>
<pdfrwt beam="1">  1       21 0.79632778E-02 0.30000000E+03</pdfrwt>
<pdfrwt beam="2">0</pdfrwt>
<totfact> 0.12877502E+04</totfact>
</mgrwt>
</event>
<event>
 6    1  0.1274196E-001  0.3000000E+03  0.7818608E-02  0.1093470E+00
         21   -1    0    0  501  502  0.00000000000E+00  0.00000000000E+00  0.14729710311E+01  0.14729710311E+01  0.00000000000E+00 0. -1.
         13   -1    0    0    0    0 -0.00000000000E+00 -0.00000000000E+00 -0.10000000000E+04  0.10000000000E+04  0.00000000000E+00 0.  1.
    9000005    2    1    2  501    0  0.97926086570E+01 -0.32902874973E+02 -0.72217966045E+03  0.72300149592E+03  0.30342647196E+01 0.  0.
         13    1    3    3    0    0  0.78419102938E+01 -0.24318006905E+02 -0.51099648369E+03  0.51163489654E+03  0.00000000000E+00 0.  1.
          1    1    3    3  501    0  0.19506983632E+01 -0.85848680676E+01 -0.21118317676E+03  0.21136659937E+03  0.00000000000E+00 0.  1.
         -3    1    1    2    0  502 -0.97926086570E+01  0.32902874973E+02 -0.27634736852E+03  0.27847147511E+03  0.00000000000E+00 0. -1.
<mgrwt>
<rscale>  1 0.30000000E+03</rscale>
<asrwt>0</asrwt>
<pdfrwt beam="1">  1       21 0.53562696E-02 0.30000000E+03</pdfrwt>
<pdfrwt beam="2">0</pdfrwt>
<totfact> 0.25609919E+04</totfact>
</mgrwt>
</event>
<event>
 6    1  0.1274196E-001  0.3000000E+03  0.7818608E-02  0.1093470E+00
         21   -1    0    0  501  502  0.00000000000E+00  0.00000000000E+00  0.29513612247E+01  0.29513612247E+01  0.00000000000E+00 0. -1.
         13   -1    0    0    0    0 -0.00000000000E+00 -0.00000000000E+00 -0.10000000000E+04  0.10000000000E+04  0.00000000000E+00 0.  1.
    9000005    2    1    2  501    0 -0.27545917456E+02  0.46233260434E+02 -0.54916501624E+03  0.55184601735E+03  0.74511651474E+01 0.  0.
         13    1    3    3    0    0 -0.13451095658E+02  0.29504308416E+02 -0.33680642847E+03  0.33836371917E+03  0.00000000000E+00 0.  1.
          3    1    3    3  501    0 -0.14094821798E+02  0.16728952018E+02 -0.21235858777E+03  0.21348229818E+03  0.00000000000E+00 0.  1.
         -1    1    1    2    0  502  0.27545917456E+02 -0.46233260434E+02 -0.44788362253E+03  0.45110534388E+03  0.00000000000E+00 0. -1.
<mgrwt>
<rscale>  1 0.30000000E+03</rscale>
<asrwt>0</asrwt>
<pdfrwt beam="1">  1       21 0.10732245E-01 0.30000000E+03</pdfrwt>
<pdfrwt beam="2">0</pdfrwt>
<totfact> 0.75804317E+03</totfact>
</mgrwt>
</event>
<event>
 6    1  0.1274196E-001  0.3000000E+03  0.7818608E-02  0.1093470E+00
         21   -1    0    0  501  502  0.00000000000E+00  0.00000000000E+00  0.14157125713E+01  0.14157125713E+01  0.00000000000E+00 0. -1.
         13   -1    0    0    0    0 -0.00000000000E+00 -0.00000000000E+00 -0.10000000000E+04  0.10000000000E+04  0.00000000000E+00 0.  1.
    9000005    2    1    2  501    0  0.34498202538E+02  0.13194807149E+02 -0.59039291841E+03  0.59155668479E+03  0.33592104145E+01 0.  0.
         13    1    3    3    0    0  0.43356728134E+01  0.81408706033E+00 -0.83188925104E+02  0.83305810461E+02  0.00000000000E+00 0.  1.
          1    1    3    3  501    0  0.30162529725E+02  0.12380720089E+02 -0.50720399331E+03  0.50825087433E+03  0.00000000000E+00 0.  1.
         -3    1    1    2    0  502 -0.34498202538E+02 -0.13194807149E+02 -0.40819136902E+03  0.40985902778E+03  0.00000000000E+00 0. -1.
<mgrwt>
<rscale>  1 0.30000000E+03</rscale>
<asrwt>0</asrwt>
<pdfrwt beam="1">  1       21 0.51480566E-02 0.30000000E+03</pdfrwt>
<pdfrwt beam="2">0</pdfrwt>
<totfact> 0.27405765E+04</totfact>
</mgrwt>
</event>
<event>
 6    1  0.1274196E-001  0.3000000E+03  0.7818608E-02  0.1093470E+00
         21   -1    0    0  501  502  0.00000000000E+00  0.00000000000E+00  0.13522969331E+01  0.13522969331E+01  0.00000000000E+00 0. -1.
         13   -1    0    0    0    0 -0.00000000000E+00 -0.00000000000E+00 -0.10000000000E+04  0.10000000000E+04  0.00000000000E+00 0.  1.
    9000005    2    1    2  501    0  0.23408706986E+02 -0.24457801565E+02 -0.31011497481E+03  0.31198775658E+03  0.43486816554E+01 0.  0.
         13    1    3    3    0    0  0.22868653723E+02 -0.23105577790E+02 -0.30184332772E+03  0.30358892855E+03  0.00000000000E+00 0.  1.
          1    1    3    3  501    0  0.54005326223E+00 -0.13522237747E+01 -0.82716470867E+01  0.83988280248E+01  0.00000000000E+00 0.  1.
         -1    1    1    2    0  502 -0.23408706986E+02  0.24457801565E+02 -0.68853272826E+03  0.68936454036E+03  0.00000000000E+00 0. -1.
<mgrwt>
<rscale>  1 0.30000000E+03</rscale>
<asrwt>0</asrwt>
<pdfrwt beam="1">  1       21 0.49174538E-02 0.30000000E+03</pdfrwt>
<pdfrwt beam="2">0</pdfrwt>
<totfact> 0.29633465E+04</totfact>
</mgrwt>
</event>
<event>
 6    1  0.1274196E-001  0.3000000E+03  0.7818608E-02  0.1093470E+00
         21   -1    0    0  501  502  0.00000000000E+00  0.00000000000E+00  0.35534666372E+01  0.35534666372E+01  0.00000000000E+00 0. -1.
         13   -1    0    0    0    0 -0.00000000000E+00 -0.00000000000E+00 -0.10000000000E+04  0.10000000000E+04  0.00000000000E+00 0.  1.
    9000005    2    1    2  501    0 -0.44171607335E+01 -0.47414950190E+02 -0.79978295634E+03  0.80120660766E+03  0.34003082337E+01 0.  0.
         13    1    3    3    0    0 -0.39620678946E+01 -0.38317886451E+02 -0.66718713187E+03  0.66829830715E+03  0.00000000000E+00 0.  1.
          3    1    3    3  501    0 -0.45509283888E+00 -0.90970637389E+01 -0.13259582447E+03  0.13290830051E+03  0.00000000000E+00 0.  1.
         -3    1    1    2    0  502  0.44171607335E+01  0.47414950190E+02 -0.19666357702E+03  0.20234685898E+03  0.00000000000E+00 0. -1.
<mgrwt>
<rscale>  1 0.30000000E+03</rscale>
<asrwt>0</asrwt>
<pdfrwt beam="1">  1       21 0.12921724E-01 0.30000000E+03</pdfrwt>
<pdfrwt beam="2">0</pdfrwt>
<totfact> 0.54159147E+03</totfact>
</mgrwt>
</event>
<event>
 6    1  0.1274196E-001  0.3000000E+03  0.7818608E-02  0.1093470E+00
         21   -1    0    0  501  502  0.00000000000E+00  0.00000000000E+00  0.17117173788E+01  0.17117173788E+01  0.00000000000E+00 0. -1.
         13   -1    0    0    0    0 -0.00000000000E+00 -0.00000000000E+00 -0.10000000000E+04  0.10000000000E+04  0.00000000000E+00 0.  1.
    9000005    2    1    2  501    0  0.12380106570E+02 -0.27845802905E+02 -0.83716886021E+03  0.83773573116E+03  0.45605898565E+01 0.  0.
         13    1    3    3    0    0  0.31832203233E+01 -0.12349559222E+02 -0.32607799121E+03  0.32632729101E+03  0.00000000000E+00 0.  1.
          3    1    3    3  501    0  0.91968862470E+01 -0.15496243683E+02 -0.51109086899E+03  0.51140844015E+03  0.00000000000E+00 0.  1.
         -3    1    1    2    0  502 -0.12380106570E+02  0.27845802905E+02 -0.16111942241E+03  0.16397598622E+03  0.00000000000E+00 0. -1.
<mgrwt>
<rscale>  1 0.30000000E+03</rscale>
<asrwt>0</asrwt>
<pdfrwt beam="1">  1       21 0.62244400E-02 0.30000000E+03</pdfrwt>
<pdfrwt beam="2">0</pdfrwt>
<totfact> 0.19777489E+04</totfact>
</mgrwt>
</event>
<event>
 6    1  0.1274196E-001  0.3000000E+03  0.7818608E-02  0.1093470E+00
         21   -1    0    0  501  502  0.00000000000E+00  0.00000000000E+00  0.32326152908E+01  0.32326152908E+01  0.00000000000E+00 0. -1.
         13   -1    0    0    0    0 -0.00000000000E+00 -0.00000000000E+00 -0.10000000000E+04  0.10000000000E+04  0.00000000000E+00 0.  1.
    9000005    2    1    2  501    0 -0.28037780769E+02 -0.22415824887E+02 -0.88726887540E+03  0.88800019843E+03  0.31158936097E+01 0.  0.
         13    1    3    3    0    0 -0.26967142549E+02 -0.21127191764E+02 -0.82966105595E+03  0.83036802249E+03  0.00000000000E+00 0.  1.
          1    1    3    3  501    0 -0.10706382209E+01 -0.12886331236E+01 -0.57607819446E+02  0.57632175934E+02  0.00000000000E+00 0.  1.
         -1    1    1    2    0  502  0.28037780769E+02  0.22415824887E+02 -0.10949850931E+03  0.11523241686E+03  0.00000000000E+00 0. -1.
<mgrwt>
<rscale>  1 0.30000000E+03</rscale>
<asrwt>0</asrwt>
<pdfrwt beam="1">  1       21 0.11754989E-01 0.30000000E+03</pdfrwt>
<pdfrwt beam="2">0</pdfrwt>
<totfact> 0.64332544E+03</totfact>
</mgrwt>
</event>
<event>
 6    1  0.1274196E-001  0.3000000E+03  0.7818608E-02  0.1093470E+00
         21   -1    0    0  501  502  0.00000000000E+00  0.00000000000E+00  0.10904915086E+02  0.10904915086E+02  0.00000000000E+00 0. -1.
         13   -1    0    0    0    0 -0.00000000000E+00 -0.00000000000E+00 -0.10000000000E+04  0.10000000000E+04  0.00000000000E+00 0.  1.
    9000005    2    1    2  501    0  0.28139011357E+02 -0.17858894894E+02 -0.97355659897E+03  0.97413279749E+03  0.33928833236E+01 0.  0.
         13    1    3    3    0    0  0.70775395997E+01 -0.56397501410E+01 -0.23152634544E+03  0.23170314409E+03  0.00000000000E+00 0.  1.
          3    1    3    3  501    0  0.21061471757E+02 -0.12219144753E+02 -0.74203025353E+03  0.74242965340E+03  0.00000000000E+00 0.  1.
         -3    1    1    2    0  502 -0.28139011357E+02  0.17858894894E+02 -0.15538485940E+02  0.36772117593E+02  0.00000000000E+00 0. -1.
<mgrwt>
<rscale>  1 0.30000000E+03</rscale>
<asrwt>0</asrwt>
<pdfrwt beam="1">  1       21 0.39654320E-01 0.30000000E+03</pdfrwt>
<pdfrwt beam="2">0</pdfrwt>
<totfact> 0.61505507E+02</totfact>
</mgrwt>
</event>
<event>
 6    1  0.1274196E-001  0.3000000E+03  0.7818608E-02  0.1093470E+00
         21   -1    0    0  501  502  0.00000000000E+00  0.00000000000E+00  0.19591033029E+01  0.19591033029E+01  0.00000000000E+00 0. -1.
         13   -1    0    0    0    0 -0.00000000000E+00 -0.00000000000E+00 -0.10000000000E+04  0.10000000000E+04  0.00000000000E+00 0.  1.
    9000005    2    1    2  501    0 -0.33011454595E+02  0.17816119457E+02 -0.23551170071E+03  0.23850776564E+03  0.36087189073E+01 0.  0.
         13    1    3    3    0    0 -0.26136135549E+02  0.12394540667E+02 -0.17939822048E+03  0.18171528205E+03  0.00000000000E+00 0.  1.
          3    1    3    3  501    0 -0.68753190459E+01  0.54215787895E+01 -0.56113480230E+02  0.56792483587E+02  0.00000000000E+00 0.  1.
         -3    1    1    2    0  502  0.33011454595E+02 -0.17816119457E+02 -0.76252919599E+03  0.76345133766E+03  0.00000000000E+00 0. -1.
<mgrwt>
<rscale>  1 0.30000000E+03</rscale>
<asrwt>0</asrwt>
<pdfrwt beam="1">  1       21 0.71240270E-02 0.30000000E+03</pdfrwt>
<pdfrwt beam="2">0</pdfrwt>
<totfact> 0.15649217E+04</totfact>
</mgrwt>
</event>
<event>
 6    1  0.1274196E-001  0.3000000E+03  0.7818608E-02  0.1093470E+00
         21   -1    0    0  501  502  0.00000000000E+00  0.00000000000E+00  0.11096644710E+01  0.11096644710E+01  0.00000000000E+00 0. -1.
         13   -1    0    0    0    0 -0.00000000000E+00 -0.00000000000E+00 -0.10000000000E+04  0.10000000000E+04  0.00000000000E+00 0.  1.
    9000005    2    1    2  501    0  0.28765125607E+02 -0.15892384074E+02 -0.42867792602E+03  0.42995102427E+03  0.36219729334E+01 0.  0.
         13    1    3    3    0    0  0.24960630339E+01 -0.22841014384E+01 -0.54862015219E+02  0.54966245678E+02  0.00000000000E+00 0.  1.
          1    1    3    3  501    0  0.26269062573E+02 -0.13608282635E+02 -0.37381591081E+03  0.37498477859E+03  0.00000000000E+00 0.  1.
         -1    1    1    2    0  502 -0.28765125607E+02  0.15892384074E+02 -0.57021240950E+03  0.57115864020E+03  0.00000000000E+00 0. -1.
<mgrwt>
<rscale>  1 0.30000000E+03</rscale>
<asrwt>0</asrwt>
<pdfrwt beam="1">  1       21 0.40351520E-02 0.30000000E+03</pdfrwt>
<pdfrwt beam="2">0</pdfrwt>
<totfact> 0.41432177E+04</totfact>
</mgrwt>
</event>
<event>
 6    1  0.1274196E-001  0.3000000E+03  0.7818608E-02  0.1093470E+00
         21   -1    0    0  501  502  0.00000000000E+00  0.00000000000E+00  0.17413546347E+01  0.17413546347E+01  0.00000000000E+00 0. -1.
         13   -1    0    0    0    0 -0.00000000000E+00 -0.00000000000E+00 -0.10000000000E+04  0.10000000000E+04  0.00000000000E+00 0.  1.
    9000005    2    1    2  501    0 -0.56585669913E+01  0.40714613992E+02 -0.57982144781E+03  0.58128994547E+03  0.39230330254E+01 0.  0.
         13    1    3    3    0    0 -0.24660861436E+01  0.24963606861E+02 -0.37601527650E+03  0.37685109978E+03  0.00000000000E+00 0.  1.
          3    1    3    3  501    0 -0.31924808477E+01  0.15751007131E+02 -0.20380617132E+03  0.20443884569E+03  0.00000000000E+00 0.  1.
         -1    1    1    2    0  502  0.56585669913E+01 -0.40714613992E+02 -0.41843719755E+03  0.42045140916E+03  0.00000000000E+00 0. -1.
<mgrwt>
<rscale>  1 0.30000000E+03</rscale>
<asrwt>0</asrwt>
<pdfrwt beam="1">  1       21 0.63322120E-02 0.30000000E+03</pdfrwt>
<pdfrwt beam="2">0</pdfrwt>
<totfact> 0.19199398E+04</totfact>
</mgrwt>
</event>
<event>
 6    1  0.1274196E-001  0.3000000E+03  0.7818608E-02  0.1093470E+00
         21   -1    0    0  501  502  0.00000000000E+00  0.00000000000E+00  0.17491278485E+01  0.17491278485E+01  0.00000000000E+00 0. -1.
         13   -1    0    0    0    0 -0.00000000000E+00 -0.00000000000E+00 -0.10000000000E+04  0.10000000000E+04  0.00000000000E+00 0.  1.
    9000005    2    1    2  501    0 -0.38449391484E+02  0.10385163170E+02 -0.65025353728E+03  0.65148015634E+03  0.32440789450E+01 0.  0.
         13    1    3    3    0    0 -0.12120979337E+02  0.30218870589E+01 -0.18048602870E+03  0.18091781697E+03  0.00000000000E+00 0.  1.
          3    1    3    3  501    0 -0.26328412147E+02  0.73632761109E+01 -0.46976750858E+03  0.47056233938E+03  0.00000000000E+00 0.  1.
         -3    1    1    2    0  502  0.38449391484E+02 -0.10385163170E+02 -0.34799733487E+03  0.35026897150E+03  0.00000000000E+00 0. -1.
<mgrwt>
<rscale>  1 0.30000000E+03</rscale>
<asrwt>0</asrwt>
<pdfrwt beam="1">  1       21 0.63604783E-02 0.30000000E+03</pdfrwt>
<pdfrwt beam="2">0</pdfrwt>
<totfact> 0.19052106E+04</totfact>
</mgrwt>
</event>
<event>
 6    1  0.1274196E-001  0.3000000E+03  0.7818608E-02  0.1093470E+00
         21   -1    0    0  501  502  0.00000000000E+00  0.00000000000E+00  0.28672236349E+01  0.28672236349E+01  0.00000000000E+00 0. -1.
         13   -1    0    0    0    0 -0.00000000000E+00 -0.00000000000E+00 -0.10000000000E+04  0.10000000000E+04  0.00000000000E+00 0.  1.
    9000005    2    1    2  501    0 -0.24987280298E+02  0.42617542123E+02 -0.30680497009E+03  0.31077395016E+03  0.32464368907E+01 0.  0.
         13    1    3    3    0    0 -0.43325064380E+01  0.64427060412E+01 -0.55366899672E+02  0.55908609824E+02  0.00000000000E+00 0.  1.
          3    1    3    3  501    0 -0.20654773860E+02  0.36174836082E+02 -0.25143807042E+03  0.25486534034E+03  0.00000000000E+00 0.  1.
         -1    1    1    2    0  502  0.24987280298E+02 -0.42617542123E+02 -0.69032780627E+03  0.69209327347E+03  0.00000000000E+00 0. -1.
<mgrwt>
<rscale>  1 0.30000000E+03</rscale>
<asrwt>0</asrwt>
<pdfrwt beam="1">  1       21 0.10426290E-01 0.30000000E+03</pdfrwt>
<pdfrwt beam="2">0</pdfrwt>
<totfact> 0.79840338E+03</totfact>
</mgrwt>
</event>
<event>
 6    1  0.1274196E-001  0.3000000E+03  0.7818608E-02  0.1093470E+00
         21   -1    0    0  501  502  0.00000000000E+00  0.00000000000E+00  0.21814112284E+01  0.21814112284E+01  0.00000000000E+00 0. -1.
         13   -1    0    0    0    0 -0.00000000000E+00 -0.00000000000E+00 -0.10000000000E+04  0.10000000000E+04  0.00000000000E+00 0.  1.
    9000005    2    1    2  501    0  0.36531158207E+02 -0.27575499636E+02 -0.59298370924E+03  0.59476735478E+03  0.48572828752E+01 0.  0.
         13    1    3    3    0    0  0.22477295779E+02 -0.18872614413E+02 -0.35596117512E+03  0.35716909524E+03  0.00000000000E+00 0.  1.
          1    1    3    3  501    0  0.14053862428E+02 -0.87028852228E+01 -0.23702253411E+03  0.23759825954E+03  0.00000000000E+00 0.  1.
         -1    1    1    2    0  502 -0.36531158207E+02  0.27575499636E+02 -0.40483487954E+03  0.40741405644E+03  0.00000000000E+00 0. -1.
<mgrwt>
<rscale>  1 0.30000000E+03</rscale>
<asrwt>0</asrwt>
<pdfrwt beam="1">  1       21 0.79324212E-02 0.30000000E+03</pdfrwt>
<pdfrwt beam="2">0</pdfrwt>
<totfact> 0.12965584E+04</totfact>
</mgrwt>
</event>
<event>
 6    1  0.1274196E-001  0.3000000E+03  0.7818608E-02  0.1093470E+00
         21   -1    0    0  501  502  0.00000000000E+00  0.00000000000E+00  0.13256345757E+01  0.13256345757E+01  0.00000000000E+00 0. -1.
         13   -1    0    0    0    0 -0.00000000000E+00 -0.00000000000E+00 -0.10000000000E+04  0.10000000000E+04  0.00000000000E+00 0.  1.
    9000005    2    1    2  501    0  0.10886843708E+02 -0.32274376451E+02 -0.67233407058E+03  0.67321262542E+03  0.46880502012E+01 0.  0.
         13    1    3    3    0    0  0.16908020772E+01 -0.11570599045E+02 -0.24339878995E+03  0.24367952012E+03  0.00000000000E+00 0.  1.
          3    1    3    3  501    0  0.91960416305E+01 -0.20703777407E+02 -0.42893528063E+03  0.42953310530E+03  0.00000000000E+00 0.  1.
         -1    1    1    2    0  502 -0.10886843708E+02  0.32274376451E+02 -0.32634029484E+03  0.32811300916E+03  0.00000000000E+00 0. -1.
<mgrwt>
<rscale>  1 0.30000000E+03</rscale>
<asrwt>0</asrwt>
<pdfrwt beam="1">  1       21 0.48204995E-02 0.30000000E+03</pdfrwt>
<pdfrwt beam="2">0</pdfrwt>
<totfact> 0.30655413E+04</totfact>
</mgrwt>
</event>
<event>
 6    1  0.1274196E-001  0.3000000E+03  0.7818608E-02  0.1093470E+00
         21   -1    0    0  501  502  0.00000000000E+00  0.00000000000E+00  0.20754398434E+01  0.20754398434E+01  0.00000000000E+00 0. -1.
         13   -1    0    0    0    0 -0.00000000000E+00 -0.00000000000E+00 -0.10000000000E+04  0.10000000000E+04  0.00000000000E+00 0.  1.
    9000005    2    1    2  501    0  0.38358116421E+02  0.27603881824E+01 -0.76693738731E+03  0.76790874952E+03  0.34535046143E+01 0.  0.
         13    1    3    3    0    0  0.11721441192E+02  0.13230863043E+00 -0.26284465729E+03  0.26310591699E+03  0.00000000000E+00 0.  1.
          3    1    3    3  501    0  0.26636675229E+02  0.26280795519E+01 -0.50409273002E+03  0.50480283253E+03  0.00000000000E+00 0.  1.
         -3    1    1    2    0  502 -0.38358116421E+02 -0.27603881824E+01 -0.23098717284E+03  0.23416669032E+03  0.00000000000E+00 0. -1.
<mgrwt>
<rscale>  1 0.30000000E+03</rscale>
<asrwt>0</asrwt>
<pdfrwt beam="1">  1       21 0.75470699E-02 0.30000000E+03</pdfrwt>
<pdfrwt beam="2">0</pdfrwt>
<totfact> 0.14148605E+04</totfact>
</mgrwt>
</event>
<event>
 6    1  0.1274196E-001  0.3000000E+03  0.7818608E-02  0.1093470E+00
         21   -1    0    0  501  502  0.00000000000E+00  0.00000000000E+00  0.58094110996E+01  0.58094110996E+01  0.00000000000E+00 0. -1.
         13   -1    0    0    0    0 -0.00000000000E+00 -0.00000000000E+00 -0.10000000000E+04  0.10000000000E+04  0.00000000000E+00 0.  1.
    9000005    2    1    2  501    0  0.37789263239E+02  0.10382351235E+02 -0.92839495710E+03  0.92922686219E+03  0.30892418458E+01 0.  0.
         13    1    3    3    0    0  0.91204225114E+01  0.11789832557E+01 -0.21103236468E+03  0.21123264675E+03  0.00000000000E+00 0.  1.
          1    1    3    3  501    0  0.28668840728E+02  0.92033679791E+01 -0.71736259242E+03  0.71799421545E+03  0.00000000000E+00 0.  1.
         -3    1    1    2    0  502 -0.37789263239E+02 -0.10382351235E+02 -0.65795631799E+02  0.76582548907E+02  0.00000000000E+00 0. -1.
<mgrwt>
<rscale>  1 0.30000000E+03</rscale>
<asrwt>0</asrwt>
<pdfrwt beam="1">  1       21 0.21125176E-01 0.30000000E+03</pdfrwt>
<pdfrwt beam="2">0</pdfrwt>
<totfact> 0.21606609E+03</totfact>
</mgrwt>
</event>
<event>
 6    1  0.1274196E-001  0.3000000E+03  0.7818608E-02  0.1093470E+00
         21   -1    0    0  501  502  0.00000000000E+00  0.00000000000E+00  0.17818779485E+01  0.17818779485E+01  0.00000000000E+00 0. -1.
         13   -1    0    0    0    0 -0.00000000000E+00 -0.00000000000E+00 -0.10000000000E+04  0.10000000000E+04  0.00000000000E+00 0.  1.
    9000005    2    1    2  501    0  0.31099372440E+02  0.27514570033E+02 -0.58056804351E+03  0.58207268025E+03  0.50129246446E+01 0.  0.
         13    1    3    3    0    0  0.12578630930E+02  0.99278552080E+01 -0.25622612649E+03  0.25672672662E+03  0.00000000000E+00 0.  1.
          1    1    3    3  501    0  0.18520741510E+02  0.17586714825E+02 -0.32434191702E+03  0.32534595362E+03  0.00000000000E+00 0.  1.
         -1    1    1    2    0  502 -0.31099372440E+02 -0.27514570033E+02 -0.41765007854E+03  0.41970919770E+03  0.00000000000E+00 0. -1.
<mgrwt>
<rscale>  1 0.30000000E+03</rscale>
<asrwt>0</asrwt>
<pdfrwt beam="1">  1       21 0.64795698E-02 0.30000000E+03</pdfrwt>
<pdfrwt beam="2">0</pdfrwt>
<totfact> 0.18450326E+04</totfact>
</mgrwt>
</event>
<event>
 6    1  0.1274196E-001  0.3000000E+03  0.7818608E-02  0.1093470E+00
         21   -1    0    0  501  502  0.00000000000E+00  0.00000000000E+00  0.13277539227E+01  0.13277539227E+01  0.00000000000E+00 0. -1.
         13   -1    0    0    0    0 -0.00000000000E+00 -0.00000000000E+00 -0.10000000000E+04  0.10000000000E+04  0.00000000000E+00 0.  1.
    9000005    2    1    2  501    0 -0.15916652906E+01  0.36146952769E+02 -0.45204791499E+03  0.45350725876E+03  0.35186219856E+01 0.  0.
         13    1    3    3    0    0  0.18163874579E+00  0.82920420552E+01 -0.87377181881E+02  0.87769942848E+02  0.00000000000E+00 0.  1.
          1    1    3    3  501    0 -0.17733040364E+01  0.27854910714E+02 -0.36467073311E+03  0.36573731591E+03  0.00000000000E+00 0.  1.
         -3    1    1    2    0  502  0.15916652906E+01 -0.36146952769E+02 -0.54662433108E+03  0.54782049517E+03  0.00000000000E+00 0. -1.
<mgrwt>
<rscale>  1 0.30000000E+03</rscale>
<asrwt>0</asrwt>
<pdfrwt beam="1">  1       21 0.48282063E-02 0.30000000E+03</pdfrwt>
<pdfrwt beam="2">0</pdfrwt>
<totfact> 0.30572179E+04</totfact>
</mgrwt>
</event>
<event>
 6    1  0.1274196E-001  0.3000000E+03  0.7818608E-02  0.1093470E+00
         21   -1    0    0  501  502  0.00000000000E+00  0.00000000000E+00  0.52348274358E+01  0.52348274358E+01  0.00000000000E+00 0. -1.
         13   -1    0    0    0    0 -0.00000000000E+00 -0.00000000000E+00 -0.10000000000E+04  0.10000000000E+04  0.00000000000E+00 0.  1.
    9000005    2    1    2  501    0  0.15278939491E+02 -0.36626816120E+02 -0.91759721319E+03  0.91846004075E+03  0.30382794309E+01 0.  0.
         13    1    3    3    0    0  0.11522595200E+02 -0.25189463796E+02 -0.66293505901E+03  0.66351350533E+03  0.00000000000E+00 0.  1.
          3    1    3    3  501    0  0.37563442911E+01 -0.11437352324E+02 -0.25466215418E+03  0.25494653542E+03  0.00000000000E+00 0.  1.
         -1    1    1    2    0  502 -0.15278939491E+02  0.36626816120E+02 -0.77167959374E+02  0.86774786689E+02  0.00000000000E+00 0. -1.
<mgrwt>
<rscale>  1 0.30000000E+03</rscale>
<asrwt>0</asrwt>
<pdfrwt beam="1">  1       21 0.19035776E-01 0.30000000E+03</pdfrwt>
<pdfrwt beam="2">0</pdfrwt>
<totfact> 0.26356731E+03</totfact>
</mgrwt>
</event>
<event>
 6    1  0.1274196E-001  0.3000000E+03  0.7818608E-02  0.1093470E+00
         21   -1    0    0  501  502  0.00000000000E+00  0.00000000000E+00  0.16004867478E+01  0.16004867478E+01  0.00000000000E+00 0. -1.
         13   -1    0    0    0    0 -0.00000000000E+00 -0.00000000000E+00 -0.10000000000E+04  0.10000000000E+04  0.00000000000E+00 0.  1.
    9000005    2    1    2  501    0 -0.23250906804E+02  0.25603083988E+02 -0.74927877515E+03  0.75009051731E+03  0.45802491627E+01 0.  0.
         13    1    3    3    0    0 -0.13356634724E+02  0.17020283945E+02 -0.43184390445E+03  0.43238553118E+03  0.00000000000E+00 0.  1.
          3    1    3    3  501    0 -0.98942720802E+01  0.85828000439E+01 -0.31743487070E+03  0.31770498613E+03  0.00000000000E+00 0.  1.
         -3    1    1    2    0  502  0.23250906804E+02 -0.25603083988E+02 -0.24912073810E+03  0.25150996944E+03  0.00000000000E+00 0. -1.
<mgrwt>
<rscale>  1 0.30000000E+03</rscale>
<asrwt>0</asrwt>
<pdfrwt beam="1">  1       21 0.58199641E-02 0.30000000E+03</pdfrwt>
<pdfrwt beam="2">0</pdfrwt>
<totfact> 0.22207746E+04</totfact>
</mgrwt>
</event>
<event>
 6    1  0.1274196E-001  0.3000000E+03  0.7818608E-02  0.1093470E+00
         21   -1    0    0  501  502  0.00000000000E+00  0.00000000000E+00  0.13913084245E+01  0.13913084245E+01  0.00000000000E+00 0. -1.
         13   -1    0    0    0    0 -0.00000000000E+00 -0.00000000000E+00 -0.10000000000E+04  0.10000000000E+04  0.00000000000E+00 0.  1.
    9000005    2    1    2  501    0  0.34220467416E+02  0.57651626442E+01 -0.68078558928E+03  0.68167924759E+03  0.36469895527E+01 0.  0.
         13    1    3    3    0    0  0.90162553286E+01  0.22694613853E+01 -0.15548420672E+03  0.15576193969E+03  0.00000000000E+00 0.  1.
          3    1    3    3  501    0  0.25204212087E+02  0.34957012589E+01 -0.52530138256E+03  0.52591730791E+03  0.00000000000E+00 0.  1.
         -1    1    1    2    0  502 -0.34220467416E+02 -0.57651626442E+01 -0.31782310229E+03  0.31971206083E+03  0.00000000000E+00 0. -1.
<mgrwt>
<rscale>  1 0.30000000E+03</rscale>
<asrwt>0</asrwt>
<pdfrwt beam="1">  1       21 0.50593140E-02 0.30000000E+03</pdfrwt>
<pdfrwt beam="2">0</pdfrwt>
<totfact> 0.28231186E+04</totfact>
</mgrwt>
</event>
<event>
 6    1  0.1274196E-001  0.3000000E+03  0.7818608E-02  0.1093470E+00
         21   -1    0    0  501  502  0.00000000000E+00  0.00000000000E+00  0.22005875383E+01  0.22005875383E+01  0.00000000000E+00 0. -1.
         13   -1    0    0    0    0 -0.00000000000E+00 -0.00000000000E+00 -0.10000000000E+04  0.10000000000E+04  0.00000000000E+00 0.  1.
    9000005    2    1    2  501    0  0.26939478520E+02  0.15233616081E+02 -0.87526953377E+03  0.87582270287E+03  0.32941689712E+01 0.  0.
         13    1    3    3    0    0  0.25553449921E+02  0.15208676923E+02 -0.83624200225E+03  0.83677055935E+03  0.00000000000E+00 0.  1.
          3    1    3    3  501    0  0.13860285986E+01  0.24939157566E-01 -0.39027531517E+02  0.39052143520E+02  0.00000000000E+00 0.  1.
         -1    1    1    2    0  502 -0.26939478520E+02 -0.15233616081E+02 -0.12252987869E+03  0.12637788467E+03  0.00000000000E+00 0. -1.
<mgrwt>
<rscale>  1 0.30000000E+03</rscale>
<asrwt>0</asrwt>
<pdfrwt beam="1">  1       21 0.80021534E-02 0.30000000E+03</pdfrwt>
<pdfrwt beam="2">0</pdfrwt>
<totfact> 0.12767832E+04</totfact>
</mgrwt>
</event>
<event>
 6    1  0.1274196E-001  0.3000000E+03  0.7818608E-02  0.1093470E+00
         21   -1    0    0  501  502  0.00000000000E+00  0.00000000000E+00  0.25229947383E+01  0.25229947383E+01  0.00000000000E+00 0. -1.
         13   -1    0    0    0    0 -0.00000000000E+00 -0.00000000000E+00 -0.10000000000E+04  0.10000000000E+04  0.00000000000E+00 0.  1.
    9000005    2    1    2  501    0  0.47606591308E+02  0.14151221235E+02 -0.42986637778E+03  0.43274367866E+03  0.39171517250E+01 0.  0.
         13    1    3    3    0    0  0.33544510626E+02  0.11712675595E+02 -0.30149800274E+03  0.30358436491E+03  0.00000000000E+00 0.  1.
          1    1    3    3  501    0  0.14062080682E+02  0.24385456405E+01 -0.12836837504E+03  0.12915931375E+03  0.00000000000E+00 0.  1.
         -3    1    1    2    0  502 -0.47606591308E+02 -0.14151221235E+02 -0.56761062748E+03  0.56977931608E+03  0.00000000000E+00 0. -1.
<mgrwt>
<rscale>  1 0.30000000E+03</rscale>
<asrwt>0</asrwt>
<pdfrwt beam="1">  1       21 0.91745457E-02 0.30000000E+03</pdfrwt>
<pdfrwt beam="2">0</pdfrwt>
<totfact> 0.10030552E+04</totfact>
</mgrwt>
</event>
<event>
 6    1  0.1274196E-001  0.3000000E+03  0.7818608E-02  0.1093470E+00
         21   -1    0    0  501  502  0.00000000000E+00  0.00000000000E+00  0.98595183736E+00  0.98595183736E+00  0.00000000000E+00 0. -1.
         13   -1    0    0    0    0 -0.00000000000E+00 -0.00000000000E+00 -0.10000000000E+04  0.10000000000E+04  0.00000000000E+00 0.  1.
    9000005    2    1    2  501    0 -0.30552141618E+02 -0.50282283227E+01 -0.57610055862E+03  0.57694051079E+03  0.31277641728E+01 0.  0.
         13    1    3    3    0    0 -0.26270086204E+02 -0.33439506720E+01 -0.48029626505E+03  0.48102578066E+03  0.00000000000E+00 0.  1.
          1    1    3    3  501    0 -0.42820554135E+01 -0.16842776507E+01 -0.95804293568E+02  0.95914730130E+02  0.00000000000E+00 0.  1.
         -1    1    1    2    0  502  0.30552141618E+02  0.50282283227E+01 -0.42291348954E+03  0.42404544105E+03  0.00000000000E+00 0. -1.
<mgrwt>
<rscale>  1 0.30000000E+03</rscale>
<asrwt>0</asrwt>
<pdfrwt beam="1">  1       21 0.35852870E-02 0.30000000E+03</pdfrwt>
<pdfrwt beam="2">0</pdfrwt>
<totfact> 0.50536167E+04</totfact>
</mgrwt>
</event>
<event>
 6    1  0.1274196E-001  0.3000000E+03  0.7818608E-02  0.1093470E+00
         21   -1    0    0  501  502  0.00000000000E+00  0.00000000000E+00  0.28787324414E+01  0.28787324414E+01  0.00000000000E+00 0. -1.
         13   -1    0    0    0    0 -0.00000000000E+00 -0.00000000000E+00 -0.10000000000E+04  0.10000000000E+04  0.00000000000E+00 0.  1.
    9000005    2    1    2  501    0  0.69445191927E+01 -0.37636060920E+02 -0.84977342475E+03  0.85064179143E+03  0.34473883422E+01 0.  0.
         13    1    3    3    0    0  0.58545629475E+01 -0.33999027958E+02 -0.78424809759E+03  0.78500655309E+03  0.00000000000E+00 0.  1.
          1    1    3    3  501    0  0.10899562452E+01 -0.36370329615E+01 -0.65525327153E+02  0.65635238340E+02  0.00000000000E+00 0.  1.
         -1    1    1    2    0  502 -0.69445191927E+01  0.37636060920E+02 -0.14734784281E+03  0.15223694102E+03  0.00000000000E+00 0. -1.
<mgrwt>
<rscale>  1 0.30000000E+03</rscale>
<asrwt>0</asrwt>
<pdfrwt beam="1">  1       21 0.10468140E-01 0.30000000E+03</pdfrwt>
<pdfrwt beam="2">0</pdfrwt>
<totfact> 0.79269279E+03</totfact>
</mgrwt>
</event>
<event>
 6    1  0.1274196E-001  0.3000000E+03  0.7818608E-02  0.1093470E+00
         21   -1    0    0  501  502  0.00000000000E+00  0.00000000000E+00  0.18965177074E+01  0.18965177074E+01  0.00000000000E+00 0. -1.
         13   -1    0    0    0    0 -0.00000000000E+00 -0.00000000000E+00 -0.10000000000E+04  0.10000000000E+04  0.00000000000E+00 0.  1.
    9000005    2    1    2  501    0  0.52712199492E+01  0.35828627553E+02 -0.77675605500E+03  0.77760617043E+03  0.31481743716E+01 0.  0.
         13    1    3    3    0    0  0.33748765473E+00  0.70191579177E+00 -0.10113156734E+02  0.10143102229E+02  0.00000000000E+00 0.  1.
          1    1    3    3  501    0  0.49337322945E+01  0.35126711761E+02 -0.76664289827E+03  0.76746306820E+03  0.00000000000E+00 0.  1.
         -1    1    1    2    0  502 -0.52712199492E+01 -0.35828627553E+02 -0.22134742729E+03  0.22429034728E+03  0.00000000000E+00 0. -1.
<mgrwt>
<rscale>  1 0.30000000E+03</rscale>
<asrwt>0</asrwt>
<pdfrwt beam="1">  1       21 0.68964426E-02 0.30000000E+03</pdfrwt>
<pdfrwt beam="2">0</pdfrwt>
<totfact> 0.16559036E+04</totfact>
</mgrwt>
</event>
<event>
 6    1  0.1274196E-001  0.3000000E+03  0.7818608E-02  0.1093470E+00
         21   -1    0    0  501  502  0.00000000000E+00  0.00000000000E+00  0.13697634321E+01  0.13697634321E+01  0.00000000000E+00 0. -1.
         13   -1    0    0    0    0 -0.00000000000E+00 -0.00000000000E+00 -0.10000000000E+04  0.10000000000E+04  0.00000000000E+00 0.  1.
    9000005    2    1    2  501    0 -0.21656333218E+02 -0.29660575600E+02 -0.44963529915E+03  0.45114781928E+03  0.37021734377E+01 0.  0.
         13    1    3    3    0    0 -0.29998400330E+01 -0.46701629388E+01 -0.85177423706E+02  0.85358086737E+02  0.00000000000E+00 0.  1.
          1    1    3    3  501    0 -0.18656493185E+02 -0.24990412661E+02 -0.36445787544E+03  0.36578973254E+03  0.00000000000E+00 0.  1.
         -1    1    1    2    0  502  0.21656333218E+02  0.29660575600E+02 -0.54899493742E+03  0.55022194415E+03  0.00000000000E+00 0. -1.
<mgrwt>
<rscale>  1 0.30000000E+03</rscale>
<asrwt>0</asrwt>
<pdfrwt beam="1">  1       21 0.49809684E-02 0.30000000E+03</pdfrwt>
<pdfrwt beam="2">0</pdfrwt>
<totfact> 0.28992509E+04</totfact>
</mgrwt>
</event>
<event>
 6    1  0.1274196E-001  0.3000000E+03  0.7818608E-02  0.1093470E+00
         21   -1    0    0  501  502  0.00000000000E+00  0.00000000000E+00  0.27492697517E+01  0.27492697517E+01  0.00000000000E+00 0. -1.
         13   -1    0    0    0    0 -0.00000000000E+00 -0.00000000000E+00 -0.10000000000E+04  0.10000000000E+04  0.00000000000E+00 0.  1.
    9000005    2    1    2  501    0 -0.24604285924E+02 -0.22609387612E+02 -0.11347370011E+03  0.11834077008E+03  0.34208116168E+01 0.  0.
         13    1    3    3    0    0 -0.20437641589E+02 -0.17749196990E+02 -0.87603652928E+02  0.91690409498E+02  0.00000000000E+00 0.  1.
          3    1    3    3  501    0 -0.41666443342E+01 -0.48601906227E+01 -0.25870047179E+02  0.26650360578E+02  0.00000000000E+00 0.  1.
         -1    1    1    2    0  502  0.24604285924E+02  0.22609387612E+02 -0.88377703014E+03  0.88440849968E+03  0.00000000000E+00 0. -1.
<mgrwt>
<rscale>  1 0.30000000E+03</rscale>
<asrwt>0</asrwt>
<pdfrwt beam="1">  1       21 0.99973656E-02 0.30000000E+03</pdfrwt>
<pdfrwt beam="2">0</pdfrwt>
<totfact> 0.86072488E+03</totfact>
</mgrwt>
</event>
<event>
 6    1  0.1274196E-001  0.3000000E+03  0.7818608E-02  0.1093470E+00
         21   -1    0    0  501  502  0.00000000000E+00  0.00000000000E+00  0.23754189187E+01  0.23754189187E+01  0.00000000000E+00 0. -1.
         13   -1    0    0    0    0 -0.00000000000E+00 -0.00000000000E+00 -0.10000000000E+04  0.10000000000E+04  0.00000000000E+00 0.  1.
    9000005    2    1    2  501    0  0.91818960929E+01 -0.29928385558E+02 -0.88276294497E+03  0.88332412355E+03  0.33278764559E+01 0.  0.
         13    1    3    3    0    0  0.59587136028E+01 -0.14116108905E+02 -0.44643031883E+03  0.44669318371E+03  0.00000000000E+00 0.  1.
          1    1    3    3  501    0  0.32231824901E+01 -0.15812276652E+02 -0.43633262614E+03  0.43663093984E+03  0.00000000000E+00 0.  1.
         -1    1    1    2    0  502 -0.91818960929E+01  0.29928385558E+02 -0.11486163611E+03  0.11905129537E+03  0.00000000000E+00 0. -1.
<mgrwt>
<rscale>  1 0.30000000E+03</rscale>
<asrwt>0</asrwt>
<pdfrwt beam="1">  1       21 0.86379052E-02 0.30000000E+03</pdfrwt>
<pdfrwt beam="2">0</pdfrwt>
<totfact> 0.11159817E+04</totfact>
</mgrwt>
</event>
<event>
 6    1  0.1274196E-001  0.3000000E+03  0.7818608E-02  0.1093470E+00
         21   -1    0    0  501  502  0.00000000000E+00  0.00000000000E+00  0.10450215350E+01  0.10450215350E+01  0.00000000000E+00 0. -1.
         13   -1    0    0    0    0 -0.00000000000E+00 -0.00000000000E+00 -0.10000000000E+04  0.10000000000E+04  0.00000000000E+00 0.  1.
    9000005    2    1    2  501    0  0.28544610733E+02 -0.96298006222E+01 -0.67910857299E+03  0.67978305529E+03  0.30034123053E+01 0.  0.
         13    1    3    3    0    0  0.16130701230E+02 -0.56058231052E+01 -0.35126553256E+03  0.35168039345E+03  0.00000000000E+00 0.  1.
          1    1    3    3  501    0  0.12413909503E+02 -0.40239775170E+01 -0.32784304043E+03  0.32810266183E+03  0.00000000000E+00 0.  1.
         -3    1    1    2    0  502 -0.28544610733E+02  0.96298006222E+01 -0.31984640548E+03  0.32126196625E+03  0.00000000000E+00 0. -1.
<mgrwt>
<rscale>  1 0.30000000E+03</rscale>
<asrwt>0</asrwt>
<pdfrwt beam="1">  1       21 0.38000863E-02 0.30000000E+03</pdfrwt>
<pdfrwt beam="2">0</pdfrwt>
<totfact> 0.45834332E+04</totfact>
</mgrwt>
</event>
<event>
 6    1  0.1274196E-001  0.3000000E+03  0.7818608E-02  0.1093470E+00
         21   -1    0    0  501  502  0.00000000000E+00  0.00000000000E+00  0.61282168640E+01  0.61282168640E+01  0.00000000000E+00 0. -1.
         13   -1    0    0    0    0 -0.00000000000E+00 -0.00000000000E+00 -0.10000000000E+04  0.10000000000E+04  0.00000000000E+00 0.  1.
    9000005    2    1    2  501    0  0.31276340919E+02  0.67370518010E+02 -0.33968157400E+03  0.34773484970E+03  0.43540534510E+01 0.  0.
         13    1    3    3    0    0  0.27917978861E+02  0.60513363365E+02 -0.31046169061E+03  0.31753384390E+03  0.00000000000E+00 0.  1.
          1    1    3    3  501    0  0.33583620572E+01  0.68571546448E+01 -0.29219883389E+02  0.30201005791E+02  0.00000000000E+00 0.  1.
         -3    1    1    2    0  502 -0.31276340919E+02 -0.67370518010E+02 -0.65419020914E+03  0.65839336717E+03  0.00000000000E+00 0. -1.
<mgrwt>
<rscale>  1 0.30000000E+03</rscale>
<asrwt>0</asrwt>
<pdfrwt beam="1">  1       21 0.22284472E-01 0.30000000E+03</pdfrwt>
<pdfrwt beam="2">0</pdfrwt>
<totfact> 0.19497288E+03</totfact>
</mgrwt>
</event>
<event>
 6    1  0.1274196E-001  0.3000000E+03  0.7818608E-02  0.1093470E+00
         21   -1    0    0  501  502  0.00000000000E+00  0.00000000000E+00  0.11203635055E+01  0.11203635055E+01  0.00000000000E+00 0. -1.
         13   -1    0    0    0    0 -0.00000000000E+00 -0.00000000000E+00 -0.10000000000E+04  0.10000000000E+04  0.00000000000E+00 0.  1.
    9000005    2    1    2  501    0 -0.26823096667E+02  0.16676935620E+02 -0.66203246408E+03  0.66279564337E+03  0.36718752048E+01 0.  0.
         13    1    3    3    0    0 -0.17733220065E+02  0.10006607914E+02 -0.45705961834E+03  0.45751294409E+03  0.00000000000E+00 0.  1.
          1    1    3    3  501    0 -0.90898766023E+01  0.66703277063E+01 -0.20497284575E+03  0.20528269927E+03  0.00000000000E+00 0.  1.
         -1    1    1    2    0  502  0.26823096667E+02 -0.16676935620E+02 -0.33684717241E+03  0.33832472014E+03  0.00000000000E+00 0. -1.
<mgrwt>
<rscale>  1 0.30000000E+03</rscale>
<asrwt>0</asrwt>
<pdfrwt beam="1">  1       21 0.40740577E-02 0.30000000E+03</pdfrwt>
<pdfrwt beam="2">0</pdfrwt>
<totfact> 0.40767586E+04</totfact>
</mgrwt>
</event>
<event>
 6    1  0.1274196E-001  0.3000000E+03  0.7818608E-02  0.1093470E+00
         21   -1    0    0  501  502  0.00000000000E+00  0.00000000000E+00  0.15608406264E+01  0.15608406264E+01  0.00000000000E+00 0. -1.
         13   -1    0    0    0    0 -0.00000000000E+00 -0.00000000000E+00 -0.10000000000E+04  0.10000000000E+04  0.00000000000E+00 0.  1.
    9000005    2    1    2  501    0 -0.25475978996E+01  0.36199551181E+02 -0.68788031916E+03  0.68888898229E+03  0.84734097137E+01 0.  0.
         13    1    3    3    0    0  0.17166044837E+01  0.26503510599E+02 -0.46654243589E+03  0.46729779294E+03  0.00000000000E+00 0.  1.
          3    1    3    3  501    0 -0.42642023833E+01  0.96960405816E+01 -0.22133788327E+03  0.22159118935E+03  0.00000000000E+00 0.  1.
         -1    1    1    2    0  502  0.25475978996E+01 -0.36199551181E+02 -0.31055884022E+03  0.31267185834E+03  0.00000000000E+00 0. -1.
<mgrwt>
<rscale>  1 0.30000000E+03</rscale>
<asrwt>0</asrwt>
<pdfrwt beam="1">  1       21 0.56757961E-02 0.30000000E+03</pdfrwt>
<pdfrwt beam="2">0</pdfrwt>
<totfact> 0.23187277E+04</totfact>
</mgrwt>
</event>
<event>
 6    1  0.1274196E-001  0.3000000E+03  0.7818608E-02  0.1093470E+00
         21   -1    0    0  501  502  0.00000000000E+00  0.00000000000E+00  0.12197983620E+01  0.12197983620E+01  0.00000000000E+00 0. -1.
         13   -1    0    0    0    0 -0.00000000000E+00 -0.00000000000E+00 -0.10000000000E+04  0.10000000000E+04  0.00000000000E+00 0.  1.
    9000005    2    1    2  501    0  0.28621960023E+02  0.11565133927E+02 -0.72580994587E+03  0.72650953381E+03  0.79407977592E+01 0.  0.
         13    1    3    3    0    0  0.20603368137E+02  0.67927183686E+01 -0.57669477895E+03  0.57710268399E+03  0.00000000000E+00 0.  1.
          1    1    3    3  501    0  0.80185918858E+01  0.47724155586E+01 -0.14911516692E+03  0.14940684982E+03  0.00000000000E+00 0.  1.
         -1    1    1    2    0  502 -0.28621960023E+02 -0.11565133927E+02 -0.27297025577E+03  0.27471026456E+03  0.00000000000E+00 0. -1.
<mgrwt>
<rscale>  1 0.30000000E+03</rscale>
<asrwt>0</asrwt>
<pdfrwt beam="1">  1       21 0.44356398E-02 0.30000000E+03</pdfrwt>
<pdfrwt beam="2">0</pdfrwt>
<totfact> 0.35310401E+04</totfact>
</mgrwt>
</event>
<event>
 6    1  0.1274196E-001  0.3000000E+03  0.7818608E-02  0.1093470E+00
         21   -1    0    0  501  502  0.00000000000E+00  0.00000000000E+00  0.86379713333E+01  0.86379713333E+01  0.00000000000E+00 0. -1.
         13   -1    0    0    0    0 -0.00000000000E+00 -0.00000000000E+00 -0.10000000000E+04  0.10000000000E+04  0.00000000000E+00 0.  1.
    9000005    2    1    2  501    0 -0.32552042086E+01 -0.31507356435E+02 -0.96979673397E+03  0.97031863158E+03  0.30383718535E+01 0.  0.
         13    1    3    3    0    0 -0.89339250305E+00 -0.13352426434E+02 -0.45347214761E+03  0.45366956488E+03  0.00000000000E+00 0.  1.
          3    1    3    3  501    0 -0.23618117055E+01 -0.18154930001E+02 -0.51632458636E+03  0.51664906670E+03  0.00000000000E+00 0.  1.
         -1    1    1    2    0  502  0.32552042086E+01  0.31507356435E+02 -0.21565294696E+02  0.38319339756E+02  0.00000000000E+00 0. -1.
<mgrwt>
<rscale>  1 0.30000000E+03</rscale>
<asrwt>0</asrwt>
<pdfrwt beam="1">  1       21 0.31410871E-01 0.30000000E+03</pdfrwt>
<pdfrwt beam="2">0</pdfrwt>
<totfact> 0.99145876E+02</totfact>
</mgrwt>
</event>
<event>
 6    1  0.1274196E-001  0.3000000E+03  0.7818608E-02  0.1093470E+00
         21   -1    0    0  501  502  0.00000000000E+00  0.00000000000E+00  0.36037271295E+01  0.36037271295E+01  0.00000000000E+00 0. -1.
         13   -1    0    0    0    0 -0.00000000000E+00 -0.00000000000E+00 -0.10000000000E+04  0.10000000000E+04  0.00000000000E+00 0.  1.
    9000005    2    1    2  501    0  0.45115102699E+02 -0.20899678880E+02 -0.77913837563E+03  0.78072895740E+03  0.29878878382E+01 0.  0.
         13    1    3    3    0    0  0.27844921708E+02 -0.14301020575E+02 -0.50045221887E+03  0.50143023665E+03  0.00000000000E+00 0.  1.
          3    1    3    3  501    0  0.17270180991E+02 -0.65986583044E+01 -0.27868615677E+03  0.27929872076E+03  0.00000000000E+00 0.  1.
         -1    1    1    2    0  502 -0.45115102699E+02  0.20899678880E+02 -0.21725789724E+03  0.22287476973E+03  0.00000000000E+00 0. -1.
<mgrwt>
<rscale>  1 0.30000000E+03</rscale>
<asrwt>0</asrwt>
<pdfrwt beam="1">  1       21 0.13104490E-01 0.30000000E+03</pdfrwt>
<pdfrwt beam="2">0</pdfrwt>
<totfact> 0.52787629E+03</totfact>
</mgrwt>
</event>
<event>
 6    1  0.1274196E-001  0.3000000E+03  0.7818608E-02  0.1093470E+00
         21   -1    0    0  501  502  0.00000000000E+00  0.00000000000E+00  0.12245745638E+01  0.12245745638E+01  0.00000000000E+00 0. -1.
         13   -1    0    0    0    0 -0.00000000000E+00 -0.00000000000E+00 -0.10000000000E+04  0.10000000000E+04  0.00000000000E+00 0.  1.
    9000005    2    1    2  501    0 -0.25312284888E+02 -0.23837587878E+02 -0.54783860999E+03  0.54894926694E+03  0.30352455237E+01 0.  0.
         13    1    3    3    0    0 -0.99296305017E+01 -0.75131036246E+01 -0.20459322520E+03  0.20497178363E+03  0.00000000000E+00 0.  1.
          1    1    3    3  501    0 -0.15382654386E+02 -0.16324484254E+02 -0.34324538479E+03  0.34397748331E+03  0.00000000000E+00 0.  1.
         -1    1    1    2    0  502  0.25312284888E+02  0.23837587878E+02 -0.45093681545E+03  0.45227530763E+03  0.00000000000E+00 0. -1.
<mgrwt>
<rscale>  1 0.30000000E+03</rscale>
<asrwt>0</asrwt>
<pdfrwt beam="1">  1       21 0.44530078E-02 0.30000000E+03</pdfrwt>
<pdfrwt beam="2">0</pdfrwt>
<totfact> 0.35077247E+04</totfact>
</mgrwt>
</event>
<event>
 6    1  0.1274196E-001  0.3000000E+03  0.7818608E-02  0.1093470E+00
         21   -1    0    0  501  502  0.00000000000E+00  0.00000000000E+00  0.14974093074E+01  0.14974093074E+01  0.00000000000E+00 0. -1.
         13   -1    0    0    0    0 -0.00000000000E+00 -0.00000000000E+00 -0.10000000000E+04  0.10000000000E+04  0.00000000000E+00 0.  1.
    9000005    2    1    2  501    0 -0.15812693121E+02 -0.26189521400E+02 -0.80556506172E+03  0.80614945723E+03  0.24385308888E+01 0.  0.
         13    1    3    3    0    0 -0.15831028408E+02 -0.26230256551E+02 -0.80491551188E+03  0.80549837311E+03  0.00000000000E+00 0.  1.
          1    1    3    3  501    0  0.18335286628E-01  0.40735150364E-01 -0.64954983974E+00  0.65108411862E+00  0.00000000000E+00 0.  1.
         -1    1    1    2    0  502  0.15812693121E+02  0.26189521400E+02 -0.19293752898E+03  0.19534795208E+03  0.00000000000E+00 0. -1.
<mgrwt>
<rscale>  1 0.30000000E+03</rscale>
<asrwt>0</asrwt>
<pdfrwt beam="1">  1       21 0.54451362E-02 0.30000000E+03</pdfrwt>
<pdfrwt beam="2">0</pdfrwt>
<totfact> 0.24898344E+04</totfact>
</mgrwt>
</event>
<event>
 6    1  0.1274196E-001  0.3000000E+03  0.7818608E-02  0.1093470E+00
         21   -1    0    0  501  502  0.00000000000E+00  0.00000000000E+00  0.12284548442E+01  0.12284548442E+01  0.00000000000E+00 0. -1.
         13   -1    0    0    0    0 -0.00000000000E+00 -0.00000000000E+00 -0.10000000000E+04  0.10000000000E+04  0.00000000000E+00 0.  1.
    9000005    2    1    2  501    0 -0.27227704216E+02 -0.21185831554E+02 -0.42232514168E+03  0.42375062547E+03  0.39849664816E+01 0.  0.
         13    1    3    3    0    0 -0.26280227136E+02 -0.20608452843E+02 -0.41503603896E+03  0.41637755980E+03  0.00000000000E+00 0.  1.
          3    1    3    3  501    0 -0.94747708032E+00 -0.57737871138E+00 -0.72891027193E+01  0.73730656750E+01  0.00000000000E+00 0.  1.
         -1    1    1    2    0  502  0.27227704216E+02  0.21185831554E+02 -0.57644640348E+03  0.57747782937E+03  0.00000000000E+00 0. -1.
<mgrwt>
<rscale>  1 0.30000000E+03</rscale>
<asrwt>0</asrwt>
<pdfrwt beam="1">  1       21 0.44671179E-02 0.30000000E+03</pdfrwt>
<pdfrwt beam="2">0</pdfrwt>
<totfact> 0.34889574E+04</totfact>
</mgrwt>
</event>
<event>
 6    1  0.1274196E-001  0.3000000E+03  0.7818608E-02  0.1093470E+00
         21   -1    0    0  501  502  0.00000000000E+00  0.00000000000E+00  0.16839572486E+01  0.16839572486E+01  0.00000000000E+00 0. -1.
         13   -1    0    0    0    0 -0.00000000000E+00 -0.00000000000E+00 -0.10000000000E+04  0.10000000000E+04  0.00000000000E+00 0.  1.
    9000005    2    1    2  501    0  0.32371206284E+02 -0.13247805204E+02 -0.76025473706E+03  0.76106686599E+03  0.34799345370E+01 0.  0.
         13    1    3    3    0    0  0.29054739571E+02 -0.12742534432E+02 -0.67228967564E+03  0.67303785782E+03  0.00000000000E+00 0.  1.
          1    1    3    3  501    0  0.33164667135E+01 -0.50527077199E+00 -0.87965061413E+02  0.88029008170E+02  0.00000000000E+00 0.  1.
         -3    1    1    2    0  502 -0.32371206284E+02  0.13247805204E+02 -0.23806130569E+03  0.24061709126E+03  0.00000000000E+00 0. -1.
<mgrwt>
<rscale>  1 0.30000000E+03</rscale>
<asrwt>0</asrwt>
<pdfrwt beam="1">  1       21 0.61234938E-02 0.30000000E+03</pdfrwt>
<pdfrwt beam="2">0</pdfrwt>
<totfact> 0.20343834E+04</totfact>
</mgrwt>
</event>
<event>
 6    1  0.1274196E-001  0.3000000E+03  0.7818608E-02  0.1093470E+00
         21   -1    0    0  501  502  0.00000000000E+00  0.00000000000E+00  0.14314126108E+01  0.14314126108E+01  0.00000000000E+00 0. -1.
         13   -1    0    0    0    0 -0.00000000000E+00 -0.00000000000E+00 -0.10000000000E+04  0.10000000000E+04  0.00000000000E+00 0.  1.
    9000005    2    1    2  501    0  0.10114608776E+02 -0.34029889714E+02 -0.66910505077E+03  0.67006068266E+03  0.44057666678E+01 0.  0.
         13    1    3    3    0    0  0.42387571767E+01 -0.11874570354E+02 -0.20136732732E+03  0.20176167376E+03  0.00000000000E+00 0.  1.
          3    1    3    3  501    0  0.58758515990E+01 -0.22155319361E+02 -0.46773772345E+03  0.46829900891E+03  0.00000000000E+00 0.  1.
         -1    1    1    2    0  502 -0.10114608776E+02  0.34029889714E+02 -0.32946353662E+03  0.33137072995E+03  0.00000000000E+00 0. -1.
<mgrwt>
<rscale>  1 0.30000000E+03</rscale>
<asrwt>0</asrwt>
<pdfrwt beam="1">  1       21 0.52051477E-02 0.30000000E+03</pdfrwt>
<pdfrwt beam="2">0</pdfrwt>
<totfact> 0.26894383E+04</totfact>
</mgrwt>
</event>
<event>
 6    1  0.1274196E-001  0.3000000E+03  0.7818608E-02  0.1093470E+00
         21   -1    0    0  501  502  0.00000000000E+00  0.00000000000E+00  0.61135902542E+01  0.61135902542E+01  0.00000000000E+00 0. -1.
         13   -1    0    0    0    0 -0.00000000000E+00 -0.00000000000E+00 -0.10000000000E+04  0.10000000000E+04  0.00000000000E+00 0.  1.
    9000005    2    1    2  501    0 -0.36847654649E+02 -0.63620338165E+02 -0.66777287613E+03  0.67181531941E+03  0.31483676286E+01 0.  0.
         13    1    3    3    0    0 -0.10742182521E+02 -0.21412609684E+02 -0.21433397131E+03  0.21566860132E+03  0.00000000000E+00 0.  1.
          3    1    3    3  501    0 -0.26105472128E+02 -0.42207728481E+02 -0.45343890483E+03  0.45614671809E+03  0.00000000000E+00 0.  1.
         -1    1    1    2    0  502  0.36847654649E+02  0.63620338165E+02 -0.32611353361E+03  0.33429827084E+03  0.00000000000E+00 0. -1.
<mgrwt>
<rscale>  1 0.30000000E+03</rscale>
<asrwt>0</asrwt>
<pdfrwt beam="1">  1       21 0.22231284E-01 0.30000000E+03</pdfrwt>
<pdfrwt beam="2">0</pdfrwt>
<totfact> 0.19587311E+03</totfact>
</mgrwt>
</event>
<event>
 6    1  0.1274196E-001  0.3000000E+03  0.7818608E-02  0.1093470E+00
         21   -1    0    0  501  502  0.00000000000E+00  0.00000000000E+00  0.62631505535E+01  0.62631505535E+01  0.00000000000E+00 0. -1.
         13   -1    0    0    0    0 -0.00000000000E+00 -0.00000000000E+00 -0.10000000000E+04  0.10000000000E+04  0.00000000000E+00 0.  1.
    9000005    2    1    2  501    0 -0.35088022652E+01  0.33154639513E+02 -0.95309461356E+03  0.95369573524E+03  0.58882264589E+01 0.  0.
         13    1    3    3    0    0 -0.28370099158E+01  0.31960216056E+02 -0.87307111838E+03  0.87366050717E+03  0.00000000000E+00 0.  1.
          1    1    3    3  501    0 -0.67179234937E+00  0.11944234563E+01 -0.80023495177E+02  0.80035228073E+02  0.00000000000E+00 0.  1.
         -1    1    1    2    0  502  0.35088022652E+01 -0.33154639513E+02 -0.40642235889E+02  0.52567415312E+02  0.00000000000E+00 0. -1.
<mgrwt>
<rscale>  1 0.30000000E+03</rscale>
<asrwt>0</asrwt>
<pdfrwt beam="1">  1       21 0.22775141E-01 0.30000000E+03</pdfrwt>
<pdfrwt beam="2">0</pdfrwt>
<totfact> 0.18694595E+03</totfact>
</mgrwt>
</event>
<event>
 6    1  0.1274196E-001  0.3000000E+03  0.7818608E-02  0.1093470E+00
         21   -1    0    0  501  502  0.00000000000E+00  0.00000000000E+00  0.57133808693E+01  0.57133808693E+01  0.00000000000E+00 0. -1.
         13   -1    0    0    0    0 -0.00000000000E+00 -0.00000000000E+00 -0.10000000000E+04  0.10000000000E+04  0.00000000000E+00 0.  1.
    9000005    2    1    2  501    0 -0.12729271568E+02  0.32513412017E+02 -0.94310118490E+03  0.94375286930E+03  0.32368273845E+01 0.  0.
         13    1    3    3    0    0 -0.68262678714E+01  0.13388906121E+02 -0.42133406116E+03  0.42160200644E+03  0.00000000000E+00 0.  1.
          1    1    3    3  501    0 -0.59030036966E+01  0.19124505896E+02 -0.52176712374E+03  0.52215086287E+03  0.00000000000E+00 0.  1.
         -3    1    1    2    0  502  0.12729271568E+02 -0.32513412017E+02 -0.51185434235E+02  0.61960511565E+02  0.00000000000E+00 0. -1.
<mgrwt>
<rscale>  1 0.30000000E+03</rscale>
<asrwt>0</asrwt>
<pdfrwt beam="1">  1       21 0.20775974E-01 0.30000000E+03</pdfrwt>
<pdfrwt beam="2">0</pdfrwt>
<totfact> 0.22307965E+03</totfact>
</mgrwt>
</event>
<event>
 6    1  0.1274196E-001  0.3000000E+03  0.7818608E-02  0.1093470E+00
         21   -1    0    0  501  502  0.00000000000E+00  0.00000000000E+00  0.11386677701E+01  0.11386677701E+01  0.00000000000E+00 0. -1.
         13   -1    0    0    0    0 -0.00000000000E+00 -0.00000000000E+00 -0.10000000000E+04  0.10000000000E+04  0.00000000000E+00 0.  1.
    9000005    2    1    2  501    0 -0.10196291133E+02 -0.29312804592E+02 -0.69227878879E+03  0.69298925465E+03  0.45804783490E+01 0.  0.
         13    1    3    3    0    0 -0.10543284430E+02 -0.28413368390E+02 -0.65900181436E+03  0.65969831869E+03  0.00000000000E+00 0.  1.
          1    1    3    3  501    0  0.34699329651E+00 -0.89943620282E+00 -0.33276974426E+02  0.33290935955E+02  0.00000000000E+00 0.  1.
         -1    1    1    2    0  502  0.10196291133E+02  0.29312804592E+02 -0.30658254344E+03  0.30814941312E+03  0.00000000000E+00 0. -1.
<mgrwt>
<rscale>  1 0.30000000E+03</rscale>
<asrwt>0</asrwt>
<pdfrwt beam="1">  1       21 0.41406188E-02 0.30000000E+03</pdfrwt>
<pdfrwt beam="2">0</pdfrwt>
<totfact> 0.39668509E+04</totfact>
</mgrwt>
</event>
<event>
 6    1  0.1274196E-001  0.3000000E+03  0.7818608E-02  0.1093470E+00
         21   -1    0    0  501  502  0.00000000000E+00  0.00000000000E+00  0.37119352462E+01  0.37119352462E+01  0.00000000000E+00 0. -1.
         13   -1    0    0    0    0 -0.00000000000E+00 -0.00000000000E+00 -0.10000000000E+04  0.10000000000E+04  0.00000000000E+00 0.  1.
    9000005    2    1    2  501    0  0.53226219471E+01 -0.32154376747E+02 -0.92209708414E+03  0.92267777052E+03  0.30002308572E+01 0.  0.
         13    1    3    3    0    0  0.41989228602E+01 -0.26808526919E+02 -0.79609451236E+03  0.79655684083E+03  0.00000000000E+00 0.  1.
          3    1    3    3  501    0  0.11236990868E+01 -0.53458498281E+01 -0.12600257178E+03  0.12612092969E+03  0.00000000000E+00 0.  1.
         -3    1    1    2    0  502 -0.53226219471E+01  0.32154376747E+02 -0.74190980617E+02  0.81034164729E+02  0.00000000000E+00 0. -1.
<mgrwt>
<rscale>  1 0.30000000E+03</rscale>
<asrwt>0</asrwt>
<pdfrwt beam="1">  1       21 0.13497975E-01 0.30000000E+03</pdfrwt>
<pdfrwt beam="2">0</pdfrwt>
<totfact> 0.50006751E+03</totfact>
</mgrwt>
</event>
<event>
 6    1  0.1274196E-001  0.3000000E+03  0.7818608E-02  0.1093470E+00
         21   -1    0    0  501  502  0.00000000000E+00  0.00000000000E+00  0.35758584555E+01  0.35758584555E+01  0.00000000000E+00 0. -1.
         13   -1    0    0    0    0 -0.00000000000E+00 -0.00000000000E+00 -0.10000000000E+04  0.10000000000E+04  0.00000000000E+00 0.  1.
    9000005    2    1    2  501    0 -0.49435126874E+02  0.25083484103E+02 -0.68572502316E+03  0.68797016283E+03  0.33353588007E+01 0.  0.
         13    1    3    3    0    0 -0.16971317226E+02  0.96631304371E+01 -0.25761842303E+03  0.25835760794E+03  0.00000000000E+00 0.  1.
          1    1    3    3  501    0 -0.32463809648E+02  0.15420353666E+02 -0.42810660013E+03  0.42961255489E+03  0.00000000000E+00 0.  1.
         -3    1    1    2    0  502  0.49435126874E+02 -0.25083484103E+02 -0.31069911839E+03  0.31560569563E+03  0.00000000000E+00 0. -1.
<mgrwt>
<rscale>  1 0.30000000E+03</rscale>
<asrwt>0</asrwt>
<pdfrwt beam="1">  1       21 0.13003149E-01 0.30000000E+03</pdfrwt>
<pdfrwt beam="2">0</pdfrwt>
<totfact> 0.53541556E+03</totfact>
</mgrwt>
</event>
<event>
 6    1  0.1274196E-001  0.3000000E+03  0.7818608E-02  0.1093470E+00
         21   -1    0    0  501  502  0.00000000000E+00  0.00000000000E+00  0.14211596692E+01  0.14211596692E+01  0.00000000000E+00 0. -1.
         13   -1    0    0    0    0 -0.00000000000E+00 -0.00000000000E+00 -0.10000000000E+04  0.10000000000E+04  0.00000000000E+00 0.  1.
    9000005    2    1    2  501    0  0.41165587126E+01 -0.31949373110E+02 -0.75852904455E+03  0.75921956398E+03  0.32134737066E+01 0.  0.
         13    1    3    3    0    0  0.13855380876E+00 -0.48305198616E-01 -0.12733216574E+01  0.12817482566E+01  0.00000000000E+00 0.  1.
          3    1    3    3  501    0  0.39780049038E+01 -0.31901067912E+02 -0.75725572289E+03  0.75793781573E+03  0.00000000000E+00 0.  1.
         -3    1    1    2    0  502 -0.41165587126E+01  0.31949373110E+02 -0.24004979578E+03  0.24220159569E+03  0.00000000000E+00 0. -1.
<mgrwt>
<rscale>  1 0.30000000E+03</rscale>
<asrwt>0</asrwt>
<pdfrwt beam="1">  1       21 0.51678642E-02 0.30000000E+03</pdfrwt>
<pdfrwt beam="2">0</pdfrwt>
<totfact> 0.27226645E+04</totfact>
</mgrwt>
</event>
<event>
 6    1  0.1274196E-001  0.3000000E+03  0.7818608E-02  0.1093470E+00
         21   -1    0    0  501  502  0.00000000000E+00  0.00000000000E+00  0.11578675618E+01  0.11578675618E+01  0.00000000000E+00 0. -1.
         13   -1    0    0    0    0 -0.00000000000E+00 -0.00000000000E+00 -0.10000000000E+04  0.10000000000E+04  0.00000000000E+00 0.  1.
    9000005    2    1    2  501    0 -0.31432643257E+02 -0.77498436497E+01 -0.65120671702E+03  0.65201827772E+03  0.30943587631E+01 0.  0.
         13    1    3    3    0    0 -0.20450787982E+02 -0.35479722121E+01 -0.40920344852E+03  0.40972952678E+03  0.00000000000E+00 0.  1.
          1    1    3    3  501    0 -0.10981855275E+02 -0.42018714376E+01 -0.24200326850E+03  0.24228875094E+03  0.00000000000E+00 0.  1.
         -3    1    1    2    0  502  0.31432643257E+02  0.77498436497E+01 -0.34763541542E+03  0.34913958984E+03  0.00000000000E+00 0. -1.
<mgrwt>
<rscale>  1 0.30000000E+03</rscale>
<asrwt>0</asrwt>
<pdfrwt beam="1">  1       21 0.42104364E-02 0.30000000E+03</pdfrwt>
<pdfrwt beam="2">0</pdfrwt>
<totfact> 0.38564490E+04</totfact>
</mgrwt>
</event>
<event>
 6    1  0.1274196E-001  0.3000000E+03  0.7818608E-02  0.1093470E+00
         21   -1    0    0  501  502  0.00000000000E+00  0.00000000000E+00  0.11576626397E+01  0.11576626397E+01  0.00000000000E+00 0. -1.
         13   -1    0    0    0    0 -0.00000000000E+00 -0.00000000000E+00 -0.10000000000E+04  0.10000000000E+04  0.00000000000E+00 0.  1.
    9000005    2    1    2  501    0 -0.30627253134E+02 -0.13828219602E+02 -0.57116187399E+03  0.57215902972E+03  0.32894843114E+01 0.  0.
         13    1    3    3    0    0 -0.24785346315E+02 -0.98170877817E+01 -0.44305030197E+03  0.44385161786E+03  0.00000000000E+00 0.  1.
          3    1    3    3  501    0 -0.58419068187E+01 -0.40111318199E+01 -0.12811157202E+03  0.12830741186E+03  0.00000000000E+00 0.  1.
         -1    1    1    2    0  502  0.30627253134E+02  0.13828219602E+02 -0.42768046337E+03  0.42899863292E+03  0.00000000000E+00 0. -1.
<mgrwt>
<rscale>  1 0.30000000E+03</rscale>
<asrwt>0</asrwt>
<pdfrwt beam="1">  1       21 0.42096912E-02 0.30000000E+03</pdfrwt>
<pdfrwt beam="2">0</pdfrwt>
<totfact> 0.38576020E+04</totfact>
</mgrwt>
</event>
<event>
 6    1  0.1274196E-001  0.3000000E+03  0.7818608E-02  0.1093470E+00
         21   -1    0    0  501  502  0.00000000000E+00  0.00000000000E+00  0.16634399924E+01  0.16634399924E+01  0.00000000000E+00 0. -1.
         13   -1    0    0    0    0 -0.00000000000E+00 -0.00000000000E+00 -0.10000000000E+04  0.10000000000E+04  0.00000000000E+00 0.  1.
    9000005    2    1    2  501    0 -0.31847039195E+02 -0.88593171455E+01 -0.79211331976E+03  0.79280763753E+03  0.27780158876E+01 0.  0.
         13    1    3    3    0    0 -0.31426984670E+02 -0.89667719734E+01 -0.78589267933E+03  0.78657190504E+03  0.00000000000E+00 0.  1.
          3    1    3    3  501    0 -0.42005452544E+00  0.10745482790E+00 -0.62206404306E+01  0.62357324920E+01  0.00000000000E+00 0.  1.
         -1    1    1    2    0  502  0.31847039195E+02  0.88593171455E+01 -0.20622324025E+03  0.20885580246E+03  0.00000000000E+00 0. -1.
<mgrwt>
<rscale>  1 0.30000000E+03</rscale>
<asrwt>0</asrwt>
<pdfrwt beam="1">  1       21 0.60488855E-02 0.30000000E+03</pdfrwt>
<pdfrwt beam="2">0</pdfrwt>
<totfact> 0.20778780E+04</totfact>
</mgrwt>
</event>
<event>
 6    1  0.1274196E-001  0.3000000E+03  0.7818608E-02  0.1093470E+00
         21   -1    0    0  501  502  0.00000000000E+00  0.00000000000E+00  0.18582152450E+01  0.18582152450E+01  0.00000000000E+00 0. -1.
         13   -1    0    0    0    0 -0.00000000000E+00 -0.00000000000E+00 -0.10000000000E+04  0.10000000000E+04  0.00000000000E+00 0.  1.
    9000005    2    1    2  501    0 -0.19937432715E+01 -0.39246561804E+02 -0.70384419036E+03  0.70494856284E+03  0.34006350102E+01 0.  0.
         13    1    3    3    0    0 -0.21880177199E+01 -0.37533635897E+02 -0.68254406693E+03  0.68357879176E+03  0.00000000000E+00 0.  1.
          1    1    3    3  501    0  0.19427444844E+00 -0.17129259071E+01 -0.21300123424E+02  0.21369771071E+02  0.00000000000E+00 0.  1.
         -3    1    1    2    0  502  0.19937432715E+01  0.39246561804E+02 -0.29429759440E+03  0.29690965241E+03  0.00000000000E+00 0. -1.
<mgrwt>
<rscale>  1 0.30000000E+03</rscale>
<asrwt>0</asrwt>
<pdfrwt beam="1">  1       21 0.67571606E-02 0.30000000E+03</pdfrwt>
<pdfrwt beam="2">0</pdfrwt>
<totfact> 0.17156405E+04</totfact>
</mgrwt>
</event>
<event>
 6    1  0.1274196E-001  0.3000000E+03  0.7818608E-02  0.1093470E+00
         21   -1    0    0  501  502  0.00000000000E+00  0.00000000000E+00  0.96923943222E+00  0.96923943222E+00  0.00000000000E+00 0. -1.
         13   -1    0    0    0    0 -0.00000000000E+00 -0.00000000000E+00 -0.10000000000E+04  0.10000000000E+04  0.00000000000E+00 0.  1.
    9000005    2    1    2  501    0  0.16747423316E+02 -0.25158746893E+02 -0.61573771585E+03  0.61648647407E+03  0.30330275087E+01 0.  0.
         13    1    3    3    0    0  0.53854725340E+01 -0.10379957053E+02 -0.25284955174E+03  0.25311981873E+03  0.00000000000E+00 0.  1.
          1    1    3    3  501    0  0.11361950782E+02 -0.14778789840E+02 -0.36288816411E+03  0.36336665533E+03  0.00000000000E+00 0.  1.
         -3    1    1    2    0  502 -0.16747423316E+02  0.25158746893E+02 -0.38329304472E+03  0.38448276537E+03  0.00000000000E+00 0. -1.
<mgrwt>
<rscale>  1 0.30000000E+03</rscale>
<asrwt>0</asrwt>
<pdfrwt beam="1">  1       21 0.35245145E-02 0.30000000E+03</pdfrwt>
<pdfrwt beam="2">0</pdfrwt>
<totfact> 0.52005282E+04</totfact>
</mgrwt>
</event>
<event>
 6    1  0.1274196E-001  0.3000000E+03  0.7818608E-02  0.1093470E+00
         21   -1    0    0  501  502  0.00000000000E+00  0.00000000000E+00  0.11540770579E+01  0.11540770579E+01  0.00000000000E+00 0. -1.
         13   -1    0    0    0    0 -0.00000000000E+00 -0.00000000000E+00 -0.10000000000E+04  0.10000000000E+04  0.00000000000E+00 0.  1.
    9000005    2    1    2  501    0 -0.30672972397E+02  0.35888823312E+01 -0.70625872097E+03  0.70694159930E+03  0.33663866557E+01 0.  0.
         13    1    3    3    0    0 -0.11969661238E+02  0.24332201432E+01 -0.24994929414E+03  0.25024756341E+03  0.00000000000E+00 0.  1.
          3    1    3    3  501    0 -0.18703311160E+02  0.11556621880E+01 -0.45630942682E+03  0.45669403588E+03  0.00000000000E+00 0.  1.
         -3    1    1    2    0  502  0.30672972397E+02 -0.35888823312E+01 -0.29258720197E+03  0.29421247776E+03  0.00000000000E+00 0. -1.
<mgrwt>
<rscale>  1 0.30000000E+03</rscale>
<asrwt>0</asrwt>
<pdfrwt beam="1">  1       21 0.41966527E-02 0.30000000E+03</pdfrwt>
<pdfrwt beam="2">0</pdfrwt>
<totfact> 0.38778631E+04</totfact>
</mgrwt>
</event>
<event>
 6    1  0.1274196E-001  0.3000000E+03  0.7818608E-02  0.1093470E+00
         21   -1    0    0  501  502  0.00000000000E+00  0.00000000000E+00  0.17094634681E+01  0.17094634681E+01  0.00000000000E+00 0. -1.
         13   -1    0    0    0    0 -0.00000000000E+00 -0.00000000000E+00 -0.10000000000E+04  0.10000000000E+04  0.00000000000E+00 0.  1.
    9000005    2    1    2  501    0  0.20322633438E+02  0.24249332654E+02 -0.82108019727E+03  0.82169684195E+03  0.34597918793E+01 0.  0.
         13    1    3    3    0    0  0.30891302376E+01  0.23837256599E+01 -0.82776426078E+02  0.82868338875E+02  0.00000000000E+00 0.  1.
          1    1    3    3  501    0  0.17233503201E+02  0.21865606994E+02 -0.73830377120E+03  0.73882850308E+03  0.00000000000E+00 0.  1.
         -1    1    1    2    0  502 -0.20322633438E+02 -0.24249332654E+02 -0.17721033926E+03  0.18001262151E+03  0.00000000000E+00 0. -1.
<mgrwt>
<rscale>  1 0.30000000E+03</rscale>
<asrwt>0</asrwt>
<pdfrwt beam="1">  1       21 0.62162439E-02 0.30000000E+03</pdfrwt>
<pdfrwt beam="2">0</pdfrwt>
<totfact> 0.19822554E+04</totfact>
</mgrwt>
</event>
<event>
 6    1  0.1274196E-001  0.3000000E+03  0.7818608E-02  0.1093470E+00
         21   -1    0    0  501  502  0.00000000000E+00  0.00000000000E+00  0.25947185828E+01  0.25947185828E+01  0.00000000000E+00 0. -1.
         13   -1    0    0    0    0 -0.00000000000E+00 -0.00000000000E+00 -0.10000000000E+04  0.10000000000E+04  0.00000000000E+00 0.  1.
    9000005    2    1    2  501    0  0.21194985205E+02  0.24338186967E+02 -0.88640067707E+03  0.88699369381E+03  0.31745554180E+01 0.  0.
         13    1    3    3    0    0  0.27197358682E+01  0.27267167565E+01 -0.81372985803E+02  0.81464070399E+02  0.00000000000E+00 0.  1.
          1    1    3    3  501    0  0.18475249337E+02  0.21611470211E+02 -0.80502769127E+03  0.80552962341E+03  0.00000000000E+00 0.  1.
         -1    1    1    2    0  502 -0.21194985205E+02 -0.24338186967E+02 -0.11100460434E+03  0.11560102477E+03  0.00000000000E+00 0. -1.
<mgrwt>
<rscale>  1 0.30000000E+03</rscale>
<asrwt>0</asrwt>
<pdfrwt beam="1">  1       21 0.94353602E-02 0.30000000E+03</pdfrwt>
<pdfrwt beam="2">0</pdfrwt>
<totfact> 0.95430416E+03</totfact>
</mgrwt>
</event>
<event>
 6    1  0.1274196E-001  0.3000000E+03  0.7818608E-02  0.1093470E+00
         21   -1    0    0  501  502  0.00000000000E+00  0.00000000000E+00  0.12448728907E+01  0.12448728907E+01  0.00000000000E+00 0. -1.
         13   -1    0    0    0    0 -0.00000000000E+00 -0.00000000000E+00 -0.10000000000E+04  0.10000000000E+04  0.00000000000E+00 0.  1.
    9000005    2    1    2  501    0  0.21146737743E+02  0.22444069530E+02 -0.74136526601E+03  0.74201435507E+03  0.34532167092E+01 0.  0.
         13    1    3    3    0    0  0.57699101812E+01  0.40953393213E+01 -0.17873297238E+03  0.17887296912E+03  0.00000000000E+00 0.  1.
          3    1    3    3  501    0  0.15376827561E+02  0.18348730209E+02 -0.56263229363E+03  0.56314138595E+03  0.00000000000E+00 0.  1.
         -3    1    1    2    0  502 -0.21146737743E+02 -0.22444069530E+02 -0.25738986110E+03  0.25923051782E+03  0.00000000000E+00 0. -1.
<mgrwt>
<rscale>  1 0.30000000E+03</rscale>
<asrwt>0</asrwt>
<pdfrwt beam="1">  1       21 0.45268201E-02 0.30000000E+03</pdfrwt>
<pdfrwt beam="2">0</pdfrwt>
<totfact> 0.34112391E+04</totfact>
</mgrwt>
</event>
<event>
 6    1  0.1274196E-001  0.3000000E+03  0.7818608E-02  0.1093470E+00
         21   -1    0    0  501  502  0.00000000000E+00  0.00000000000E+00  0.18930510052E+01  0.18930510052E+01  0.00000000000E+00 0. -1.
         13   -1    0    0    0    0 -0.00000000000E+00 -0.00000000000E+00 -0.10000000000E+04  0.10000000000E+04  0.00000000000E+00 0.  1.
    9000005    2    1    2  501    0 -0.32935151586E+02  0.84383485385E+00 -0.82604694907E+03  0.82670720728E+03  0.24100280335E+01 0.  0.
         13    1    3    3    0    0 -0.18268124406E+02  0.13697150122E+01 -0.43878335116E+03  0.43916560628E+03  0.00000000000E+00 0.  1.
          1    1    3    3  501    0 -0.14667027180E+02 -0.52588015830E+00 -0.38726359791E+03  0.38754160100E+03  0.00000000000E+00 0.  1.
         -3    1    1    2    0  502  0.32935151586E+02 -0.84383485385E+00 -0.17205999992E+03  0.17518584372E+03  0.00000000000E+00 0. -1.
<mgrwt>
<rscale>  1 0.30000000E+03</rscale>
<asrwt>0</asrwt>
<pdfrwt beam="1">  1       21 0.68838364E-02 0.30000000E+03</pdfrwt>
<pdfrwt beam="2">0</pdfrwt>
<totfact> 0.16611781E+04</totfact>
</mgrwt>
</event>
<event>
 6    1  0.1274196E-001  0.3000000E+03  0.7818608E-02  0.1093470E+00
         21   -1    0    0  501  502  0.00000000000E+00  0.00000000000E+00  0.14220669075E+01  0.14220669075E+01  0.00000000000E+00 0. -1.
         13   -1    0    0    0    0 -0.00000000000E+00 -0.00000000000E+00 -0.10000000000E+04  0.10000000000E+04  0.00000000000E+00 0.  1.
    9000005    2    1    2  501    0  0.11237050837E+02 -0.35385832075E+02 -0.57395783101E+03  0.57518192389E+03  0.53127557882E+01 0.  0.
         13    1    3    3    0    0  0.19939312155E+01 -0.13741502331E+02 -0.23196653402E+03  0.23238174961E+03  0.00000000000E+00 0.  1.
          1    1    3    3  501    0  0.92431196217E+01 -0.21644329744E+02 -0.34199129699E+03  0.34280017428E+03  0.00000000000E+00 0.  1.
         -3    1    1    2    0  502 -0.11237050837E+02  0.35385832075E+02 -0.42462010209E+03  0.42624014302E+03  0.00000000000E+00 0. -1.
<mgrwt>
<rscale>  1 0.30000000E+03</rscale>
<asrwt>0</asrwt>
<pdfrwt beam="1">  1       21 0.51711633E-02 0.30000000E+03</pdfrwt>
<pdfrwt beam="2">0</pdfrwt>
<totfact> 0.27196989E+04</totfact>
</mgrwt>
</event>
<event>
 6    1  0.1274196E-001  0.3000000E+03  0.7818608E-02  0.1093470E+00
         21   -1    0    0  501  502  0.00000000000E+00  0.00000000000E+00  0.21785131690E+01  0.21785131690E+01  0.00000000000E+00 0. -1.
         13   -1    0    0    0    0 -0.00000000000E+00 -0.00000000000E+00 -0.10000000000E+04  0.10000000000E+04  0.00000000000E+00 0.  1.
    9000005    2    1    2  501    0 -0.15033830154E+02 -0.44000381584E+02 -0.53595797234E+03  0.53798032743E+03  0.31360730946E+01 0.  0.
         13    1    3    3    0    0 -0.50896527582E+01 -0.18032892420E+02 -0.22924449993E+03  0.23000897922E+03  0.00000000000E+00 0.  1.
          3    1    3    3  501    0 -0.99441773957E+01 -0.25967489164E+02 -0.30671347241E+03  0.30797134820E+03  0.00000000000E+00 0.  1.
         -3    1    1    2    0  502  0.15033830154E+02  0.44000381584E+02 -0.46186351449E+03  0.46419818574E+03  0.00000000000E+00 0. -1.
<mgrwt>
<rscale>  1 0.30000000E+03</rscale>
<asrwt>0</asrwt>
<pdfrwt beam="1">  1       21 0.79218828E-02 0.30000000E+03</pdfrwt>
<pdfrwt beam="2">0</pdfrwt>
<totfact> 0.12995879E+04</totfact>
</mgrwt>
</event>
<event>
 6    1  0.1274196E-001  0.3000000E+03  0.7818608E-02  0.1093470E+00
         21   -1    0    0  501  502  0.00000000000E+00  0.00000000000E+00  0.21274861182E+01  0.21274861182E+01  0.00000000000E+00 0. -1.
         13   -1    0    0    0    0 -0.00000000000E+00 -0.00000000000E+00 -0.10000000000E+04  0.10000000000E+04  0.00000000000E+00 0.  1.
    9000005    2    1    2  501    0  0.16925287523E+02  0.37186372198E+02 -0.72888935189E+03  0.73005905159E+03  0.61024474936E+01 0.  0.
         13    1    3    3    0    0  0.71332046701E+01  0.12397838361E+02 -0.30195214767E+03  0.30229073503E+03  0.00000000000E+00 0.  1.
          3    1    3    3  501    0  0.97920828529E+01  0.24788533837E+02 -0.42693720422E+03  0.42776831655E+03  0.00000000000E+00 0.  1.
         -3    1    1    2    0  502 -0.16925287523E+02 -0.37186372198E+02 -0.26898316199E+03  0.27206843453E+03  0.00000000000E+00 0. -1.
<mgrwt>
<rscale>  1 0.30000000E+03</rscale>
<asrwt>0</asrwt>
<pdfrwt beam="1">  1       21 0.77363295E-02 0.30000000E+03</pdfrwt>
<pdfrwt beam="2">0</pdfrwt>
<totfact> 0.13547669E+04</totfact>
</mgrwt>
</event>
<event>
 6    1  0.1274196E-001  0.3000000E+03  0.7818608E-02  0.1093470E+00
         21   -1    0    0  501  502  0.00000000000E+00  0.00000000000E+00  0.26532314200E+01  0.26532314200E+01  0.00000000000E+00 0. -1.
         13   -1    0    0    0    0 -0.00000000000E+00 -0.00000000000E+00 -0.10000000000E+04  0.10000000000E+04  0.00000000000E+00 0.  1.
    9000005    2    1    2  501    0  0.25662279582E+01 -0.31477463100E+02 -0.89417901790E+03  0.89475976086E+03  0.64418469687E+01 0.  0.
         13    1    3    3    0    0  0.35296491372E+01 -0.30311031181E+02 -0.86874397431E+03  0.86927976505E+03  0.00000000000E+00 0.  1.
          3    1    3    3  501    0 -0.96342117901E+00 -0.11664319190E+01 -0.25435043588E+02  0.25479995803E+02  0.00000000000E+00 0.  1.
         -1    1    1    2    0  502 -0.25662279582E+01  0.31477463100E+02 -0.10316775068E+03  0.10789347056E+03  0.00000000000E+00 0. -1.
<mgrwt>
<rscale>  1 0.30000000E+03</rscale>
<asrwt>0</asrwt>
<pdfrwt beam="1">  1       21 0.96481346E-02 0.30000000E+03</pdfrwt>
<pdfrwt beam="2">0</pdfrwt>
<totfact> 0.91712565E+03</totfact>
</mgrwt>
</event>
<event>
 6    1  0.1274196E-001  0.3000000E+03  0.7818608E-02  0.1093470E+00
         21   -1    0    0  501  502  0.00000000000E+00  0.00000000000E+00  0.15499085071E+01  0.15499085071E+01  0.00000000000E+00 0. -1.
         13   -1    0    0    0    0 -0.00000000000E+00 -0.00000000000E+00 -0.10000000000E+04  0.10000000000E+04  0.00000000000E+00 0.  1.
    9000005    2    1    2  501    0  0.14591353190E+02 -0.27096531735E+02 -0.81102269393E+03  0.81161265840E+03  0.31886658989E+01 0.  0.
         13    1    3    3    0    0  0.22537019455E+01 -0.36418725961E+01 -0.14407035930E+03  0.14413400306E+03  0.00000000000E+00 0.  1.
          3    1    3    3  501    0  0.12337651244E+02 -0.23454659139E+02 -0.66695233462E+03  0.66747865534E+03  0.00000000000E+00 0.  1.
         -3    1    1    2    0  502 -0.14591353190E+02  0.27096531735E+02 -0.18742739757E+03  0.18993725011E+03  0.00000000000E+00 0. -1.
<mgrwt>
<rscale>  1 0.30000000E+03</rscale>
<asrwt>0</asrwt>
<pdfrwt beam="1">  1       21 0.56360428E-02 0.30000000E+03</pdfrwt>
<pdfrwt beam="2">0</pdfrwt>
<totfact> 0.23469034E+04</totfact>
</mgrwt>
</event>
<event>
 6    1  0.1274196E-001  0.3000000E+03  0.7818608E-02  0.1093470E+00
         21   -1    0    0  501  502  0.00000000000E+00  0.00000000000E+00  0.39883783280E+01  0.39883783280E+01  0.00000000000E+00 0. -1.
         13   -1    0    0    0    0 -0.00000000000E+00 -0.00000000000E+00 -0.10000000000E+04  0.10000000000E+04  0.00000000000E+00 0.  1.
    9000005    2    1    2  501    0  0.40440737925E+01 -0.39580505781E+02 -0.88753794532E+03  0.88844830116E+03  0.58145059445E+01 0.  0.
         13    1    3    3    0    0  0.38748704731E+01 -0.11833119318E+02 -0.26587706687E+03  0.26616846549E+03  0.00000000000E+00 0.  1.
          3    1    3    3  501    0  0.16920331938E+00 -0.27747386463E+02 -0.62166087845E+03  0.62227983567E+03  0.00000000000E+00 0.  1.
         -3    1    1    2    0  502 -0.40440737925E+01  0.39580505781E+02 -0.10847367635E+03  0.11554007717E+03  0.00000000000E+00 0. -1.
<mgrwt>
<rscale>  1 0.30000000E+03</rscale>
<asrwt>0</asrwt>
<pdfrwt beam="1">  1       21 0.14503225E-01 0.30000000E+03</pdfrwt>
<pdfrwt beam="2">0</pdfrwt>
<totfact> 0.43823802E+03</totfact>
</mgrwt>
</event>
<event>
 6    1  0.1274196E-001  0.3000000E+03  0.7818608E-02  0.1093470E+00
         21   -1    0    0  501  502  0.00000000000E+00  0.00000000000E+00  0.33961452068E+01  0.33961452068E+01  0.00000000000E+00 0. -1.
         13   -1    0    0    0    0 -0.00000000000E+00 -0.00000000000E+00 -0.10000000000E+04  0.10000000000E+04  0.00000000000E+00 0.  1.
    9000005    2    1    2  501    0 -0.29597291731E+02  0.68374146815E+01 -0.92636972691E+03  0.92687436637E+03  0.35313135106E+01 0.  0.
         13    1    3    3    0    0 -0.30292371468E+01 -0.36537061792E+00 -0.88574183612E+02  0.88626721568E+02  0.00000000000E+00 0.  1.
          3    1    3    3  501    0 -0.26568054585E+02  0.72027852994E+01 -0.83779554330E+03  0.83824764480E+03  0.00000000000E+00 0.  1.
         -3    1    1    2    0  502  0.29597291731E+02 -0.68374146815E+01 -0.70234127885E+02  0.76521778842E+02  0.00000000000E+00 0. -1.
<mgrwt>
<rscale>  1 0.30000000E+03</rscale>
<asrwt>0</asrwt>
<pdfrwt beam="1">  1       21 0.12349645E-01 0.30000000E+03</pdfrwt>
<pdfrwt beam="2">0</pdfrwt>
<totfact> 0.58818720E+03</totfact>
</mgrwt>
</event>
<event>
 6    1  0.1274196E-001  0.3000000E+03  0.7818608E-02  0.1093470E+00
         21   -1    0    0  501  502  0.00000000000E+00  0.00000000000E+00  0.54616362691E+01  0.54616362691E+01  0.00000000000E+00 0. -1.
         13   -1    0    0    0    0 -0.00000000000E+00 -0.00000000000E+00 -0.10000000000E+04  0.10000000000E+04  0.00000000000E+00 0.  1.
    9000005    2    1    2  501    0  0.63736721111E+02 -0.39059031871E+01 -0.75010115422E+03  0.75282122958E+03  0.32305493778E+01 0.  0.
         13    1    3    3    0    0  0.58599752811E+02 -0.42590432628E+01 -0.68257813560E+03  0.68510216879E+03  0.00000000000E+00 0.  1.
          1    1    3    3  501    0  0.51369682999E+01  0.35314007577E+00 -0.67523018621E+02  0.67719060794E+02  0.00000000000E+00 0.  1.
         -3    1    1    2    0  502 -0.63736721111E+02  0.39059031871E+01 -0.24443720951E+03  0.25264040669E+03  0.00000000000E+00 0. -1.
<mgrwt>
<rscale>  1 0.30000000E+03</rscale>
<asrwt>0</asrwt>
<pdfrwt beam="1">  1       21 0.19860537E-01 0.30000000E+03</pdfrwt>
<pdfrwt beam="2">0</pdfrwt>
<totfact> 0.24314698E+03</totfact>
</mgrwt>
</event>
<event>
 6    1  0.1274196E-001  0.3000000E+03  0.7818608E-02  0.1093470E+00
         21   -1    0    0  501  502  0.00000000000E+00  0.00000000000E+00  0.17965259183E+01  0.17965259183E+01  0.00000000000E+00 0. -1.
         13   -1    0    0    0    0 -0.00000000000E+00 -0.00000000000E+00 -0.10000000000E+04  0.10000000000E+04  0.00000000000E+00 0.  1.
    9000005    2    1    2  501    0  0.34564432455E+02  0.14971179644E+02 -0.27402862441E+03  0.27664271526E+03  0.45462843345E+01 0.  0.
         13    1    3    3    0    0  0.15756891322E+02  0.47459291064E+01 -0.12791632580E+03  0.12897050002E+03  0.00000000000E+00 0.  1.
          1    1    3    3  501    0  0.18807541132E+02  0.10225250538E+02 -0.14611229860E+03  0.14767221524E+03  0.00000000000E+00 0.  1.
         -3    1    1    2    0  502 -0.34564432455E+02 -0.14971179644E+02 -0.72417484968E+03  0.72515381066E+03  0.00000000000E+00 0. -1.
<mgrwt>
<rscale>  1 0.30000000E+03</rscale>
<asrwt>0</asrwt>
<pdfrwt beam="1">  1       21 0.65328353E-02 0.30000000E+03</pdfrwt>
<pdfrwt beam="2">0</pdfrwt>
<totfact> 0.18190627E+04</totfact>
</mgrwt>
</event>
<event>
 6    1  0.1274196E-001  0.3000000E+03  0.7818608E-02  0.1093470E+00
         21   -1    0    0  501  502  0.00000000000E+00  0.00000000000E+00  0.17071391830E+01  0.17071391830E+01  0.00000000000E+00 0. -1.
         13   -1    0    0    0    0 -0.00000000000E+00 -0.00000000000E+00 -0.10000000000E+04  0.10000000000E+04  0.00000000000E+00 0.  1.
    9000005    2    1    2  501    0  0.10440054432E+01  0.40325727453E+02 -0.60420290607E+03  0.60555799218E+03  0.34750457242E+01 0.  0.
         13    1    3    3    0    0 -0.74866293130E+00  0.27300472318E+02 -0.41859006742E+03  0.41948006011E+03  0.00000000000E+00 0.  1.
          1    1    3    3  501    0  0.17926683745E+01  0.13025255134E+02 -0.18561283865E+03  0.18607793207E+03  0.00000000000E+00 0.  1.
         -1    1    1    2    0  502 -0.10440054432E+01 -0.40325727453E+02 -0.39408995475E+03  0.39614914701E+03  0.00000000000E+00 0. -1.
<mgrwt>
<rscale>  1 0.30000000E+03</rscale>
<asrwt>0</asrwt>
<pdfrwt beam="1">  1       21 0.62077919E-02 0.30000000E+03</pdfrwt>
<pdfrwt beam="2">0</pdfrwt>
<totfact> 0.19869193E+04</totfact>
</mgrwt>
</event>
<event>
 6    1  0.1274196E-001  0.3000000E+03  0.7818608E-02  0.1093470E+00
         21   -1    0    0  501  502  0.00000000000E+00  0.00000000000E+00  0.20259914912E+01  0.20259914912E+01  0.00000000000E+00 0. -1.
         13   -1    0    0    0    0 -0.00000000000E+00 -0.00000000000E+00 -0.10000000000E+04  0.10000000000E+04  0.00000000000E+00 0.  1.
    9000005    2    1    2  501    0  0.42379314135E+02 -0.12037501273E+02 -0.40176042882E+03  0.40418693262E+03  0.38375296472E+01 0.  0.
         13    1    3    3    0    0  0.27140085893E+02 -0.86864532573E+01 -0.27368815511E+03  0.27516766703E+03  0.00000000000E+00 0.  1.
          1    1    3    3  501    0  0.15239228243E+02 -0.33510480162E+01 -0.12807227371E+03  0.12901926559E+03  0.00000000000E+00 0.  1.
         -1    1    1    2    0  502 -0.42379314135E+02  0.12037501273E+02 -0.59621357969E+03  0.59783905887E+03  0.00000000000E+00 0. -1.
<mgrwt>
<rscale>  1 0.30000000E+03</rscale>
<asrwt>0</asrwt>
<pdfrwt beam="1">  1       21 0.73672573E-02 0.30000000E+03</pdfrwt>
<pdfrwt beam="2">0</pdfrwt>
<totfact> 0.14758492E+04</totfact>
</mgrwt>
</event>
<event>
 6    1  0.1274196E-001  0.3000000E+03  0.7818608E-02  0.1093470E+00
         21   -1    0    0  501  502  0.00000000000E+00  0.00000000000E+00  0.31075278290E+01  0.31075278290E+01  0.00000000000E+00 0. -1.
         13   -1    0    0    0    0 -0.00000000000E+00 -0.00000000000E+00 -0.10000000000E+04  0.10000000000E+04  0.00000000000E+00 0.  1.
    9000005    2    1    2  501    0  0.39499475547E+02  0.72783036961E+01 -0.84608524327E+03  0.84704343022E+03  0.30251494565E+01 0.  0.
         13    1    3    3    0    0  0.28457535854E+02  0.46641971638E+01 -0.63233668020E+03  0.63299388876E+03  0.00000000000E+00 0.  1.
          1    1    3    3  501    0  0.11041939693E+02  0.26141065322E+01 -0.21374856307E+03  0.21404954146E+03  0.00000000000E+00 0.  1.
         -1    1    1    2    0  502 -0.39499475547E+02 -0.72783036961E+01 -0.15080722890E+03  0.15606409761E+03  0.00000000000E+00 0. -1.
<mgrwt>
<rscale>  1 0.30000000E+03</rscale>
<asrwt>0</asrwt>
<pdfrwt beam="1">  1       21 0.11300125E-01 0.30000000E+03</pdfrwt>
<pdfrwt beam="2">0</pdfrwt>
<totfact> 0.69087778E+03</totfact>
</mgrwt>
</event>
<event>
 6    1  0.1274196E-001  0.3000000E+03  0.7818608E-02  0.1093470E+00
         21   -1    0    0  501  502  0.00000000000E+00  0.00000000000E+00  0.10060030061E+02  0.10060030061E+02  0.00000000000E+00 0. -1.
         13   -1    0    0    0    0 -0.00000000000E+00 -0.00000000000E+00 -0.10000000000E+04  0.10000000000E+04  0.00000000000E+00 0.  1.
    9000005    2    1    2  501    0 -0.70927646499E+01  0.94252998879E+02 -0.66364996408E+03  0.67035559525E+03  0.33784831504E+01 0.  0.
         13    1    3    3    0    0 -0.60827295606E+01  0.85824772323E+02 -0.61007660510E+03  0.61611391417E+03  0.00000000000E+00 0.  1.
          3    1    3    3  501    0 -0.10100350893E+01  0.84282265563E+01 -0.53573358984E+02  0.54241681082E+02  0.00000000000E+00 0.  1.
         -3    1    1    2    0  502  0.70927646499E+01 -0.94252998879E+02 -0.32629000586E+03  0.33970443481E+03  0.00000000000E+00 0. -1.
<mgrwt>
<rscale>  1 0.30000000E+03</rscale>
<asrwt>0</asrwt>
<pdfrwt beam="1">  1       21 0.36582005E-01 0.30000000E+03</pdfrwt>
<pdfrwt beam="2">0</pdfrwt>
<totfact> 0.72680593E+02</totfact>
</mgrwt>
</event>
<event>
 6    1  0.1274196E-001  0.3000000E+03  0.7818608E-02  0.1093470E+00
         21   -1    0    0  501  502  0.00000000000E+00  0.00000000000E+00  0.17926865969E+01  0.17926865969E+01  0.00000000000E+00 0. -1.
         13   -1    0    0    0    0 -0.00000000000E+00 -0.00000000000E+00 -0.10000000000E+04  0.10000000000E+04  0.00000000000E+00 0.  1.
    9000005    2    1    2  501    0  0.15889941203E+02 -0.26070254000E+02 -0.84593967172E+03  0.84649431868E+03  0.25602708228E+01 0.  0.
         13    1    3    3    0    0  0.13093413147E+02 -0.19400186878E+02 -0.64817705094E+03  0.64859948665E+03  0.00000000000E+00 0.  1.
          1    1    3    3  501    0  0.27965280560E+01 -0.66700671216E+01 -0.19776262078E+03  0.19789483203E+03  0.00000000000E+00 0.  1.
         -1    1    1    2    0  502 -0.15889941203E+02  0.26070254000E+02 -0.15226764168E+03  0.15529836792E+03  0.00000000000E+00 0. -1.
<mgrwt>
<rscale>  1 0.30000000E+03</rscale>
<asrwt>0</asrwt>
<pdfrwt beam="1">  1       21 0.65188741E-02 0.30000000E+03</pdfrwt>
<pdfrwt beam="2">0</pdfrwt>
<totfact> 0.18258148E+04</totfact>
</mgrwt>
</event>
<event>
 6    1  0.1274196E-001  0.3000000E+03  0.7818608E-02  0.1093470E+00
         21   -1    0    0  501  502  0.00000000000E+00  0.00000000000E+00  0.18407288192E+01  0.18407288192E+01  0.00000000000E+00 0. -1.
         13   -1    0    0    0    0 -0.00000000000E+00 -0.00000000000E+00 -0.10000000000E+04  0.10000000000E+04  0.00000000000E+00 0.  1.
    9000005    2    1    2  501    0  0.56808409245E+00  0.42022842751E+02 -0.59289669380E+03  0.59440484594E+03  0.49385549826E+01 0.  0.
         13    1    3    3    0    0  0.26621946507E+01  0.17941254452E+02 -0.24935201019E+03  0.25001080153E+03  0.00000000000E+00 0.  1.
          1    1    3    3  501    0 -0.20941105582E+01  0.24081588299E+02 -0.34354468361E+03  0.34439404441E+03  0.00000000000E+00 0.  1.
         -1    1    1    2    0  502 -0.56808409245E+00 -0.42022842751E+02 -0.40526257738E+03  0.40743588288E+03  0.00000000000E+00 0. -1.
<mgrwt>
<rscale>  1 0.30000000E+03</rscale>
<asrwt>0</asrwt>
<pdfrwt beam="1">  1       21 0.66935735E-02 0.30000000E+03</pdfrwt>
<pdfrwt beam="2">0</pdfrwt>
<totfact> 0.17440188E+04</totfact>
</mgrwt>
</event>
<event>
 6    1  0.1274196E-001  0.3000000E+03  0.7818608E-02  0.1093470E+00
         21   -1    0    0  501  502  0.00000000000E+00  0.00000000000E+00  0.56090864824E+01  0.56090864824E+01  0.00000000000E+00 0. -1.
         13   -1    0    0    0    0 -0.00000000000E+00 -0.00000000000E+00 -0.10000000000E+04  0.10000000000E+04  0.00000000000E+00 0.  1.
    9000005    2    1    2  501    0  0.56576635345E+02  0.20922823956E+02 -0.79507726196E+03  0.79736737133E+03  0.28621947647E+01 0.  0.
         13    1    3    3    0    0  0.38661417568E+02  0.13726961623E+02 -0.55653588633E+03  0.55804599045E+03  0.00000000000E+00 0.  1.
          1    1    3    3  501    0  0.17915217777E+02  0.71958623329E+01 -0.23854137563E+03  0.23932138089E+03  0.00000000000E+00 0.  1.
         -1    1    1    2    0  502 -0.56576635345E+02 -0.20922823956E+02 -0.19931365156E+03  0.20824171515E+03  0.00000000000E+00 0. -1.
<mgrwt>
<rscale>  1 0.30000000E+03</rscale>
<asrwt>0</asrwt>
<pdfrwt beam="1">  1       21 0.20396721E-01 0.30000000E+03</pdfrwt>
<pdfrwt beam="2">0</pdfrwt>
<totfact> 0.23108468E+03</totfact>
</mgrwt>
</event>
<event>
 6    1  0.1274196E-001  0.3000000E+03  0.7818608E-02  0.1093470E+00
         21   -1    0    0  501  502  0.00000000000E+00  0.00000000000E+00  0.13752653195E+01  0.13752653195E+01  0.00000000000E+00 0. -1.
         13   -1    0    0    0    0 -0.00000000000E+00 -0.00000000000E+00 -0.10000000000E+04  0.10000000000E+04  0.00000000000E+00 0.  1.
    9000005    2    1    2  501    0  0.14896936378E+02 -0.31002047925E+02 -0.68460906527E+03  0.68548147569E+03  0.34979393708E+01 0.  0.
         13    1    3    3    0    0  0.62812805395E+00 -0.37915089312E+00 -0.99180399812E+01  0.99451403872E+01  0.00000000000E+00 0.  1.
          3    1    3    3  501    0  0.14268808324E+02 -0.30622897032E+02 -0.67469102529E+03  0.67553633531E+03  0.00000000000E+00 0.  1.
         -3    1    1    2    0  502 -0.14896936378E+02  0.31002047925E+02 -0.31401566941E+03  0.31589378963E+03  0.00000000000E+00 0. -1.
<mgrwt>
<rscale>  1 0.30000000E+03</rscale>
<asrwt>0</asrwt>
<pdfrwt beam="1">  1       21 0.50009753E-02 0.30000000E+03</pdfrwt>
<pdfrwt beam="2">0</pdfrwt>
<totfact> 0.28795079E+04</totfact>
</mgrwt>
</event>
<event>
 6    1  0.1274196E-001  0.3000000E+03  0.7818608E-02  0.1093470E+00
         21   -1    0    0  501  502  0.00000000000E+00  0.00000000000E+00  0.10151044148E+01  0.10151044148E+01  0.00000000000E+00 0. -1.
         13   -1    0    0    0    0 -0.00000000000E+00 -0.00000000000E+00 -0.10000000000E+04  0.10000000000E+04  0.00000000000E+00 0.  1.
    9000005    2    1    2  501    0 -0.18572128630E+02 -0.24591719983E+02 -0.41954928343E+03  0.42076058674E+03  0.82579337514E+01 0.  0.
         13    1    3    3    0    0 -0.29757605180E+01 -0.60296120116E+00 -0.27084517664E+02  0.27254170506E+02  0.00000000000E+00 0.  1.
          1    1    3    3  501    0 -0.15596368112E+02 -0.23988758782E+02 -0.39246476577E+03  0.39350641623E+03  0.00000000000E+00 0.  1.
         -1    1    1    2    0  502  0.18572128630E+02  0.24591719983E+02 -0.57943561215E+03  0.58025451768E+03  0.00000000000E+00 0. -1.
<mgrwt>
<rscale>  1 0.30000000E+03</rscale>
<asrwt>0</asrwt>
<pdfrwt beam="1">  1       21 0.36912966E-02 0.30000000E+03</pdfrwt>
<pdfrwt beam="2">0</pdfrwt>
<totfact> 0.48125287E+04</totfact>
</mgrwt>
</event>
<event>
 6    1  0.1274196E-001  0.3000000E+03  0.7818608E-02  0.1093470E+00
         21   -1    0    0  501  502  0.00000000000E+00  0.00000000000E+00  0.29915482363E+01  0.29915482363E+01  0.00000000000E+00 0. -1.
         13   -1    0    0    0    0 -0.00000000000E+00 -0.00000000000E+00 -0.10000000000E+04  0.10000000000E+04  0.00000000000E+00 0.  1.
    9000005    2    1    2  501    0 -0.38677046735E+02  0.57625819884E+01 -0.14969294603E+03  0.15477418956E+03  0.42367875640E+01 0.  0.
         13    1    3    3    0    0 -0.22147000311E+02  0.30400954631E+01 -0.77256573407E+02  0.80425803930E+02  0.00000000000E+00 0.  1.
          3    1    3    3  501    0 -0.16530046424E+02  0.27224865254E+01 -0.72436372619E+02  0.74348385630E+02  0.00000000000E+00 0.  1.
         -1    1    1    2    0  502  0.38677046735E+02 -0.57625819884E+01 -0.84731550574E+03  0.84821735868E+03  0.00000000000E+00 0. -1.
<mgrwt>
<rscale>  1 0.30000000E+03</rscale>
<asrwt>0</asrwt>
<pdfrwt beam="1">  1       21 0.10878380E-01 0.30000000E+03</pdfrwt>
<pdfrwt beam="2">0</pdfrwt>
<totfact> 0.73984732E+03</totfact>
</mgrwt>
</event>
<event>
 6    1  0.1274196E-001  0.3000000E+03  0.7818608E-02  0.1093470E+00
         21   -1    0    0  501  502  0.00000000000E+00  0.00000000000E+00  0.13511340737E+02  0.13511340737E+02  0.00000000000E+00 0. -1.
         13   -1    0    0    0    0 -0.00000000000E+00 -0.00000000000E+00 -0.10000000000E+04  0.10000000000E+04  0.00000000000E+00 0.  1.
    9000005    2    1    2  501    0  0.25085207848E+02  0.26214124242E+02 -0.97467184366E+03  0.97535265767E+03  0.33400650280E+01 0.  0.
         13    1    3    3    0    0  0.74796940369E+01  0.61779980508E+01 -0.28610880750E+03  0.28627323175E+03  0.00000000000E+00 0.  1.
          3    1    3    3  501    0  0.17605513811E+02  0.20036126192E+02 -0.68856303615E+03  0.68907942592E+03  0.00000000000E+00 0.  1.
         -1    1    1    2    0  502 -0.25085207848E+02 -0.26214124242E+02 -0.11816815605E+02  0.38158683070E+02  0.00000000000E+00 0. -1.
<mgrwt>
<rscale>  1 0.30000000E+03</rscale>
<asrwt>0</asrwt>
<pdfrwt beam="1">  1       21 0.49132252E-01 0.30000000E+03</pdfrwt>
<pdfrwt beam="2">0</pdfrwt>
<totfact> 0.39023316E+02</totfact>
</mgrwt>
</event>
<event>
 6    1  0.1274196E-001  0.3000000E+03  0.7818608E-02  0.1093470E+00
         21   -1    0    0  501  502  0.00000000000E+00  0.00000000000E+00  0.21867457231E+01  0.21867457231E+01  0.00000000000E+00 0. -1.
         13   -1    0    0    0    0 -0.00000000000E+00 -0.00000000000E+00 -0.10000000000E+04  0.10000000000E+04  0.00000000000E+00 0.  1.
    9000005    2    1    2  501    0 -0.26283425359E+02 -0.35372900767E+02 -0.66591774236E+03  0.66737830589E+03  0.23028279448E+01 0.  0.
         13    1    3    3    0    0 -0.38566345635E+01 -0.53924835049E+01 -0.11312921724E+03  0.11332330873E+03  0.00000000000E+00 0.  1.
          3    1    3    3  501    0 -0.22426790796E+02 -0.29980417262E+02 -0.55278852513E+03  0.55405499716E+03  0.00000000000E+00 0.  1.
         -1    1    1    2    0  502  0.26283425359E+02  0.35372900767E+02 -0.33189551191E+03  0.33480843984E+03  0.00000000000E+00 0. -1.
<mgrwt>
<rscale>  1 0.30000000E+03</rscale>
<asrwt>0</asrwt>
<pdfrwt beam="1">  1       21 0.79518194E-02 0.30000000E+03</pdfrwt>
<pdfrwt beam="2">0</pdfrwt>
<totfact> 0.12910103E+04</totfact>
</mgrwt>
</event>
<event>
 6    1  0.1274196E-001  0.3000000E+03  0.7818608E-02  0.1093470E+00
         21   -1    0    0  501  502  0.00000000000E+00  0.00000000000E+00  0.52568283174E+01  0.52568283174E+01  0.00000000000E+00 0. -1.
         13   -1    0    0    0    0 -0.00000000000E+00 -0.00000000000E+00 -0.10000000000E+04  0.10000000000E+04  0.00000000000E+00 0.  1.
    9000005    2    1    2  501    0 -0.31135223441E+02  0.73830945349E+00 -0.95125009528E+03  0.95176295078E+03  0.24542732045E+01 0.  0.
         13    1    3    3    0    0 -0.16992245724E+02  0.12480893649E+01 -0.54638124399E+03  0.54664683107E+03  0.00000000000E+00 0.  1.
          3    1    3    3  501    0 -0.14142977717E+02 -0.50977991137E+00 -0.40486885130E+03  0.40511611970E+03  0.00000000000E+00 0.  1.
         -1    1    1    2    0  502  0.31135223441E+02 -0.73830945349E+00 -0.43493076399E+02  0.53493877540E+02  0.00000000000E+00 0. -1.
<mgrwt>
<rscale>  1 0.30000000E+03</rscale>
<asrwt>0</asrwt>
<pdfrwt beam="1">  1       21 0.19115780E-01 0.30000000E+03</pdfrwt>
<pdfrwt beam="2">0</pdfrwt>
<totfact> 0.26147938E+03</totfact>
</mgrwt>
</event>
<event>
 6    1  0.1274196E-001  0.3000000E+03  0.7818608E-02  0.1093470E+00
         21   -1    0    0  501  502  0.00000000000E+00  0.00000000000E+00  0.23646460025E+01  0.23646460025E+01  0.00000000000E+00 0. -1.
         13   -1    0    0    0    0 -0.00000000000E+00 -0.00000000000E+00 -0.10000000000E+04  0.10000000000E+04  0.00000000000E+00 0.  1.
    9000005    2    1    2  501    0 -0.63623583851E+01 -0.31186812544E+02 -0.87674261041E+03  0.87735203731E+03  0.74763344201E+01 0.  0.
         13    1    3    3    0    0 -0.12349382509E+01 -0.22836647161E+02 -0.62972348497E+03  0.63013863955E+03  0.00000000000E+00 0.  1.
          1    1    3    3  501    0 -0.51274201343E+01 -0.83501653833E+01 -0.24701912544E+03  0.24721339776E+03  0.00000000000E+00 0.  1.
         -3    1    1    2    0  502  0.63623583851E+01  0.31186812544E+02 -0.12089274358E+03  0.12501260869E+03  0.00000000000E+00 0. -1.
<mgrwt>
<rscale>  1 0.30000000E+03</rscale>
<asrwt>0</asrwt>
<pdfrwt beam="1">  1       21 0.85987309E-02 0.30000000E+03</pdfrwt>
<pdfrwt beam="2">0</pdfrwt>
<totfact> 0.11249721E+04</totfact>
</mgrwt>
</event>
<event>
 6    1  0.1274196E-001  0.3000000E+03  0.7818608E-02  0.1093470E+00
         21   -1    0    0  501  502  0.00000000000E+00  0.00000000000E+00  0.65711613157E+01  0.65711613157E+01  0.00000000000E+00 0. -1.
         13   -1    0    0    0    0 -0.00000000000E+00 -0.00000000000E+00 -0.10000000000E+04  0.10000000000E+04  0.00000000000E+00 0.  1.
    9000005    2    1    2  501    0 -0.28841173324E+02  0.26830475707E+02 -0.93643177965E+03  0.93728658551E+03  0.70694937312E+01 0.  0.
         13    1    3    3    0    0 -0.11472001765E+02  0.15478452121E+02 -0.45802444918E+03  0.45842947696E+03  0.00000000000E+00 0.  1.
          3    1    3    3  501    0 -0.17369171559E+02  0.11352023587E+02 -0.47840733047E+03  0.47885710855E+03  0.00000000000E+00 0.  1.
         -1    1    1    2    0  502  0.28841173324E+02 -0.26830475707E+02 -0.56997059034E+02  0.69284575801E+02  0.00000000000E+00 0. -1.
<mgrwt>
<rscale>  1 0.30000000E+03</rscale>
<asrwt>0</asrwt>
<pdfrwt beam="1">  1       21 0.23895182E-01 0.30000000E+03</pdfrwt>
<pdfrwt beam="2">0</pdfrwt>
<totfact> 0.17033464E+03</totfact>
</mgrwt>
</event>
<event>
 6    1  0.1274196E-001  0.3000000E+03  0.7818608E-02  0.1093470E+00
         21   -1    0    0  501  502  0.00000000000E+00  0.00000000000E+00  0.14521376832E+01  0.14521376832E+01  0.00000000000E+00 0. -1.
         13   -1    0    0    0    0 -0.00000000000E+00 -0.00000000000E+00 -0.10000000000E+04  0.10000000000E+04  0.00000000000E+00 0.  1.
    9000005    2    1    2  501    0  0.27151416421E+02 -0.12812547237E+02 -0.80709366566E+03  0.80765825182E+03  0.32102654887E+01 0.  0.
         13    1    3    3    0    0  0.61673603996E+01 -0.30726454935E+01 -0.15168108691E+03  0.15183751056E+03  0.00000000000E+00 0.  1.
          3    1    3    3  501    0  0.20984056021E+02 -0.97399017435E+01 -0.65541257875E+03  0.65582074127E+03  0.00000000000E+00 0.  1.
         -3    1    1    2    0  502 -0.27151416421E+02  0.12812547237E+02 -0.19145419665E+03  0.19379388586E+03  0.00000000000E+00 0. -1.
<mgrwt>
<rscale>  1 0.30000000E+03</rscale>
<asrwt>0</asrwt>
<pdfrwt beam="1">  1       21 0.52805118E-02 0.30000000E+03</pdfrwt>
<pdfrwt beam="2">0</pdfrwt>
<totfact> 0.26241660E+04</totfact>
</mgrwt>
</event>
<event>
 6    1  0.1274196E-001  0.3000000E+03  0.7818608E-02  0.1093470E+00
         21   -1    0    0  501  502  0.00000000000E+00  0.00000000000E+00  0.11038249524E+01  0.11038249524E+01  0.00000000000E+00 0. -1.
         13   -1    0    0    0    0 -0.00000000000E+00 -0.00000000000E+00 -0.10000000000E+04  0.10000000000E+04  0.00000000000E+00 0.  1.
    9000005    2    1    2  501    0  0.68080850118E+01 -0.32278513576E+02 -0.55049465569E+03  0.55149046325E+03  0.30187167536E+01 0.  0.
         13    1    3    3    0    0 -0.30364813604E+00 -0.17585101585E+01 -0.31738324453E+02  0.31788453867E+02  0.00000000000E+00 0.  1.
          1    1    3    3  501    0  0.71117331478E+01 -0.30520003417E+02 -0.51875633124E+03  0.51970200938E+03  0.00000000000E+00 0.  1.
         -3    1    1    2    0  502 -0.68080850118E+01  0.32278513576E+02 -0.44840151936E+03  0.44961336170E+03  0.00000000000E+00 0. -1.
<mgrwt>
<rscale>  1 0.30000000E+03</rscale>
<asrwt>0</asrwt>
<pdfrwt beam="1">  1       21 0.40139174E-02 0.30000000E+03</pdfrwt>
<pdfrwt beam="2">0</pdfrwt>
<totfact> 0.41802078E+04</totfact>
</mgrwt>
</event>
<event>
 6    1  0.1274196E-001  0.3000000E+03  0.7818608E-02  0.1093470E+00
         21   -1    0    0  501  502  0.00000000000E+00  0.00000000000E+00  0.15359992637E+01  0.15359992637E+01  0.00000000000E+00 0. -1.
         13   -1    0    0    0    0 -0.00000000000E+00 -0.00000000000E+00 -0.10000000000E+04  0.10000000000E+04  0.00000000000E+00 0.  1.
    9000005    2    1    2  501    0  0.32095836603E+02  0.49149075645E+01 -0.77888042751E+03  0.77956472933E+03  0.34853721227E+01 0.  0.
         13    1    3    3    0    0  0.16532471715E+02  0.95529245357E+00 -0.41402418511E+03  0.41435523535E+03  0.00000000000E+00 0.  1.
          1    1    3    3  501    0  0.15563364889E+02  0.39596151110E+01 -0.36485624240E+03  0.36520949399E+03  0.00000000000E+00 0.  1.
         -3    1    1    2    0  502 -0.32095836603E+02 -0.49149075645E+01 -0.21958357322E+03  0.22197126993E+03  0.00000000000E+00 0. -1.
<mgrwt>
<rscale>  1 0.30000000E+03</rscale>
<asrwt>0</asrwt>
<pdfrwt beam="1">  1       21 0.55854636E-02 0.30000000E+03</pdfrwt>
<pdfrwt beam="2">0</pdfrwt>
<totfact> 0.23835186E+04</totfact>
</mgrwt>
</event>
<event>
 6    1  0.1274196E-001  0.3000000E+03  0.7818608E-02  0.1093470E+00
         21   -1    0    0  501  502  0.00000000000E+00  0.00000000000E+00  0.13366424713E+01  0.13366424713E+01  0.00000000000E+00 0. -1.
         13   -1    0    0    0    0 -0.00000000000E+00 -0.00000000000E+00 -0.10000000000E+04  0.10000000000E+04  0.00000000000E+00 0.  1.
    9000005    2    1    2  501    0  0.17945590055E+02 -0.29175841870E+02 -0.67266881212E+03  0.67354750661E+03  0.31046598945E+01 0.  0.
         13    1    3    3    0    0  0.13352604713E+02 -0.21025177002E+02 -0.46163920279E+03  0.46231061385E+03  0.00000000000E+00 0.  1.
          3    1    3    3  501    0  0.45929853417E+01 -0.81506648681E+01 -0.21102960933E+03  0.21123689276E+03  0.00000000000E+00 0.  1.
         -3    1    1    2    0  502 -0.17945590055E+02  0.29175841870E+02 -0.32599454541E+03  0.32778913586E+03  0.00000000000E+00 0. -1.
<mgrwt>
<rscale>  1 0.30000000E+03</rscale>
<asrwt>0</asrwt>
<pdfrwt beam="1">  1       21 0.48605283E-02 0.30000000E+03</pdfrwt>
<pdfrwt beam="2">0</pdfrwt>
<totfact> 0.30226916E+04</totfact>
</mgrwt>
</event>
<event>
 6    1  0.1274196E-001  0.3000000E+03  0.7818608E-02  0.1093470E+00
         21   -1    0    0  501  502  0.00000000000E+00  0.00000000000E+00  0.28342892806E+01  0.28342892806E+01  0.00000000000E+00 0. -1.
         13   -1    0    0    0    0 -0.00000000000E+00 -0.00000000000E+00 -0.10000000000E+04  0.10000000000E+04  0.00000000000E+00 0.  1.
    9000005    2    1    2  501    0 -0.41063615170E+02 -0.28128788400E+02 -0.32480598757E+03  0.32863472940E+03  0.49403015876E+01 0.  0.
         13    1    3    3    0    0 -0.77297787637E+01 -0.34611717774E+01 -0.48418477142E+02  0.49153617553E+02  0.00000000000E+00 0.  1.
          1    1    3    3  501    0 -0.33333836406E+02 -0.24667616622E+02 -0.27638751043E+03  0.27948111185E+03  0.00000000000E+00 0.  1.
         -1    1    1    2    0  502  0.41063615170E+02  0.28128788400E+02 -0.67235972315E+03  0.67419955988E+03  0.00000000000E+00 0. -1.
<mgrwt>
<rscale>  1 0.30000000E+03</rscale>
<asrwt>0</asrwt>
<pdfrwt beam="1">  1       21 0.10306528E-01 0.30000000E+03</pdfrwt>
<pdfrwt beam="2">0</pdfrwt>
<totfact> 0.81509509E+03</totfact>
</mgrwt>
</event>
<event>
 6    1  0.1274196E-001  0.3000000E+03  0.7818608E-02  0.1093470E+00
         21   -1    0    0  501  502  0.00000000000E+00  0.00000000000E+00  0.21622361568E+01  0.21622361568E+01  0.00000000000E+00 0. -1.
         13   -1    0    0    0    0 -0.00000000000E+00 -0.00000000000E+00 -0.10000000000E+04  0.10000000000E+04  0.00000000000E+00 0.  1.
    9000005    2    1    2  501    0  0.22691763515E+02 -0.25440279484E+02 -0.17564636598E+03  0.17926441827E+03  0.11043632846E+02 0.  0.
         13    1    3    3    0    0 -0.11040607154E+00 -0.17856604578E+01 -0.27975838838E+01  0.33207300942E+01  0.00000000000E+00 0.  1.
          1    1    3    3  501    0  0.22802169587E+02 -0.23654619027E+02 -0.17284878209E+03  0.17594368818E+03  0.00000000000E+00 0.  1.
         -1    1    1    2    0  502 -0.22691763515E+02  0.25440279484E+02 -0.82219139787E+03  0.82289781788E+03  0.00000000000E+00 0. -1.
<mgrwt>
<rscale>  1 0.30000000E+03</rscale>
<asrwt>0</asrwt>
<pdfrwt beam="1">  1       21 0.78626935E-02 0.30000000E+03</pdfrwt>
<pdfrwt beam="2">0</pdfrwt>
<totfact> 0.13168075E+04</totfact>
</mgrwt>
</event>
<event>
 6    1  0.1274196E-001  0.3000000E+03  0.7818608E-02  0.1093470E+00
         21   -1    0    0  501  502  0.00000000000E+00  0.00000000000E+00  0.25698600291E+01  0.25698600291E+01  0.00000000000E+00 0. -1.
         13   -1    0    0    0    0 -0.00000000000E+00 -0.00000000000E+00 -0.10000000000E+04  0.10000000000E+04  0.00000000000E+00 0.  1.
    9000005    2    1    2  501    0 -0.36574222433E+02 -0.28821780601E+02 -0.69578032514E+03  0.69734702410E+03  0.37739089881E+01 0.  0.
         13    1    3    3    0    0 -0.29803313847E+02 -0.23718569336E+02 -0.54606473634E+03  0.54739154572E+03  0.00000000000E+00 0.  1.
          3    1    3    3  501    0 -0.67709085859E+01 -0.51032112656E+01 -0.14971558879E+03  0.14995547838E+03  0.00000000000E+00 0.  1.
         -1    1    1    2    0  502  0.36574222433E+02  0.28821780601E+02 -0.30164981483E+03  0.30522283593E+03  0.00000000000E+00 0. -1.
<mgrwt>
<rscale>  1 0.30000000E+03</rscale>
<asrwt>0</asrwt>
<pdfrwt beam="1">  1       21 0.93449653E-02 0.30000000E+03</pdfrwt>
<pdfrwt beam="2">0</pdfrwt>
<totfact> 0.97078911E+03</totfact>
</mgrwt>
</event>
<event>
 6    1  0.1274196E-001  0.3000000E+03  0.7818608E-02  0.1093470E+00
         21   -1    0    0  501  502  0.00000000000E+00  0.00000000000E+00  0.11881953323E+01  0.11881953323E+01  0.00000000000E+00 0. -1.
         13   -1    0    0    0    0 -0.00000000000E+00 -0.00000000000E+00 -0.10000000000E+04  0.10000000000E+04  0.00000000000E+00 0.  1.
    9000005    2    1    2  501    0  0.25887960102E+02  0.21640500469E+02 -0.59670242222E+03  0.59766563935E+03  0.34551455260E+01 0.  0.
         13    1    3    3    0    0  0.89343110097E+01  0.59033075468E+01 -0.20813370374E+03  0.20840899593E+03  0.00000000000E+00 0.  1.
          1    1    3    3  501    0  0.16953649092E+02  0.15737192922E+02 -0.38856871848E+03  0.38925664341E+03  0.00000000000E+00 0.  1.
         -3    1    1    2    0  502 -0.25887960102E+02 -0.21640500469E+02 -0.40210938244E+03  0.40352255599E+03  0.00000000000E+00 0. -1.
<mgrwt>
<rscale>  1 0.30000000E+03</rscale>
<asrwt>0</asrwt>
<pdfrwt beam="1">  1       21 0.43207194E-02 0.30000000E+03</pdfrwt>
<pdfrwt beam="2">0</pdfrwt>
<totfact> 0.36915369E+04</totfact>
</mgrwt>
</event>
<event>
 6    1  0.1274196E-001  0.3000000E+03  0.7818608E-02  0.1093470E+00
         21   -1    0    0  501  502  0.00000000000E+00  0.00000000000E+00  0.11960305045E+01  0.11960305045E+01  0.00000000000E+00 0. -1.
         13   -1    0    0    0    0 -0.00000000000E+00 -0.00000000000E+00 -0.10000000000E+04  0.10000000000E+04  0.00000000000E+00 0.  1.
    9000005    2    1    2  501    0  0.10638179883E+02 -0.28429069381E+02 -0.73672441008E+03  0.73736449652E+03  0.47075975536E+01 0.  0.
         13    1    3    3    0    0  0.32217884266E+00 -0.62213918738E+01 -0.15141584343E+03  0.15154394464E+03  0.00000000000E+00 0.  1.
          1    1    3    3  501    0  0.10316001040E+02 -0.22207677507E+02 -0.58530856665E+03  0.58582055188E+03  0.00000000000E+00 0.  1.
         -3    1    1    2    0  502 -0.10638179883E+02  0.28429069381E+02 -0.26207955942E+03  0.26383153398E+03  0.00000000000E+00 0. -1.
<mgrwt>
<rscale>  1 0.30000000E+03</rscale>
<asrwt>0</asrwt>
<pdfrwt beam="1">  1       21 0.43492110E-02 0.30000000E+03</pdfrwt>
<pdfrwt beam="2">0</pdfrwt>
<totfact> 0.36507080E+04</totfact>
</mgrwt>
</event>
<event>
 6    1  0.1274196E-001  0.3000000E+03  0.7818608E-02  0.1093470E+00
         21   -1    0    0  501  502  0.00000000000E+00  0.00000000000E+00  0.14687288811E+01  0.14687288811E+01  0.00000000000E+00 0. -1.
         13   -1    0    0    0    0 -0.00000000000E+00 -0.00000000000E+00 -0.10000000000E+04  0.10000000000E+04  0.00000000000E+00 0.  1.
    9000005    2    1    2  501    0  0.25207312940E+02 -0.23326498124E+02 -0.72035914050E+03  0.72118446534E+03  0.31949324396E+01 0.  0.
         13    1    3    3    0    0  0.18065520458E+02 -0.17491749070E+02 -0.55299602804E+03  0.55356745871E+03  0.00000000000E+00 0.  1.
          3    1    3    3  501    0  0.71417924826E+01 -0.58347490535E+01 -0.16736311246E+03  0.16761700662E+03  0.00000000000E+00 0.  1.
         -3    1    1    2    0  502 -0.25207312940E+02  0.23326498124E+02 -0.27817213061E+03  0.28028426355E+03  0.00000000000E+00 0. -1.
<mgrwt>
<rscale>  1 0.30000000E+03</rscale>
<asrwt>0</asrwt>
<pdfrwt beam="1">  1       21 0.53408436E-02 0.30000000E+03</pdfrwt>
<pdfrwt beam="2">0</pdfrwt>
<totfact> 0.25736635E+04</totfact>
</mgrwt>
</event>
<event>
 6    1  0.1274196E-001  0.3000000E+03  0.7818608E-02  0.1093470E+00
         21   -1    0    0  501  502  0.00000000000E+00  0.00000000000E+00  0.10913243230E+01  0.10913243230E+01  0.00000000000E+00 0. -1.
         13   -1    0    0    0    0 -0.00000000000E+00 -0.00000000000E+00 -0.10000000000E+04  0.10000000000E+04  0.00000000000E+00 0.  1.
    9000005    2    1    2  501    0  0.27771185663E+02 -0.17599900849E+02 -0.46956448042E+03  0.47072704167E+03  0.34858604628E+01 0.  0.
         13    1    3    3    0    0  0.44976403755E+01 -0.44659508462E+01 -0.91286575425E+02  0.91506351357E+02  0.00000000000E+00 0.  1.
          1    1    3    3  501    0  0.23273545287E+02 -0.13133950003E+02 -0.37827790499E+03  0.37922069031E+03  0.00000000000E+00 0.  1.
         -1    1    1    2    0  502 -0.27771185663E+02  0.17599900849E+02 -0.52934419526E+03  0.53036428266E+03  0.00000000000E+00 0. -1.
<mgrwt>
<rscale>  1 0.30000000E+03</rscale>
<asrwt>0</asrwt>
<pdfrwt beam="1">  1       21 0.39684605E-02 0.30000000E+03</pdfrwt>
<pdfrwt beam="2">0</pdfrwt>
<totfact> 0.42611498E+04</totfact>
</mgrwt>
</event>
<event>
 6    1  0.1274196E-001  0.3000000E+03  0.7818608E-02  0.1093470E+00
         21   -1    0    0  501  502  0.00000000000E+00  0.00000000000E+00  0.40973620277E+01  0.40973620277E+01  0.00000000000E+00 0. -1.
         13   -1    0    0    0    0 -0.00000000000E+00 -0.00000000000E+00 -0.10000000000E+04  0.10000000000E+04  0.00000000000E+00 0.  1.
    9000005    2    1    2  501    0  0.21135907557E+02  0.54144479700E+02 -0.70772201244E+03  0.71011364785E+03  0.35489010821E+01 0.  0.
         13    1    3    3    0    0  0.18146408303E+02  0.46020617817E+02 -0.58612131290E+03  0.58820522170E+03  0.00000000000E+00 0.  1.
          1    1    3    3  501    0  0.29894992548E+01  0.81238618829E+01 -0.12160069954E+03  0.12190842615E+03  0.00000000000E+00 0.  1.
         -1    1    1    2    0  502 -0.21135907557E+02 -0.54144479700E+02 -0.28818062554E+03  0.29398371418E+03  0.00000000000E+00 0. -1.
<mgrwt>
<rscale>  1 0.30000000E+03</rscale>
<asrwt>0</asrwt>
<pdfrwt beam="1">  1       21 0.14899530E-01 0.30000000E+03</pdfrwt>
<pdfrwt beam="2">0</pdfrwt>
<totfact> 0.41695595E+03</totfact>
</mgrwt>
</event>
<event>
 6    1  0.1274196E-001  0.3000000E+03  0.7818608E-02  0.1093470E+00
         21   -1    0    0  501  502  0.00000000000E+00  0.00000000000E+00  0.16293509177E+01  0.16293509177E+01  0.00000000000E+00 0. -1.
         13   -1    0    0    0    0 -0.00000000000E+00 -0.00000000000E+00 -0.10000000000E+04  0.10000000000E+04  0.00000000000E+00 0.  1.
    9000005    2    1    2  501    0 -0.37035213488E+02 -0.11810503220E+02 -0.37052450770E+03  0.37258096464E+03  0.41315111752E+01 0.  0.
         13    1    3    3    0    0 -0.57931296763E+01 -0.31352872852E+01 -0.54104863065E+02  0.54504372165E+02  0.00000000000E+00 0.  1.
          3    1    3    3  501    0 -0.31242083812E+02 -0.86752159348E+01 -0.31641964463E+03  0.31807659248E+03  0.00000000000E+00 0.  1.
         -1    1    1    2    0  502  0.37035213488E+02  0.11810503220E+02 -0.62784614138E+03  0.62904838628E+03  0.00000000000E+00 0. -1.
<mgrwt>
<rscale>  1 0.30000000E+03</rscale>
<asrwt>0</asrwt>
<pdfrwt beam="1">  1       21 0.59249249E-02 0.30000000E+03</pdfrwt>
<pdfrwt beam="2">0</pdfrwt>
<totfact> 0.21534143E+04</totfact>
</mgrwt>
</event>
<event>
 6    1  0.1274196E-001  0.3000000E+03  0.7818608E-02  0.1093470E+00
         21   -1    0    0  501  502  0.00000000000E+00  0.00000000000E+00  0.23135898715E+01  0.23135898715E+01  0.00000000000E+00 0. -1.
         13   -1    0    0    0    0 -0.00000000000E+00 -0.00000000000E+00 -0.10000000000E+04  0.10000000000E+04  0.00000000000E+00 0.  1.
    9000005    2    1    2  501    0 -0.19195887426E+02  0.30386617728E+02 -0.83066813973E+03  0.83147175870E+03  0.66255960206E+01 0.  0.
         13    1    3    3    0    0 -0.42952522207E+01  0.28703413533E+01 -0.13953187769E+03  0.13962747919E+03  0.00000000000E+00 0.  1.
          3    1    3    3  501    0 -0.14900635206E+02  0.27516276375E+02 -0.69113626203E+03  0.69184427951E+03  0.00000000000E+00 0.  1.
         -3    1    1    2    0  502  0.19195887426E+02 -0.30386617728E+02 -0.16701827040E+03  0.17084183117E+03  0.00000000000E+00 0. -1.
<mgrwt>
<rscale>  1 0.30000000E+03</rscale>
<asrwt>0</asrwt>
<pdfrwt beam="1">  1       21 0.84130718E-02 0.30000000E+03</pdfrwt>
<pdfrwt beam="2">0</pdfrwt>
<totfact> 0.11691197E+04</totfact>
</mgrwt>
</event>
<event>
 6    1  0.1274196E-001  0.3000000E+03  0.7818608E-02  0.1093470E+00
         21   -1    0    0  501  502  0.00000000000E+00  0.00000000000E+00  0.12982954128E+01  0.12982954128E+01  0.00000000000E+00 0. -1.
         13   -1    0    0    0    0 -0.00000000000E+00 -0.00000000000E+00 -0.10000000000E+04  0.10000000000E+04  0.00000000000E+00 0.  1.
    9000005    2    1    2  501    0 -0.32051100098E+02 -0.89067275059E+01 -0.68785308632E+03  0.68867477376E+03  0.49470031670E+01 0.  0.
         13    1    3    3    0    0 -0.26909671720E+02 -0.55141640604E+01 -0.56525241701E+03  0.56591945662E+03  0.00000000000E+00 0.  1.
          3    1    3    3  501    0 -0.51414283777E+01 -0.33925634456E+01 -0.12260066931E+03  0.12275531714E+03  0.00000000000E+00 0.  1.
         -1    1    1    2    0  502  0.32051100098E+02  0.89067275059E+01 -0.31084861827E+03  0.31262352165E+03  0.00000000000E+00 0. -1.
<mgrwt>
<rscale>  1 0.30000000E+03</rscale>
<asrwt>0</asrwt>
<pdfrwt beam="1">  1       21 0.47210842E-02 0.30000000E+03</pdfrwt>
<pdfrwt beam="2">0</pdfrwt>
<totfact> 0.31761680E+04</totfact>
</mgrwt>
</event>
<event>
 6    1  0.1274196E-001  0.3000000E+03  0.7818608E-02  0.1093470E+00
         21   -1    0    0  501  502  0.00000000000E+00  0.00000000000E+00  0.16417058941E+01  0.16417058941E+01  0.00000000000E+00 0. -1.
         13   -1    0    0    0    0 -0.00000000000E+00 -0.00000000000E+00 -0.10000000000E+04  0.10000000000E+04  0.00000000000E+00 0.  1.
    9000005    2    1    2  501    0 -0.30932685069E+02 -0.29705165175E+01 -0.81999663438E+03  0.82059326864E+03  0.36300357892E+01 0.  0.
         13    1    3    3    0    0 -0.74253989922E+01  0.83702626564E+00 -0.19454892971E+03  0.19469238098E+03  0.00000000000E+00 0.  1.
          3    1    3    3  501    0 -0.23507286076E+02 -0.38075427832E+01 -0.62544770468E+03  0.62590088766E+03  0.00000000000E+00 0.  1.
         -3    1    1    2    0  502  0.30932685069E+02  0.29705165175E+01 -0.17836165972E+03  0.18104843725E+03  0.00000000000E+00 0. -1.
<mgrwt>
<rscale>  1 0.30000000E+03</rscale>
<asrwt>0</asrwt>
<pdfrwt beam="1">  1       21 0.59698522E-02 0.30000000E+03</pdfrwt>
<pdfrwt beam="2">0</pdfrwt>
<totfact> 0.21255505E+04</totfact>
</mgrwt>
</event>
<event>
 6    1  0.1274196E-001  0.3000000E+03  0.7818608E-02  0.1093470E+00
         21   -1    0    0  501  502  0.00000000000E+00  0.00000000000E+00  0.44516862630E+01  0.44516862630E+01  0.00000000000E+00 0. -1.
         13   -1    0    0    0    0 -0.00000000000E+00 -0.00000000000E+00 -0.10000000000E+04  0.10000000000E+04  0.00000000000E+00 0.  1.
    9000005    2    1    2  501    0  0.26350053587E+02  0.49553150625E+02 -0.76905765378E+03  0.77111103590E+03  0.35657816632E+01 0.  0.
         13    1    3    3    0    0  0.11013904916E+02  0.18237107310E+02 -0.30945419876E+03  0.31018671686E+03  0.00000000000E+00 0.  1.
          1    1    3    3  501    0  0.15336148671E+02  0.31316043315E+02 -0.45960345502E+03  0.46092431905E+03  0.00000000000E+00 0.  1.
         -3    1    1    2    0  502 -0.26350053587E+02 -0.49553150625E+02 -0.22649065996E+03  0.23334065036E+03  0.00000000000E+00 0. -1.
<mgrwt>
<rscale>  1 0.30000000E+03</rscale>
<asrwt>0</asrwt>
<pdfrwt beam="1">  1       21 0.16187984E-01 0.30000000E+03</pdfrwt>
<pdfrwt beam="2">0</pdfrwt>
<totfact> 0.35739669E+03</totfact>
</mgrwt>
</event>
<event>
 6    1  0.1274196E-001  0.3000000E+03  0.7818608E-02  0.1093470E+00
         21   -1    0    0  501  502  0.00000000000E+00  0.00000000000E+00  0.17992998336E+01  0.17992998336E+01  0.00000000000E+00 0. -1.
         13   -1    0    0    0    0 -0.00000000000E+00 -0.00000000000E+00 -0.10000000000E+04  0.10000000000E+04  0.00000000000E+00 0.  1.
    9000005    2    1    2  501    0 -0.70600739982E+01  0.41668140968E+02 -0.53140197347E+03  0.53309136321E+03  0.35022129446E+01 0.  0.
         13    1    3    3    0    0 -0.53063777637E+00  0.66286564233E+01 -0.98812580920E+02  0.99036088425E+02  0.00000000000E+00 0.  1.
          1    1    3    3  501    0 -0.65294362218E+01  0.35039484545E+02 -0.43258939255E+03  0.43405527478E+03  0.00000000000E+00 0.  1.
         -3    1    1    2    0  502  0.70600739982E+01 -0.41668140968E+02 -0.46679872669E+03  0.46870793663E+03  0.00000000000E+00 0. -1.
<mgrwt>
<rscale>  1 0.30000000E+03</rscale>
<asrwt>0</asrwt>
<pdfrwt beam="1">  1       21 0.65429223E-02 0.30000000E+03</pdfrwt>
<pdfrwt beam="2">0</pdfrwt>
<totfact> 0.18142083E+04</totfact>
</mgrwt>
</event>
<event>
 6    1  0.1274196E-001  0.3000000E+03  0.7818608E-02  0.1093470E+00
         21   -1    0    0  501  502  0.00000000000E+00  0.00000000000E+00  0.11549009913E+02  0.11549009913E+02  0.00000000000E+00 0. -1.
         13   -1    0    0    0    0 -0.00000000000E+00 -0.00000000000E+00 -0.10000000000E+04  0.10000000000E+04  0.00000000000E+00 0.  1.
    9000005    2    1    2  501    0  0.39342369735E+01  0.33578512545E+02 -0.97430959232E+03  0.97490240221E+03  0.35379964850E+01 0.  0.
         13    1    3    3    0    0  0.11911846678E+01  0.15699160129E+02 -0.50084218441E+03  0.50108958903E+03  0.00000000000E+00 0.  1.
          3    1    3    3  501    0  0.27430523058E+01  0.17879352416E+02 -0.47346740792E+03  0.47381281318E+03  0.00000000000E+00 0.  1.
         -3    1    1    2    0  502 -0.39342369735E+01 -0.33578512545E+02 -0.14141397764E+02  0.36646607701E+02  0.00000000000E+00 0. -1.
<mgrwt>
<rscale>  1 0.30000000E+03</rscale>
<asrwt>0</asrwt>
<pdfrwt beam="1">  1       21 0.41996488E-01 0.30000000E+03</pdfrwt>
<pdfrwt beam="2">0</pdfrwt>
<totfact> 0.54533907E+02</totfact>
</mgrwt>
</event>
<event>
 6    1  0.1274196E-001  0.3000000E+03  0.7818608E-02  0.1093470E+00
         21   -1    0    0  501  502  0.00000000000E+00  0.00000000000E+00  0.26629736043E+01  0.26629736043E+01  0.00000000000E+00 0. -1.
         13   -1    0    0    0    0 -0.00000000000E+00 -0.00000000000E+00 -0.10000000000E+04  0.10000000000E+04  0.00000000000E+00 0.  1.
    9000005    2    1    2  501    0 -0.44866075084E+02 -0.24636473003E+02 -0.43924155629E+03  0.44222522126E+03  0.31750676602E+01 0.  0.
         13    1    3    3    0    0 -0.12965847183E+02 -0.55555683027E+01 -0.11775999631E+03  0.11860183078E+03  0.00000000000E+00 0.  1.
          3    1    3    3  501    0 -0.31900227901E+02 -0.19080904700E+02 -0.32148155998E+03  0.32362339048E+03  0.00000000000E+00 0.  1.
         -1    1    1    2    0  502  0.44866075084E+02  0.24636473003E+02 -0.55809547011E+03  0.56043775234E+03  0.00000000000E+00 0. -1.
<mgrwt>
<rscale>  1 0.30000000E+03</rscale>
<asrwt>0</asrwt>
<pdfrwt beam="1">  1       21 0.96835608E-02 0.30000000E+03</pdfrwt>
<pdfrwt beam="2">0</pdfrwt>
<totfact> 0.91115036E+03</totfact>
</mgrwt>
</event>
<event>
 6    1  0.1274196E-001  0.3000000E+03  0.7818608E-02  0.1093470E+00
         21   -1    0    0  501  502  0.00000000000E+00  0.00000000000E+00  0.10599169539E+01  0.10599169539E+01  0.00000000000E+00 0. -1.
         13   -1    0    0    0    0 -0.00000000000E+00 -0.00000000000E+00 -0.10000000000E+04  0.10000000000E+04  0.00000000000E+00 0.  1.
    9000005    2    1    2  501    0 -0.13365574687E+02 -0.28597187625E+02 -0.61758651758E+03  0.61840213300E+03  0.34137480077E+01 0.  0.
         13    1    3    3    0    0 -0.13325929117E+01 -0.12205478366E+01 -0.28731851541E+02  0.28788623341E+02  0.00000000000E+00 0.  1.
          3    1    3    3  501    0 -0.12032981776E+02 -0.27376639789E+02 -0.58885466604E+03  0.58961350966E+03  0.00000000000E+00 0.  1.
         -1    1    1    2    0  502  0.13365574687E+02  0.28597187625E+02 -0.38135356547E+03  0.38265778395E+03  0.00000000000E+00 0. -1.
<mgrwt>
<rscale>  1 0.30000000E+03</rscale>
<asrwt>0</asrwt>
<pdfrwt beam="1">  1       21 0.38542516E-02 0.30000000E+03</pdfrwt>
<pdfrwt beam="2">0</pdfrwt>
<totfact> 0.44756978E+04</totfact>
</mgrwt>
</event>
<event>
 6    1  0.1274196E-001  0.3000000E+03  0.7818608E-02  0.1093470E+00
         21   -1    0    0  501  502  0.00000000000E+00  0.00000000000E+00  0.27859933188E+01  0.27859933188E+01  0.00000000000E+00 0. -1.
         13   -1    0    0    0    0 -0.00000000000E+00 -0.00000000000E+00 -0.10000000000E+04  0.10000000000E+04  0.00000000000E+00 0.  1.
    9000005    2    1    2  501    0 -0.14873239580E+01 -0.33560699893E+02 -0.88519022791E+03  0.88583361104E+03  0.33036578601E+01 0.  0.
         13    1    3    3    0    0 -0.11880812260E+01 -0.82369491546E+01 -0.18978509457E+03  0.18996747350E+03  0.00000000000E+00 0.  1.
          1    1    3    3  501    0 -0.29924273201E+00 -0.25323750739E+02 -0.69540513334E+03  0.69586613754E+03  0.00000000000E+00 0.  1.
         -3    1    1    2    0  502  0.14873239580E+01  0.33560699893E+02 -0.11202377877E+03  0.11695238227E+03  0.00000000000E+00 0. -1.
<mgrwt>
<rscale>  1 0.30000000E+03</rscale>
<asrwt>0</asrwt>
<pdfrwt beam="1">  1       21 0.10130906E-01 0.30000000E+03</pdfrwt>
<pdfrwt beam="2">0</pdfrwt>
<totfact> 0.84054962E+03</totfact>
</mgrwt>
</event>
<event>
 6    1  0.1274196E-001  0.3000000E+03  0.7818608E-02  0.1093470E+00
         21   -1    0    0  501  502  0.00000000000E+00  0.00000000000E+00  0.17337577364E+01  0.17337577364E+01  0.00000000000E+00 0. -1.
         13   -1    0    0    0    0 -0.00000000000E+00 -0.00000000000E+00 -0.10000000000E+04  0.10000000000E+04  0.00000000000E+00 0.  1.
    9000005    2    1    2  501    0  0.36660765431E+02  0.12268109503E+01 -0.26516618121E+03  0.26771658062E+03  0.36806376612E+01 0.  0.
         13    1    3    3    0    0  0.29834016671E+02 -0.63682415112E-01 -0.22177431172E+03  0.22377202226E+03  0.00000000000E+00 0.  1.
          1    1    3    3  501    0  0.68267487597E+01  0.12904933654E+01 -0.43391869495E+02  0.43944558366E+02  0.00000000000E+00 0.  1.
         -1    1    1    2    0  502 -0.36660765431E+02 -0.12268109503E+01 -0.73310006105E+03  0.73401717711E+03  0.00000000000E+00 0. -1.
<mgrwt>
<rscale>  1 0.30000000E+03</rscale>
<asrwt>0</asrwt>
<pdfrwt beam="1">  1       21 0.63045869E-02 0.30000000E+03</pdfrwt>
<pdfrwt beam="2">0</pdfrwt>
<totfact> 0.19345060E+04</totfact>
</mgrwt>
</event>
<event>
 6    1  0.1274196E-001  0.3000000E+03  0.7818608E-02  0.1093470E+00
         21   -1    0    0  501  502  0.00000000000E+00  0.00000000000E+00  0.10688966793E+01  0.10688966793E+01  0.00000000000E+00 0. -1.
         13   -1    0    0    0    0 -0.00000000000E+00 -0.00000000000E+00 -0.10000000000E+04  0.10000000000E+04  0.00000000000E+00 0.  1.
    9000005    2    1    2  501    0  0.30596544360E+02 -0.95040150247E+01 -0.59332414697E+03  0.59419855140E+03  0.34496780553E+01 0.  0.
         13    1    3    3    0    0  0.29913902562E+02 -0.87649667091E+01 -0.57956853318E+03  0.58040619471E+03  0.00000000000E+00 0.  1.
          3    1    3    3  501    0  0.68264179729E+00 -0.73904831563E+00 -0.13755613794E+02  0.13792356691E+02  0.00000000000E+00 0.  1.
         -3    1    1    2    0  502 -0.30596544360E+02  0.95040150247E+01 -0.40560695635E+03  0.40687034528E+03  0.00000000000E+00 0. -1.
<mgrwt>
<rscale>  1 0.30000000E+03</rscale>
<asrwt>0</asrwt>
<pdfrwt beam="1">  1       21 0.38869052E-02 0.30000000E+03</pdfrwt>
<pdfrwt beam="2">0</pdfrwt>
<totfact> 0.44126570E+04</totfact>
</mgrwt>
</event>
<event>
 6    1  0.1274196E-001  0.3000000E+03  0.7818608E-02  0.1093470E+00
         21   -1    0    0  501  502  0.00000000000E+00  0.00000000000E+00  0.16142993575E+01  0.16142993575E+01  0.00000000000E+00 0. -1.
         13   -1    0    0    0    0 -0.00000000000E+00 -0.00000000000E+00 -0.10000000000E+04  0.10000000000E+04  0.00000000000E+00 0.  1.
    9000005    2    1    2  501    0  0.17846518517E+02  0.24562160676E+02 -0.82557782878E+03  0.82615958002E+03  0.62531852084E+01 0.  0.
         13    1    3    3    0    0  0.15979508000E+02  0.20398989547E+02 -0.63750874573E+03  0.63803515917E+03  0.00000000000E+00 0.  1.
          1    1    3    3  501    0  0.18670105166E+01  0.41631711284E+01 -0.18806908305E+03  0.18812442085E+03  0.00000000000E+00 0.  1.
         -3    1    1    2    0  502 -0.17846518517E+02 -0.24562160676E+02 -0.17280787186E+03  0.17545471934E+03  0.00000000000E+00 0. -1.
<mgrwt>
<rscale>  1 0.30000000E+03</rscale>
<asrwt>0</asrwt>
<pdfrwt beam="1">  1       21 0.58701919E-02 0.30000000E+03</pdfrwt>
<pdfrwt beam="2">0</pdfrwt>
<totfact> 0.21881361E+04</totfact>
</mgrwt>
</event>
<event>
 6    1  0.1274196E-001  0.3000000E+03  0.7818608E-02  0.1093470E+00
         21   -1    0    0  501  502  0.00000000000E+00  0.00000000000E+00  0.19284190027E+01  0.19284190027E+01  0.00000000000E+00 0. -1.
         13   -1    0    0    0    0 -0.00000000000E+00 -0.00000000000E+00 -0.10000000000E+04  0.10000000000E+04  0.00000000000E+00 0.  1.
    9000005    2    1    2  501    0  0.42091538600E+02  0.29904323425E+01 -0.36719868157E+03  0.36964584330E+03  0.47473586127E+01 0.  0.
         13    1    3    3    0    0  0.42413010040E+01  0.24702072126E+00 -0.26237633574E+02  0.26579372999E+02  0.00000000000E+00 0.  1.
          3    1    3    3  501    0  0.37850237596E+02  0.27434116213E+01 -0.34096104800E+03  0.34306647030E+03  0.00000000000E+00 0.  1.
         -3    1    1    2    0  502 -0.42091538600E+02 -0.29904323425E+01 -0.63087289943E+03  0.63228257570E+03  0.00000000000E+00 0. -1.
<mgrwt>
<rscale>  1 0.30000000E+03</rscale>
<asrwt>0</asrwt>
<pdfrwt beam="1">  1       21 0.70124475E-02 0.30000000E+03</pdfrwt>
<pdfrwt beam="2">0</pdfrwt>
<totfact> 0.16085471E+04</totfact>
</mgrwt>
</event>
<event>
 6    1  0.1274196E-001  0.3000000E+03  0.7818608E-02  0.1093470E+00
         21   -1    0    0  501  502  0.00000000000E+00  0.00000000000E+00  0.10643633569E+01  0.10643633569E+01  0.00000000000E+00 0. -1.
         13   -1    0    0    0    0 -0.00000000000E+00 -0.00000000000E+00 -0.10000000000E+04  0.10000000000E+04  0.00000000000E+00 0.  1.
    9000005    2    1    2  501    0 -0.15235471603E+02 -0.28574182358E+02 -0.53734247840E+03  0.53833674669E+03  0.45727724486E+01 0.  0.
         13    1    3    3    0    0 -0.88141949814E+01 -0.18114552202E+02 -0.29837006683E+03  0.29904936685E+03  0.00000000000E+00 0.  1.
          1    1    3    3  501    0 -0.64212766219E+01 -0.10459630156E+02 -0.23897241157E+03  0.23928737983E+03  0.00000000000E+00 0.  1.
         -3    1    1    2    0  502  0.15235471603E+02  0.28574182358E+02 -0.46159315824E+03  0.46272761667E+03  0.00000000000E+00 0. -1.
<mgrwt>
<rscale>  1 0.30000000E+03</rscale>
<asrwt>0</asrwt>
<pdfrwt beam="1">  1       21 0.38704204E-02 0.30000000E+03</pdfrwt>
<pdfrwt beam="2">0</pdfrwt>
<totfact> 0.44443071E+04</totfact>
</mgrwt>
</event>
<event>
 6    1  0.1274196E-001  0.3000000E+03  0.7818608E-02  0.1093470E+00
         21   -1    0    0  501  502  0.00000000000E+00  0.00000000000E+00  0.93661854868E+00  0.93661854868E+00  0.00000000000E+00 0. -1.
         13   -1    0    0    0    0 -0.00000000000E+00 -0.00000000000E+00 -0.10000000000E+04  0.10000000000E+04  0.00000000000E+00 0.  1.
    9000005    2    1    2  501    0  0.13014334734E+02  0.27309986432E+02 -0.43715032260E+03  0.43820978076E+03  0.34927254588E+01 0.  0.
         13    1    3    3    0    0  0.17987236722E+01  0.24387851257E+01 -0.57992142750E+02  0.58071263982E+02  0.00000000000E+00 0.  1.
          3    1    3    3  501    0  0.11215611062E+02  0.24871201306E+02 -0.37915817985E+03  0.38013851677E+03  0.00000000000E+00 0.  1.
         -3    1    1    2    0  502 -0.13014334734E+02 -0.27309986432E+02 -0.56191305885E+03  0.56272683779E+03  0.00000000000E+00 0. -1.
<mgrwt>
<rscale>  1 0.30000000E+03</rscale>
<asrwt>0</asrwt>
<pdfrwt beam="1">  1       21 0.34058928E-02 0.30000000E+03</pdfrwt>
<pdfrwt beam="2">0</pdfrwt>
<totfact> 0.55071413E+04</totfact>
</mgrwt>
</event>
<event>
 6    1  0.1274196E-001  0.3000000E+03  0.7818608E-02  0.1093470E+00
         21   -1    0    0  501  502  0.00000000000E+00  0.00000000000E+00  0.10398906729E+01  0.10398906729E+01  0.00000000000E+00 0. -1.
         13   -1    0    0    0    0 -0.00000000000E+00 -0.00000000000E+00 -0.10000000000E+04  0.10000000000E+04  0.00000000000E+00 0.  1.
    9000005    2    1    2  501    0 -0.17522726698E+02 -0.25078110920E+02 -0.65431470825E+03  0.65503929807E+03  0.35758893913E+01 0.  0.
         13    1    3    3    0    0 -0.89060263803E+01 -0.14662006542E+02 -0.33594330683E+03  0.33638102971E+03  0.00000000000E+00 0.  1.
          3    1    3    3  501    0 -0.86167003179E+01 -0.10416104378E+02 -0.31837140142E+03  0.31865826837E+03  0.00000000000E+00 0.  1.
         -1    1    1    2    0  502  0.17522726698E+02  0.25078110920E+02 -0.34464540107E+03  0.34600059260E+03  0.00000000000E+00 0. -1.
<mgrwt>
<rscale>  1 0.30000000E+03</rscale>
<asrwt>0</asrwt>
<pdfrwt beam="1">  1       21 0.37814286E-02 0.30000000E+03</pdfrwt>
<pdfrwt beam="2">0</pdfrwt>
<totfact> 0.46214893E+04</totfact>
</mgrwt>
</event>
<event>
 6    1  0.1274196E-001  0.3000000E+03  0.7818608E-02  0.1093470E+00
         21   -1    0    0  501  502  0.00000000000E+00  0.00000000000E+00  0.19986334165E+01  0.19986334165E+01  0.00000000000E+00 0. -1.
         13   -1    0    0    0    0 -0.00000000000E+00 -0.00000000000E+00 -0.10000000000E+04  0.10000000000E+04  0.00000000000E+00 0.  1.
    9000005    2    1    2  501    0  0.19660419128E+02 -0.37653947018E+02 -0.65382585247E+03  0.65521175893E+03  0.31387681352E+01 0.  0.
         13    1    3    3    0    0  0.13175684679E+02 -0.27513173526E+02 -0.48297010448E+03  0.48393253167E+03  0.00000000000E+00 0.  1.
          3    1    3    3  501    0  0.64847344490E+01 -0.10140773492E+02 -0.17085574799E+03  0.17127922726E+03  0.00000000000E+00 0.  1.
         -1    1    1    2    0  502 -0.19660419128E+02  0.37653947018E+02 -0.34417551411E+03  0.34678687449E+03  0.00000000000E+00 0. -1.
<mgrwt>
<rscale>  1 0.30000000E+03</rscale>
<asrwt>0</asrwt>
<pdfrwt beam="1">  1       21 0.72677732E-02 0.30000000E+03</pdfrwt>
<pdfrwt beam="2">0</pdfrwt>
<totfact> 0.15113259E+04</totfact>
</mgrwt>
</event>
<event>
 6    1  0.1274196E-001  0.3000000E+03  0.7818608E-02  0.1093470E+00
         21   -1    0    0  501  502  0.00000000000E+00  0.00000000000E+00  0.28918803343E+01  0.28918803343E+01  0.00000000000E+00 0. -1.
         13   -1    0    0    0    0 -0.00000000000E+00 -0.00000000000E+00 -0.10000000000E+04  0.10000000000E+04  0.00000000000E+00 0.  1.
    9000005    2    1    2  501    0  0.37460758227E+02  0.17476076066E+02 -0.81902851092E+03  0.82007757922E+03  0.32882509927E+01 0.  0.
         13    1    3    3    0    0  0.27573818558E+02  0.14048899167E+02 -0.63014573191E+03  0.63090516758E+03  0.00000000000E+00 0.  1.
          1    1    3    3  501    0  0.98869396692E+01  0.34271768983E+01 -0.18888277902E+03  0.18917241164E+03  0.00000000000E+00 0.  1.
         -1    1    1    2    0  502 -0.37460758227E+02 -0.17476076066E+02 -0.17807960874E+03  0.18281430111E+03  0.00000000000E+00 0. -1.
<mgrwt>
<rscale>  1 0.30000000E+03</rscale>
<asrwt>0</asrwt>
<pdfrwt beam="1">  1       21 0.10515951E-01 0.30000000E+03</pdfrwt>
<pdfrwt beam="2">0</pdfrwt>
<totfact> 0.78624445E+03</totfact>
</mgrwt>
</event>
<event>
 6    1  0.1274196E-001  0.3000000E+03  0.7818608E-02  0.1093470E+00
         21   -1    0    0  501  502  0.00000000000E+00  0.00000000000E+00  0.24349335188E+01  0.24349335188E+01  0.00000000000E+00 0. -1.
         13   -1    0    0    0    0 -0.00000000000E+00 -0.00000000000E+00 -0.10000000000E+04  0.10000000000E+04  0.00000000000E+00 0.  1.
    9000005    2    1    2  501    0 -0.34253303301E+02  0.22110504676E+01 -0.85857551449E+03  0.85926973840E+03  0.37936412534E+01 0.  0.
         13    1    3    3    0    0 -0.19641197218E+02  0.29106279464E+01 -0.51680060641E+03  0.51718189756E+03  0.00000000000E+00 0.  1.
          3    1    3    3  501    0 -0.14612106083E+02 -0.69957747879E+00 -0.34177490808E+03  0.34208784083E+03  0.00000000000E+00 0.  1.
         -3    1    1    2    0  502  0.34253303301E+02 -0.22110504676E+01 -0.13898955199E+03  0.14316519512E+03  0.00000000000E+00 0. -1.
<mgrwt>
<rscale>  1 0.30000000E+03</rscale>
<asrwt>0</asrwt>
<pdfrwt beam="1">  1       21 0.88543224E-02 0.30000000E+03</pdfrwt>
<pdfrwt beam="2">0</pdfrwt>
<totfact> 0.10682289E+04</totfact>
</mgrwt>
</event>
<event>
 6    1  0.1274196E-001  0.3000000E+03  0.7818608E-02  0.1093470E+00
         21   -1    0    0  501  502  0.00000000000E+00  0.00000000000E+00  0.24540839011E+01  0.24540839011E+01  0.00000000000E+00 0. -1.
         13   -1    0    0    0    0 -0.00000000000E+00 -0.00000000000E+00 -0.10000000000E+04  0.10000000000E+04  0.00000000000E+00 0.  1.
    9000005    2    1    2  501    0  0.31296523406E+02  0.72621785659E+01 -0.88013280575E+03  0.88072467046E+03  0.31587632729E+01 0.  0.
         13    1    3    3    0    0  0.11868356117E+01  0.57379739386E+00 -0.54510433889E+02  0.54526371830E+02  0.00000000000E+00 0.  1.
          3    1    3    3  501    0  0.30109687794E+02  0.66883811721E+01 -0.82562237186E+03  0.82619829863E+03  0.00000000000E+00 0.  1.
         -1    1    1    2    0  502 -0.31296523406E+02 -0.72621785659E+01 -0.11741311035E+03  0.12172941344E+03  0.00000000000E+00 0. -1.
<mgrwt>
<rscale>  1 0.30000000E+03</rscale>
<asrwt>0</asrwt>
<pdfrwt beam="1">  1       21 0.89239603E-02 0.30000000E+03</pdfrwt>
<pdfrwt beam="2">0</pdfrwt>
<totfact> 0.10535212E+04</totfact>
</mgrwt>
</event>
<event>
 6    1  0.1274196E-001  0.3000000E+03  0.7818608E-02  0.1093470E+00
         21   -1    0    0  501  502  0.00000000000E+00  0.00000000000E+00  0.82516407104E+01  0.82516407104E+01  0.00000000000E+00 0. -1.
         13   -1    0    0    0    0 -0.00000000000E+00 -0.00000000000E+00 -0.10000000000E+04  0.10000000000E+04  0.00000000000E+00 0.  1.
    9000005    2    1    2  501    0  0.52296381179E+02  0.62623430032E+02 -0.71731843838E+03  0.72195042352E+03  0.31727763535E+01 0.  0.
         13    1    3    3    0    0  0.31612179153E+01  0.31979517762E+01 -0.45354891277E+02  0.45577257015E+02  0.00000000000E+00 0.  1.
          1    1    3    3  501    0  0.49135163263E+02  0.59425478256E+02 -0.67196354710E+03  0.67637316650E+03  0.00000000000E+00 0.  1.
         -3    1    1    2    0  502 -0.52296381179E+02 -0.62623430032E+02 -0.27442992091E+03  0.28630121719E+03  0.00000000000E+00 0. -1.
<mgrwt>
<rscale>  1 0.30000000E+03</rscale>
<asrwt>0</asrwt>
<pdfrwt beam="1">  1       21 0.30006029E-01 0.30000000E+03</pdfrwt>
<pdfrwt beam="2">0</pdfrwt>
<totfact> 0.10868424E+03</totfact>
</mgrwt>
</event>
<event>
 6    1  0.1274196E-001  0.3000000E+03  0.7818608E-02  0.1093470E+00
         21   -1    0    0  501  502  0.00000000000E+00  0.00000000000E+00  0.35859958307E+01  0.35859958307E+01  0.00000000000E+00 0. -1.
         13   -1    0    0    0    0 -0.00000000000E+00 -0.00000000000E+00 -0.10000000000E+04  0.10000000000E+04  0.00000000000E+00 0.  1.
    9000005    2    1    2  501    0  0.23796670388E+02  0.35690389195E+02 -0.84814793437E+03  0.84923926650E+03  0.35110939469E+01 0.  0.
         13    1    3    3    0    0  0.20053038923E+02  0.31832007296E+02 -0.72909315398E+03  0.73006316730E+03  0.00000000000E+00 0.  1.
          3    1    3    3  501    0  0.37436314659E+01  0.38583818989E+01 -0.11905478039E+03  0.11917609920E+03  0.00000000000E+00 0.  1.
         -3    1    1    2    0  502 -0.23796670388E+02 -0.35690389195E+02 -0.14826606980E+03  0.15434672934E+03  0.00000000000E+00 0. -1.
<mgrwt>
<rscale>  1 0.30000000E+03</rscale>
<asrwt>0</asrwt>
<pdfrwt beam="1">  1       21 0.13040012E-01 0.30000000E+03</pdfrwt>
<pdfrwt beam="2">0</pdfrwt>
<totfact> 0.53265443E+03</totfact>
</mgrwt>
</event>
<event>
 6    1  0.1274196E-001  0.3000000E+03  0.7818608E-02  0.1093470E+00
         21   -1    0    0  501  502  0.00000000000E+00  0.00000000000E+00  0.15471324284E+01  0.15471324284E+01  0.00000000000E+00 0. -1.
         13   -1    0    0    0    0 -0.00000000000E+00 -0.00000000000E+00 -0.10000000000E+04  0.10000000000E+04  0.00000000000E+00 0.  1.
    9000005    2    1    2  501    0 -0.73784804169E+01  0.29758632748E+02 -0.81230122006E+03  0.81288750753E+03  0.35790484738E+01 0.  0.
         13    1    3    3    0    0 -0.17050534497E+01  0.13883026618E+02 -0.35323424894E+03  0.35351107516E+03  0.00000000000E+00 0.  1.
          1    1    3    3  501    0 -0.56734269672E+01  0.15875606130E+02 -0.45906697112E+03  0.45937643237E+03  0.00000000000E+00 0.  1.
         -1    1    1    2    0  502  0.73784804169E+01 -0.29758632748E+02 -0.18615164751E+03  0.18865962490E+03  0.00000000000E+00 0. -1.
<mgrwt>
<rscale>  1 0.30000000E+03</rscale>
<asrwt>0</asrwt>
<pdfrwt beam="1">  1       21 0.56259480E-02 0.30000000E+03</pdfrwt>
<pdfrwt beam="2">0</pdfrwt>
<totfact> 0.23541419E+04</totfact>
</mgrwt>
</event>
<event>
 6    1  0.1274196E-001  0.3000000E+03  0.7818608E-02  0.1093470E+00
         21   -1    0    0  501  502  0.00000000000E+00  0.00000000000E+00  0.99817583604E+00  0.99817583604E+00  0.00000000000E+00 0. -1.
         13   -1    0    0    0    0 -0.00000000000E+00 -0.00000000000E+00 -0.10000000000E+04  0.10000000000E+04  0.00000000000E+00 0.  1.
    9000005    2    1    2  501    0  0.28763201990E+02 -0.12487412232E+02 -0.44592371912E+03  0.44703188847E+03  0.25077454516E+01 0.  0.
         13    1    3    3    0    0  0.14238984743E+02 -0.51505959597E+01 -0.20328289073E+03  0.20384604727E+03  0.00000000000E+00 0.  1.
          3    1    3    3  501    0  0.14524217247E+02 -0.73368162718E+01 -0.24264082839E+03  0.24318584120E+03  0.00000000000E+00 0.  1.
         -1    1    1    2    0  502 -0.28763201990E+02  0.12487412232E+02 -0.55307810505E+03  0.55396628736E+03  0.00000000000E+00 0. -1.
<mgrwt>
<rscale>  1 0.30000000E+03</rscale>
<asrwt>0</asrwt>
<pdfrwt beam="1">  1       21 0.36297380E-02 0.30000000E+03</pdfrwt>
<pdfrwt beam="2">0</pdfrwt>
<totfact> 0.49502571E+04</totfact>
</mgrwt>
</event>
<event>
 6    1  0.1274196E-001  0.3000000E+03  0.7818608E-02  0.1093470E+00
         21   -1    0    0  501  502  0.00000000000E+00  0.00000000000E+00  0.18554425203E+01  0.18554425203E+01  0.00000000000E+00 0. -1.
         13   -1    0    0    0    0 -0.00000000000E+00 -0.00000000000E+00 -0.10000000000E+04  0.10000000000E+04  0.00000000000E+00 0.  1.
    9000005    2    1    2  501    0  0.28714087630E+02 -0.28797497658E+02 -0.36153905458E+03  0.36395234563E+03  0.98502387456E+01 0.  0.
         13    1    3    3    0    0  0.15000427280E+01 -0.20177644811E+01 -0.53047557259E+02  0.53107107178E+02  0.00000000000E+00 0.  1.
          3    1    3    3  501    0  0.27214044902E+02 -0.26779733177E+02 -0.30849149732E+03  0.31084523846E+03  0.00000000000E+00 0.  1.
         -3    1    1    2    0  502 -0.28714087630E+02  0.28797497658E+02 -0.63660550290E+03  0.63790309689E+03  0.00000000000E+00 0. -1.
<mgrwt>
<rscale>  1 0.30000000E+03</rscale>
<asrwt>0</asrwt>
<pdfrwt beam="1">  1       21 0.67470779E-02 0.30000000E+03</pdfrwt>
<pdfrwt beam="2">0</pdfrwt>
<totfact> 0.17200927E+04</totfact>
</mgrwt>
</event>
<event>
 6    1  0.1274196E-001  0.3000000E+03  0.7818608E-02  0.1093470E+00
         21   -1    0    0  501  502  0.00000000000E+00  0.00000000000E+00  0.43090590937E+01  0.43090590937E+01  0.00000000000E+00 0. -1.
         13   -1    0    0    0    0 -0.00000000000E+00 -0.00000000000E+00 -0.10000000000E+04  0.10000000000E+04  0.00000000000E+00 0.  1.
    9000005    2    1    2  501    0 -0.97732900974E+01 -0.58494680571E+02 -0.71241061901E+03  0.71488741921E+03  0.42411347733E+01 0.  0.
         13    1    3    3    0    0 -0.81213082297E+01 -0.40217349849E+02 -0.50859168296E+03  0.51024395229E+03  0.00000000000E+00 0.  1.
          3    1    3    3  501    0 -0.16519818678E+01 -0.18277330722E+02 -0.20381893605E+03  0.20464346692E+03  0.00000000000E+00 0.  1.
         -1    1    1    2    0  502  0.97732900974E+01  0.58494680571E+02 -0.28328032190E+03  0.28942163988E+03  0.00000000000E+00 0. -1.
<mgrwt>
<rscale>  1 0.30000000E+03</rscale>
<asrwt>0</asrwt>
<pdfrwt beam="1">  1       21 0.15669339E-01 0.30000000E+03</pdfrwt>
<pdfrwt beam="2">0</pdfrwt>
<totfact> 0.37975351E+03</totfact>
</mgrwt>
</event>
<event>
 6    1  0.1274196E-001  0.3000000E+03  0.7818608E-02  0.1093470E+00
         21   -1    0    0  501  502  0.00000000000E+00  0.00000000000E+00  0.20232720204E+01  0.20232720204E+01  0.00000000000E+00 0. -1.
         13   -1    0    0    0    0 -0.00000000000E+00 -0.00000000000E+00 -0.10000000000E+04  0.10000000000E+04  0.00000000000E+00 0.  1.
    9000005    2    1    2  501    0  0.34899691979E+02  0.24308011096E+02 -0.66063611546E+03  0.66201215932E+03  0.33397807892E+01 0.  0.
         13    1    3    3    0    0  0.46518286378E+01  0.30585589163E+01 -0.70551647673E+02  0.70770963549E+02  0.00000000000E+00 0.  1.
          3    1    3    3  501    0  0.30247863341E+02  0.21249452180E+02 -0.59008446779E+03  0.59124119577E+03  0.00000000000E+00 0.  1.
         -3    1    1    2    0  502 -0.34899691979E+02 -0.24308011096E+02 -0.33734061252E+03  0.34001111270E+03  0.00000000000E+00 0. -1.
<mgrwt>
<rscale>  1 0.30000000E+03</rscale>
<asrwt>0</asrwt>
<pdfrwt beam="1">  1       21 0.73573683E-02 0.30000000E+03</pdfrwt>
<pdfrwt beam="2">0</pdfrwt>
<totfact> 0.14793189E+04</totfact>
</mgrwt>
</event>
<event>
 6    1  0.1274196E-001  0.3000000E+03  0.7818608E-02  0.1093470E+00
         21   -1    0    0  501  502  0.00000000000E+00  0.00000000000E+00  0.99988407910E+00  0.99988407910E+00  0.00000000000E+00 0. -1.
         13   -1    0    0    0    0 -0.00000000000E+00 -0.00000000000E+00 -0.10000000000E+04  0.10000000000E+04  0.00000000000E+00 0.  1.
    9000005    2    1    2  501    0  0.59990216420E+01 -0.30939843858E+02 -0.52394270495E+03  0.52489820805E+03  0.29847187383E+01 0.  0.
         13    1    3    3    0    0  0.24681726698E+01 -0.15100318479E+02 -0.23075146367E+03  0.23125818792E+03  0.00000000000E+00 0.  1.
          1    1    3    3  501    0  0.35308489722E+01 -0.15839525379E+02 -0.29319124129E+03  0.29364002014E+03  0.00000000000E+00 0.  1.
         -3    1    1    2    0  502 -0.59990216420E+01  0.30939843858E+02 -0.47505741097E+03  0.47610167603E+03  0.00000000000E+00 0. -1.
<mgrwt>
<rscale>  1 0.30000000E+03</rscale>
<asrwt>0</asrwt>
<pdfrwt beam="1">  1       21 0.36359498E-02 0.30000000E+03</pdfrwt>
<pdfrwt beam="2">0</pdfrwt>
<totfact> 0.49360789E+04</totfact>
</mgrwt>
</event>
<event>
 6    1  0.1274196E-001  0.3000000E+03  0.7818608E-02  0.1093470E+00
         21   -1    0    0  501  502  0.00000000000E+00  0.00000000000E+00  0.16646792594E+02  0.16646792594E+02  0.00000000000E+00 0. -1.
         13   -1    0    0    0    0 -0.00000000000E+00 -0.00000000000E+00 -0.10000000000E+04  0.10000000000E+04  0.00000000000E+00 0.  1.
    9000005    2    1    2  501    0 -0.68551131486E+01 -0.65451667791E+02 -0.92887278858E+03  0.93121243517E+03  0.45857014037E+01 0.  0.
         13    1    3    3    0    0 -0.21321522986E+01 -0.68746974855E+01 -0.98033436604E+02  0.98297315484E+02  0.00000000000E+00 0.  1.
          3    1    3    3  501    0 -0.47229608499E+01 -0.58576970305E+02 -0.83083935198E+03  0.83291511969E+03  0.00000000000E+00 0.  1.
         -3    1    1    2    0  502  0.68551131486E+01  0.65451667791E+02 -0.54480418824E+02  0.85434357422E+02  0.00000000000E+00 0. -1.
<mgrwt>
<rscale>  1 0.30000000E+03</rscale>
<asrwt>0</asrwt>
<pdfrwt beam="1">  1       21 0.60533919E-01 0.30000000E+03</pdfrwt>
<pdfrwt beam="2">0</pdfrwt>
<totfact> 0.24615527E+02</totfact>
</mgrwt>
</event>
<event>
 6    1  0.1274196E-001  0.3000000E+03  0.7818608E-02  0.1093470E+00
         21   -1    0    0  501  502  0.00000000000E+00  0.00000000000E+00  0.28473174529E+01  0.28473174529E+01  0.00000000000E+00 0. -1.
         13   -1    0    0    0    0 -0.00000000000E+00 -0.00000000000E+00 -0.10000000000E+04  0.10000000000E+04  0.00000000000E+00 0.  1.
    9000005    2    1    2  501    0  0.19286464782E+02 -0.42652471817E+02 -0.73876492552E+03  0.74025365025E+03  0.32635023120E+01 0.  0.
         13    1    3    3    0    0  0.71529976255E+01 -0.19698374891E+02 -0.33436249845E+03  0.33501861399E+03  0.00000000000E+00 0.  1.
          1    1    3    3  501    0  0.12133467156E+02 -0.22954096926E+02 -0.40440242707E+03  0.40523503626E+03  0.00000000000E+00 0.  1.
         -3    1    1    2    0  502 -0.19286464782E+02  0.42652471817E+02 -0.25838775702E+03  0.26259366720E+03  0.00000000000E+00 0. -1.
<mgrwt>
<rscale>  1 0.30000000E+03</rscale>
<asrwt>0</asrwt>
<pdfrwt beam="1">  1       21 0.10353903E-01 0.30000000E+03</pdfrwt>
<pdfrwt beam="2">0</pdfrwt>
<totfact> 0.80842933E+03</totfact>
</mgrwt>
</event>
<event>
 6    1  0.1274196E-001  0.3000000E+03  0.7818608E-02  0.1093470E+00
         21   -1    0    0  501  502  0.00000000000E+00  0.00000000000E+00  0.11218949557E+01  0.11218949557E+01  0.00000000000E+00 0. -1.
         13   -1    0    0    0    0 -0.00000000000E+00 -0.00000000000E+00 -0.10000000000E+04  0.10000000000E+04  0.00000000000E+00 0.  1.
    9000005    2    1    2  501    0  0.23834988094E+02 -0.18576631154E+02 -0.71141348267E+03  0.71207327102E+03  0.50992247977E+01 0.  0.
         13    1    3    3    0    0  0.11323603016E+02 -0.80910193135E+01 -0.27063392607E+03  0.27099153219E+03  0.00000000000E+00 0.  1.
          1    1    3    3  501    0  0.12511385078E+02 -0.10485611840E+02 -0.44077955661E+03  0.44108173884E+03  0.00000000000E+00 0.  1.
         -3    1    1    2    0  502 -0.23834988094E+02  0.18576631154E+02 -0.28746462237E+03  0.28904862393E+03  0.00000000000E+00 0. -1.
<mgrwt>
<rscale>  1 0.30000000E+03</rscale>
<asrwt>0</asrwt>
<pdfrwt beam="1">  1       21 0.40796266E-02 0.30000000E+03</pdfrwt>
<pdfrwt beam="2">0</pdfrwt>
<totfact> 0.40673819E+04</totfact>
</mgrwt>
</event>
<event>
 6    1  0.1274196E-001  0.3000000E+03  0.7818608E-02  0.1093470E+00
         21   -1    0    0  501  502  0.00000000000E+00  0.00000000000E+00  0.14939313273E+01  0.14939313273E+01  0.00000000000E+00 0. -1.
         13   -1    0    0    0    0 -0.00000000000E+00 -0.00000000000E+00 -0.10000000000E+04  0.10000000000E+04  0.00000000000E+00 0.  1.
    9000005    2    1    2  501    0  0.11940244180E+02 -0.33596937346E+02 -0.30850289701E+03  0.31057012906E+03  0.29058514889E+01 0.  0.
         13    1    3    3    0    0  0.22680292029E+01 -0.70332236821E+01 -0.74572360475E+02  0.74937621651E+02  0.00000000000E+00 0.  1.
          1    1    3    3  501    0  0.96722149771E+01 -0.26563713664E+02 -0.23393053653E+03  0.23563250741E+03  0.00000000000E+00 0.  1.
         -3    1    1    2    0  502 -0.11940244180E+02  0.33596937346E+02 -0.69000317167E+03  0.69092380227E+03  0.00000000000E+00 0. -1.
<mgrwt>
<rscale>  1 0.30000000E+03</rscale>
<asrwt>0</asrwt>
<pdfrwt beam="1">  1       21 0.54324890E-02 0.30000000E+03</pdfrwt>
<pdfrwt beam="2">0</pdfrwt>
<totfact> 0.24997738E+04</totfact>
</mgrwt>
</event>
<event>
 6    1  0.1274196E-001  0.3000000E+03  0.7818608E-02  0.1093470E+00
         21   -1    0    0  501  502  0.00000000000E+00  0.00000000000E+00  0.54780873476E+01  0.54780873476E+01  0.00000000000E+00 0. -1.
         13   -1    0    0    0    0 -0.00000000000E+00 -0.00000000000E+00 -0.10000000000E+04  0.10000000000E+04  0.00000000000E+00 0.  1.
    9000005    2    1    2  501    0  0.15427739217E+02 -0.61024620486E+02 -0.76152312667E+03  0.76412677968E+03  0.32005515793E+01 0.  0.
         13    1    3    3    0    0  0.50822956514E+01 -0.26448876592E+02 -0.32902739993E+03  0.33012785812E+03  0.00000000000E+00 0.  1.
          3    1    3    3  501    0  0.10345443566E+02 -0.34575743894E+02 -0.43249572674E+03  0.43399892156E+03  0.00000000000E+00 0.  1.
         -1    1    1    2    0  502 -0.15427739217E+02  0.61024620486E+02 -0.23299878598E+03  0.24135130766E+03  0.00000000000E+00 0. -1.
<mgrwt>
<rscale>  1 0.30000000E+03</rscale>
<asrwt>0</asrwt>
<pdfrwt beam="1">  1       21 0.19920360E-01 0.30000000E+03</pdfrwt>
<pdfrwt beam="2">0</pdfrwt>
<totfact> 0.24175610E+03</totfact>
</mgrwt>
</event>
<event>
 6    1  0.1274196E-001  0.3000000E+03  0.7818608E-02  0.1093470E+00
         21   -1    0    0  501  502  0.00000000000E+00  0.00000000000E+00  0.10510359990E+01  0.10510359990E+01  0.00000000000E+00 0. -1.
         13   -1    0    0    0    0 -0.00000000000E+00 -0.00000000000E+00 -0.10000000000E+04  0.10000000000E+04  0.00000000000E+00 0.  1.
    9000005    2    1    2  501    0 -0.10566568208E+02 -0.30404276208E+02 -0.54742283888E+03  0.54837906421E+03  0.34294551007E+01 0.  0.
         13    1    3    3    0    0 -0.76555129437E+01 -0.25879696358E+02 -0.45859612670E+03  0.45938956560E+03  0.00000000000E+00 0.  1.
          3    1    3    3  501    0 -0.29110552642E+01 -0.45245798500E+01 -0.88826712186E+02  0.88989498612E+02  0.00000000000E+00 0.  1.
         -3    1    1    2    0  502  0.10566568208E+02  0.30404276208E+02 -0.45152612512E+03  0.45267197178E+03  0.00000000000E+00 0. -1.
<mgrwt>
<rscale>  1 0.30000000E+03</rscale>
<asrwt>0</asrwt>
<pdfrwt beam="1">  1       21 0.38219571E-02 0.30000000E+03</pdfrwt>
<pdfrwt beam="2">0</pdfrwt>
<totfact> 0.45394466E+04</totfact>
</mgrwt>
</event>
<event>
 6    1  0.1274196E-001  0.3000000E+03  0.7818608E-02  0.1093470E+00
         21   -1    0    0  501  502  0.00000000000E+00  0.00000000000E+00  0.12035524890E+01  0.12035524890E+01  0.00000000000E+00 0. -1.
         13   -1    0    0    0    0 -0.00000000000E+00 -0.00000000000E+00 -0.10000000000E+04  0.10000000000E+04  0.00000000000E+00 0.  1.
    9000005    2    1    2  501    0  0.36243119592E+01 -0.33658251064E+02 -0.60487097440E+03  0.60582614815E+03  0.32268560595E+01 0.  0.
         13    1    3    3    0    0  0.51042220983E+00 -0.62612767464E+00 -0.17886795027E+02  0.17905027312E+02  0.00000000000E+00 0.  1.
          1    1    3    3  501    0  0.31138897494E+01 -0.33032123390E+02 -0.58698417938E+03  0.58792112083E+03  0.00000000000E+00 0.  1.
         -3    1    1    2    0  502 -0.36243119592E+01  0.33658251064E+02 -0.39392547311E+03  0.39537740434E+03  0.00000000000E+00 0. -1.
<mgrwt>
<rscale>  1 0.30000000E+03</rscale>
<asrwt>0</asrwt>
<pdfrwt beam="1">  1       21 0.43765637E-02 0.30000000E+03</pdfrwt>
<pdfrwt beam="2">0</pdfrwt>
<totfact> 0.36121656E+04</totfact>
</mgrwt>
</event>
<event>
 6    1  0.1274196E-001  0.3000000E+03  0.7818608E-02  0.1093470E+00
         21   -1    0    0  501  502  0.00000000000E+00  0.00000000000E+00  0.19417275600E+01  0.19417275600E+01  0.00000000000E+00 0. -1.
         13   -1    0    0    0    0 -0.00000000000E+00 -0.00000000000E+00 -0.10000000000E+04  0.10000000000E+04  0.00000000000E+00 0.  1.
    9000005    2    1    2  501    0  0.39760450929E+02 -0.12422714044E+02 -0.64845255889E+03  0.64986308261E+03  0.98024347754E+01 0.  0.
         13    1    3    3    0    0  0.36908108856E+02 -0.11270596734E+02 -0.62754359689E+03  0.62872903611E+03  0.00000000000E+00 0.  1.
          1    1    3    3  501    0  0.28523420729E+01 -0.11521173099E+01 -0.20908961999E+02  0.21134046501E+02  0.00000000000E+00 0.  1.
         -3    1    1    2    0  502 -0.39760450929E+02  0.12422714044E+02 -0.34960571355E+03  0.35207864495E+03  0.00000000000E+00 0. -1.
<mgrwt>
<rscale>  1 0.30000000E+03</rscale>
<asrwt>0</asrwt>
<pdfrwt beam="1">  1       21 0.70608424E-02 0.30000000E+03</pdfrwt>
<pdfrwt beam="2">0</pdfrwt>
<totfact> 0.15894006E+04</totfact>
</mgrwt>
</event>
<event>
 6    1  0.1274196E-001  0.3000000E+03  0.7818608E-02  0.1093470E+00
         21   -1    0    0  501  502  0.00000000000E+00  0.00000000000E+00  0.36206626849E+01  0.36206626849E+01  0.00000000000E+00 0. -1.
         13   -1    0    0    0    0 -0.00000000000E+00 -0.00000000000E+00 -0.10000000000E+04  0.10000000000E+04  0.00000000000E+00 0.  1.
    9000005    2    1    2  501    0  0.35953743499E+02  0.16884894101E+02 -0.87504113909E+03  0.87594635177E+03  0.26916072951E+01 0.  0.
         13    1    3    3    0    0  0.26613640354E+01  0.88475482022E+00 -0.49702818818E+02  0.49781882729E+02  0.00000000000E+00 0.  1.
          1    1    3    3  501    0  0.33292379463E+02  0.16000139280E+02 -0.82533832027E+03  0.82616446904E+03  0.00000000000E+00 0.  1.
         -1    1    1    2    0  502 -0.35953743499E+02 -0.16884894101E+02 -0.12133819822E+03  0.12767431092E+03  0.00000000000E+00 0. -1.
<mgrwt>
<rscale>  1 0.30000000E+03</rscale>
<asrwt>0</asrwt>
<pdfrwt beam="1">  1       21 0.13166074E-01 0.30000000E+03</pdfrwt>
<pdfrwt beam="2">0</pdfrwt>
<totfact> 0.52337263E+03</totfact>
</mgrwt>
</event>
<event>
 6    1  0.1274196E-001  0.3000000E+03  0.7818608E-02  0.1093470E+00
         21   -1    0    0  501  502  0.00000000000E+00  0.00000000000E+00  0.32410080642E+01  0.32410080642E+01  0.00000000000E+00 0. -1.
         13   -1    0    0    0    0 -0.00000000000E+00 -0.00000000000E+00 -0.10000000000E+04  0.10000000000E+04  0.00000000000E+00 0.  1.
    9000005    2    1    2  501    0 -0.41161216582E+02 -0.12071950800E+02 -0.82796165012E+03  0.82907866899E+03  0.33117311857E+01 0.  0.
         13    1    3    3    0    0 -0.74342175789E+01 -0.20805791374E+01 -0.12607073094E+03  0.12630687076E+03  0.00000000000E+00 0.  1.
          1    1    3    3  501    0 -0.33726999003E+02 -0.99913716630E+01 -0.70189091917E+03  0.70277179823E+03  0.00000000000E+00 0.  1.
         -1    1    1    2    0  502  0.41161216582E+02  0.12071950800E+02 -0.16879734182E+03  0.17416233908E+03  0.00000000000E+00 0. -1.
<mgrwt>
<rscale>  1 0.30000000E+03</rscale>
<asrwt>0</asrwt>
<pdfrwt beam="1">  1       21 0.11785509E-01 0.30000000E+03</pdfrwt>
<pdfrwt beam="2">0</pdfrwt>
<totfact> 0.64031165E+03</totfact>
</mgrwt>
</event>
<event>
 6    1  0.1274196E-001  0.3000000E+03  0.7818608E-02  0.1093470E+00
         21   -1    0    0  501  502  0.00000000000E+00  0.00000000000E+00  0.34961514995E+01  0.34961514995E+01  0.00000000000E+00 0. -1.
         13   -1    0    0    0    0 -0.00000000000E+00 -0.00000000000E+00 -0.10000000000E+04  0.10000000000E+04  0.00000000000E+00 0.  1.
    9000005    2    1    2  501    0  0.25117341572E+02  0.27647237570E+02 -0.88709042962E+03  0.88788236848E+03  0.32279005730E+01 0.  0.
         13    1    3    3    0    0  0.19003000235E+02  0.22707187987E+02 -0.68830095281E+03  0.68893753856E+03  0.00000000000E+00 0.  1.
          1    1    3    3  501    0  0.61143413371E+01  0.49400495834E+01 -0.19878947681E+03  0.19894482991E+03  0.00000000000E+00 0.  1.
         -1    1    1    2    0  502 -0.25117341572E+02 -0.27647237570E+02 -0.10941341888E+03  0.11561378302E+03  0.00000000000E+00 0. -1.
<mgrwt>
<rscale>  1 0.30000000E+03</rscale>
<asrwt>0</asrwt>
<pdfrwt beam="1">  1       21 0.12713305E-01 0.30000000E+03</pdfrwt>
<pdfrwt beam="2">0</pdfrwt>
<totfact> 0.55789867E+03</totfact>
</mgrwt>
</event>
<event>
 6    1  0.1274196E-001  0.3000000E+03  0.7818608E-02  0.1093470E+00
         21   -1    0    0  501  502  0.00000000000E+00  0.00000000000E+00  0.14598992915E+01  0.14598992915E+01  0.00000000000E+00 0. -1.
         13   -1    0    0    0    0 -0.00000000000E+00 -0.00000000000E+00 -0.10000000000E+04  0.10000000000E+04  0.00000000000E+00 0.  1.
    9000005    2    1    2  501    0  0.36900192801E+02 -0.93882670620E+01 -0.51212059158E+03  0.51355242584E+03  0.43393525674E+01 0.  0.
         13    1    3    3    0    0  0.20468372321E+02 -0.64221336056E+01 -0.31184451908E+03  0.31258151280E+03  0.00000000000E+00 0.  1.
          1    1    3    3  501    0  0.16431820480E+02 -0.29661334564E+01 -0.20027607250E+03  0.20097091304E+03  0.00000000000E+00 0.  1.
         -3    1    1    2    0  502 -0.36900192801E+02  0.93882670620E+01 -0.48641950913E+03  0.48790747345E+03  0.00000000000E+00 0. -1.
<mgrwt>
<rscale>  1 0.30000000E+03</rscale>
<asrwt>0</asrwt>
<pdfrwt beam="1">  1       21 0.53087359E-02 0.30000000E+03</pdfrwt>
<pdfrwt beam="2">0</pdfrwt>
<totfact> 0.26003511E+04</totfact>
</mgrwt>
</event>
<event>
 6    1  0.1274196E-001  0.3000000E+03  0.7818608E-02  0.1093470E+00
         21   -1    0    0  501  502  0.00000000000E+00  0.00000000000E+00  0.96778307631E+00  0.96778307631E+00  0.00000000000E+00 0. -1.
         13   -1    0    0    0    0 -0.00000000000E+00 -0.00000000000E+00 -0.10000000000E+04  0.10000000000E+04  0.00000000000E+00 0.  1.
    9000005    2    1    2  501    0 -0.13816101689E+02  0.26927334828E+02 -0.60982418446E+03  0.61058481911E+03  0.35098916091E+01 0.  0.
         13    1    3    3    0    0 -0.11715866886E+02  0.23842495357E+02 -0.55349034692E+03  0.55412750361E+03  0.00000000000E+00 0.  1.
          1    1    3    3  501    0 -0.21002348038E+01  0.30848394709E+01 -0.56333837547E+02  0.56457315500E+02  0.00000000000E+00 0.  1.
         -3    1    1    2    0  502  0.13816101689E+02 -0.26927334828E+02 -0.38920803246E+03  0.39038296397E+03  0.00000000000E+00 0. -1.
<mgrwt>
<rscale>  1 0.30000000E+03</rscale>
<asrwt>0</asrwt>
<pdfrwt beam="1">  1       21 0.35192186E-02 0.30000000E+03</pdfrwt>
<pdfrwt beam="2">0</pdfrwt>
<totfact> 0.52136452E+04</totfact>
</mgrwt>
</event>
<event>
 6    1  0.1274196E-001  0.3000000E+03  0.7818608E-02  0.1093470E+00
         21   -1    0    0  501  502  0.00000000000E+00  0.00000000000E+00  0.45848787016E+01  0.45848787016E+01  0.00000000000E+00 0. -1.
         13   -1    0    0    0    0 -0.00000000000E+00 -0.00000000000E+00 -0.10000000000E+04  0.10000000000E+04  0.00000000000E+00 0.  1.
    9000005    2    1    2  501    0  0.48437348655E+02  0.33586078558E+02 -0.74464419401E+03  0.74698002744E+03  0.31597961957E+01 0.  0.
         13    1    3    3    0    0  0.40718269359E+02  0.26891795374E+02 -0.60980247077E+03  0.61175174661E+03  0.00000000000E+00 0.  1.
          1    1    3    3  501    0  0.77190792962E+01  0.66942831835E+01 -0.13484172323E+03  0.13522828083E+03  0.00000000000E+00 0.  1.
         -1    1    1    2    0  502 -0.48437348655E+02 -0.33586078558E+02 -0.25077092729E+03  0.25760485126E+03  0.00000000000E+00 0. -1.
<mgrwt>
<rscale>  1 0.30000000E+03</rscale>
<asrwt>0</asrwt>
<pdfrwt beam="1">  1       21 0.16672321E-01 0.30000000E+03</pdfrwt>
<pdfrwt beam="2">0</pdfrwt>
<totfact> 0.33825065E+03</totfact>
</mgrwt>
</event>
<event>
 6    1  0.1274196E-001  0.3000000E+03  0.7818608E-02  0.1093470E+00
         21   -1    0    0  501  502  0.00000000000E+00  0.00000000000E+00  0.89261804245E+01  0.89261804245E+01  0.00000000000E+00 0. -1.
         13   -1    0    0    0    0 -0.00000000000E+00 -0.00000000000E+00 -0.10000000000E+04  0.10000000000E+04  0.00000000000E+00 0.  1.
    9000005    2    1    2  501    0 -0.71256977768E+02  0.78600003586E+01 -0.16735675594E+03  0.18209540124E+03  0.33339026780E+01 0.  0.
         13    1    3    3    0    0 -0.31164291298E+02  0.30486675782E+01 -0.69037454854E+02  0.75806844011E+02  0.00000000000E+00 0.  1.
          1    1    3    3  501    0 -0.40092686470E+02  0.48113327804E+01 -0.98319301089E+02  0.10628855723E+03  0.00000000000E+00 0.  1.
         -3    1    1    2    0  502  0.71256977768E+02 -0.78600003586E+01 -0.82371706363E+03  0.82683077918E+03  0.00000000000E+00 0. -1.
<mgrwt>
<rscale>  1 0.30000000E+03</rscale>
<asrwt>0</asrwt>
<pdfrwt beam="1">  1       21 0.32458906E-01 0.30000000E+03</pdfrwt>
<pdfrwt beam="2">0</pdfrwt>
<totfact> 0.92783810E+02</totfact>
</mgrwt>
</event>
<event>
 6    1  0.1274196E-001  0.3000000E+03  0.7818608E-02  0.1093470E+00
         21   -1    0    0  501  502  0.00000000000E+00  0.00000000000E+00  0.19172100742E+01  0.19172100742E+01  0.00000000000E+00 0. -1.
         13   -1    0    0    0    0 -0.00000000000E+00 -0.00000000000E+00 -0.10000000000E+04  0.10000000000E+04  0.00000000000E+00 0.  1.
    9000005    2    1    2  501    0 -0.24385564449E+02 -0.19389018541E+02 -0.85052030631E+03  0.85110183829E+03  0.43540685974E+01 0.  0.
         13    1    3    3    0    0 -0.20870906004E+02 -0.14578211520E+02 -0.67149542201E+03  0.67197784245E+03  0.00000000000E+00 0.  1.
          3    1    3    3  501    0 -0.35146584452E+01 -0.48108070208E+01 -0.17902488430E+03  0.17912399584E+03  0.00000000000E+00 0.  1.
         -1    1    1    2    0  502  0.24385564449E+02  0.19389018541E+02 -0.14756248362E+03  0.15081537178E+03  0.00000000000E+00 0. -1.
<mgrwt>
<rscale>  1 0.30000000E+03</rscale>
<asrwt>0</asrwt>
<pdfrwt beam="1">  1       21 0.69716877E-02 0.30000000E+03</pdfrwt>
<pdfrwt beam="2">0</pdfrwt>
<totfact> 0.16249476E+04</totfact>
</mgrwt>
</event>
<event>
 6    1  0.1274196E-001  0.3000000E+03  0.7818608E-02  0.1093470E+00
         21   -1    0    0  501  502  0.00000000000E+00  0.00000000000E+00  0.30552412370E+02  0.30552412370E+02  0.00000000000E+00 0. -1.
         13   -1    0    0    0    0 -0.00000000000E+00 -0.00000000000E+00 -0.10000000000E+04  0.10000000000E+04  0.00000000000E+00 0.  1.
    9000005    2    1    2  501    0  0.28238073904E+02 -0.89125380266E+02 -0.92008586195E+03  0.92482965140E+03  0.33419340853E+01 0.  0.
         13    1    3    3    0    0  0.17183316599E+02 -0.49306818149E+02 -0.50633095463E+03  0.50901617292E+03  0.00000000000E+00 0.  1.
          3    1    3    3  501    0  0.11054757305E+02 -0.39818562117E+02 -0.41375490732E+03  0.41581347847E+03  0.00000000000E+00 0.  1.
         -3    1    1    2    0  502 -0.28238073904E+02  0.89125380266E+02 -0.49361725683E+02  0.10572276097E+03  0.00000000000E+00 0. -1.
<mgrwt>
<rscale>  1 0.30000000E+03</rscale>
<asrwt>0</asrwt>
<pdfrwt beam="1">  1       21 0.11109992E+00 0.30000000E+03</pdfrwt>
<pdfrwt beam="2">0</pdfrwt>
<totfact> 0.55926094E+01</totfact>
</mgrwt>
</event>
<event>
 6    1  0.1274196E-001  0.3000000E+03  0.7818608E-02  0.1093470E+00
         21   -1    0    0  501  502  0.00000000000E+00  0.00000000000E+00  0.11660962980E+02  0.11660962980E+02  0.00000000000E+00 0. -1.
         13   -1    0    0    0    0 -0.00000000000E+00 -0.00000000000E+00 -0.10000000000E+04  0.10000000000E+04  0.00000000000E+00 0.  1.
    9000005    2    1    2  501    0 -0.81489367671E+02 -0.36659168333E+02 -0.77783852195E+03  0.78298022809E+03  0.63921577982E+01 0.  0.
         13    1    3    3    0    0 -0.57429620492E+02 -0.28970260051E+02 -0.55588413222E+03  0.55959325025E+03  0.00000000000E+00 0.  1.
          1    1    3    3  501    0 -0.24059747178E+02 -0.76889082816E+01 -0.22195438973E+03  0.22338697784E+03  0.00000000000E+00 0.  1.
         -3    1    1    2    0  502  0.81489367671E+02  0.36659168333E+02 -0.21050051507E+03  0.22868073489E+03  0.00000000000E+00 0. -1.
<mgrwt>
<rscale>  1 0.30000000E+03</rscale>
<asrwt>0</asrwt>
<pdfrwt beam="1">  1       21 0.42403591E-01 0.30000000E+03</pdfrwt>
<pdfrwt beam="2">0</pdfrwt>
<totfact> 0.53434628E+02</totfact>
</mgrwt>
</event>
<event>
 6    1  0.1274196E-001  0.3000000E+03  0.7818608E-02  0.1093470E+00
         21   -1    0    0  501  502  0.00000000000E+00  0.00000000000E+00  0.16069761315E+01  0.16069761315E+01  0.00000000000E+00 0. -1.
         13   -1    0    0    0    0 -0.00000000000E+00 -0.00000000000E+00 -0.10000000000E+04  0.10000000000E+04  0.00000000000E+00 0.  1.
    9000005    2    1    2  501    0  0.13905286861E+02  0.27673710505E+02 -0.81651572387E+03  0.81711160082E+03  0.37748662870E+01 0.  0.
         13    1    3    3    0    0  0.16695135241E+01  0.15592683047E+01 -0.46607102585E+02  0.46663053955E+02  0.00000000000E+00 0.  1.
          1    1    3    3  501    0  0.12235773337E+02  0.26114442201E+02 -0.76990862128E+03  0.77044854686E+03  0.00000000000E+00 0.  1.
         -1    1    1    2    0  502 -0.13905286861E+02 -0.27673710505E+02 -0.18187730000E+03  0.18449537531E+03  0.00000000000E+00 0. -1.
<mgrwt>
<rscale>  1 0.30000000E+03</rscale>
<asrwt>0</asrwt>
<pdfrwt beam="1">  1       21 0.58435619E-02 0.30000000E+03</pdfrwt>
<pdfrwt beam="2">0</pdfrwt>
<totfact> 0.22053466E+04</totfact>
</mgrwt>
</event>
<event>
 6    1  0.1274196E-001  0.3000000E+03  0.7818608E-02  0.1093470E+00
         21   -1    0    0  501  502  0.00000000000E+00  0.00000000000E+00  0.12094769969E+01  0.12094769969E+01  0.00000000000E+00 0. -1.
         13   -1    0    0    0    0 -0.00000000000E+00 -0.00000000000E+00 -0.10000000000E+04  0.10000000000E+04  0.00000000000E+00 0.  1.
    9000005    2    1    2  501    0 -0.32368455216E+02  0.32407136932E+01 -0.67373883021E+03  0.67453406913E+03  0.37389790191E+01 0.  0.
         13    1    3    3    0    0 -0.31930896122E+02  0.27026103953E+01 -0.65751391192E+03  0.65829433432E+03  0.00000000000E+00 0.  1.
          1    1    3    3  501    0 -0.43755909370E+00  0.53810329785E+00 -0.16224918292E+02  0.16239734810E+02  0.00000000000E+00 0.  1.
         -1    1    1    2    0  502  0.32368455216E+02 -0.32407136932E+01 -0.32505169279E+03  0.32667540786E+03  0.00000000000E+00 0. -1.
<mgrwt>
<rscale>  1 0.30000000E+03</rscale>
<asrwt>0</asrwt>
<pdfrwt beam="1">  1       21 0.43981074E-02 0.30000000E+03</pdfrwt>
<pdfrwt beam="2">0</pdfrwt>
<totfact> 0.35822501E+04</totfact>
</mgrwt>
</event>
<event>
 6    1  0.1274196E-001  0.3000000E+03  0.7818608E-02  0.1093470E+00
         21   -1    0    0  501  502  0.00000000000E+00  0.00000000000E+00  0.13094807966E+01  0.13094807966E+01  0.00000000000E+00 0. -1.
         13   -1    0    0    0    0 -0.00000000000E+00 -0.00000000000E+00 -0.10000000000E+04  0.10000000000E+04  0.00000000000E+00 0.  1.
    9000005    2    1    2  501    0 -0.13783648653E+02 -0.31364380654E+02 -0.65829505996E+03  0.65919432179E+03  0.33248424417E+01 0.  0.
         13    1    3    3    0    0 -0.13448653100E+02 -0.28871490378E+02 -0.59946632301E+03  0.60031183701E+03  0.00000000000E+00 0.  1.
          1    1    3    3  501    0 -0.33499555291E+00 -0.24928902762E+01 -0.58828736943E+02  0.58882484784E+02  0.00000000000E+00 0.  1.
         -3    1    1    2    0  502  0.13783648653E+02  0.31364380654E+02 -0.34039545925E+03  0.34211515900E+03  0.00000000000E+00 0. -1.
<mgrwt>
<rscale>  1 0.30000000E+03</rscale>
<asrwt>0</asrwt>
<pdfrwt beam="1">  1       21 0.47617584E-02 0.30000000E+03</pdfrwt>
<pdfrwt beam="2">0</pdfrwt>
<totfact> 0.31301634E+04</totfact>
</mgrwt>
</event>
<event>
 6    1  0.1274196E-001  0.3000000E+03  0.7818608E-02  0.1093470E+00
         21   -1    0    0  501  502  0.00000000000E+00  0.00000000000E+00  0.15876938428E+01  0.15876938428E+01  0.00000000000E+00 0. -1.
         13   -1    0    0    0    0 -0.00000000000E+00 -0.00000000000E+00 -0.10000000000E+04  0.10000000000E+04  0.00000000000E+00 0.  1.
    9000005    2    1    2  501    0  0.65163613044E+01  0.38528231024E+02 -0.40617307008E+03  0.40806077760E+03  0.31855627721E+01 0.  0.
         13    1    3    3    0    0  0.53531928009E+01  0.23074265483E+02 -0.23907111043E+03  0.24024169964E+03  0.00000000000E+00 0.  1.
          3    1    3    3  501    0  0.11631685035E+01  0.15453965541E+02 -0.16710195965E+03  0.16781907797E+03  0.00000000000E+00 0.  1.
         -1    1    1    2    0  502 -0.65163613044E+01 -0.38528231024E+02 -0.59223923608E+03  0.59352691624E+03  0.00000000000E+00 0. -1.
<mgrwt>
<rscale>  1 0.30000000E+03</rscale>
<asrwt>0</asrwt>
<pdfrwt beam="1">  1       21 0.57734443E-02 0.30000000E+03</pdfrwt>
<pdfrwt beam="2">0</pdfrwt>
<totfact> 0.22516787E+04</totfact>
</mgrwt>
</event>
<event>
 6    1  0.1274196E-001  0.3000000E+03  0.7818608E-02  0.1093470E+00
         21   -1    0    0  501  502  0.00000000000E+00  0.00000000000E+00  0.21756114456E+01  0.21756114456E+01  0.00000000000E+00 0. -1.
         13   -1    0    0    0    0 -0.00000000000E+00 -0.00000000000E+00 -0.10000000000E+04  0.10000000000E+04  0.00000000000E+00 0.  1.
    9000005    2    1    2  501    0  0.34183392852E+02 -0.12407579807E+02 -0.80866635778E+03  0.80955366827E+03  0.10649470999E+02 0.  0.
         13    1    3    3    0    0  0.10795797296E+02 -0.82698809180E+01 -0.23179601962E+03  0.23219460562E+03  0.00000000000E+00 0.  1.
          3    1    3    3  501    0  0.23387595556E+02 -0.41376988886E+01 -0.57687033816E+03  0.57735906265E+03  0.00000000000E+00 0.  1.
         -3    1    1    2    0  502 -0.34183392852E+02  0.12407579807E+02 -0.18915803078E+03  0.19262194317E+03  0.00000000000E+00 0. -1.
<mgrwt>
<rscale>  1 0.30000000E+03</rscale>
<asrwt>0</asrwt>
<pdfrwt beam="1">  1       21 0.79113310E-02 0.30000000E+03</pdfrwt>
<pdfrwt beam="2">0</pdfrwt>
<totfact> 0.13026322E+04</totfact>
</mgrwt>
</event>
<event>
 6    1  0.1274196E-001  0.3000000E+03  0.7818608E-02  0.1093470E+00
         21   -1    0    0  501  502  0.00000000000E+00  0.00000000000E+00  0.18803717830E+01  0.18803717830E+01  0.00000000000E+00 0. -1.
         13   -1    0    0    0    0 -0.00000000000E+00 -0.00000000000E+00 -0.10000000000E+04  0.10000000000E+04  0.00000000000E+00 0.  1.
    9000005    2    1    2  501    0  0.26058637514E+02  0.17338050665E+02 -0.84540375073E+03  0.84599002626E+03  0.34586409222E+01 0.  0.
         13    1    3    3    0    0  0.20269406980E+02  0.14468193903E+02 -0.63873053730E+03  0.63921582957E+03  0.00000000000E+00 0.  1.
          1    1    3    3  501    0  0.57892305336E+01  0.28698567624E+01 -0.20667321343E+03  0.20677419669E+03  0.00000000000E+00 0.  1.
         -3    1    1    2    0  502 -0.26058637514E+02 -0.17338050665E+02 -0.15271587749E+03  0.15589034552E+03  0.00000000000E+00 0. -1.
<mgrwt>
<rscale>  1 0.30000000E+03</rscale>
<asrwt>0</asrwt>
<pdfrwt beam="1">  1       21 0.68377300E-02 0.30000000E+03</pdfrwt>
<pdfrwt beam="2">0</pdfrwt>
<totfact> 0.16806899E+04</totfact>
</mgrwt>
</event>
<event>
 6    1  0.1274196E-001  0.3000000E+03  0.7818608E-02  0.1093470E+00
         21   -1    0    0  501  502  0.00000000000E+00  0.00000000000E+00  0.11852752898E+01  0.11852752898E+01  0.00000000000E+00 0. -1.
         13   -1    0    0    0    0 -0.00000000000E+00 -0.00000000000E+00 -0.10000000000E+04  0.10000000000E+04  0.00000000000E+00 0.  1.
    9000005    2    1    2  501    0 -0.29962094106E+02 -0.15848754729E+02 -0.58175640773E+03  0.58275182793E+03  0.32038894345E+01 0.  0.
         13    1    3    3    0    0 -0.20776411185E+02 -0.95417822214E+01 -0.40438327078E+03  0.40502905396E+03  0.00000000000E+00 0.  1.
          1    1    3    3  501    0 -0.91856829212E+01 -0.63069725076E+01 -0.17737313695E+03  0.17772277396E+03  0.00000000000E+00 0.  1.
         -1    1    1    2    0  502  0.29962094106E+02  0.15848754729E+02 -0.41705831698E+03  0.41843344736E+03  0.00000000000E+00 0. -1.
<mgrwt>
<rscale>  1 0.30000000E+03</rscale>
<asrwt>0</asrwt>
<pdfrwt beam="1">  1       21 0.43101011E-02 0.30000000E+03</pdfrwt>
<pdfrwt beam="2">0</pdfrwt>
<totfact> 0.37069344E+04</totfact>
</mgrwt>
</event>
<event>
 6    1  0.1274196E-001  0.3000000E+03  0.7818608E-02  0.1093470E+00
         21   -1    0    0  501  502  0.00000000000E+00  0.00000000000E+00  0.97644730586E+00  0.97644730586E+00  0.00000000000E+00 0. -1.
         13   -1    0    0    0    0 -0.00000000000E+00 -0.00000000000E+00 -0.10000000000E+04  0.10000000000E+04  0.00000000000E+00 0.  1.
    9000005    2    1    2  501    0 -0.12909421461E+02 -0.28276425775E+02 -0.46451496742E+03  0.46556479526E+03  0.31959676358E+01 0.  0.
         13    1    3    3    0    0 -0.27786724212E+01 -0.84049663378E+01 -0.11657508892E+03  0.11691071737E+03  0.00000000000E+00 0.  1.
          3    1    3    3  501    0 -0.10130749040E+02 -0.19871459438E+02 -0.34793987850E+03  0.34865407789E+03  0.00000000000E+00 0.  1.
         -3    1    1    2    0  502  0.12909421461E+02  0.28276425775E+02 -0.53450858527E+03  0.53541165205E+03  0.00000000000E+00 0. -1.
<mgrwt>
<rscale>  1 0.30000000E+03</rscale>
<asrwt>0</asrwt>
<pdfrwt beam="1">  1       21 0.35507250E-02 0.30000000E+03</pdfrwt>
<pdfrwt beam="2">0</pdfrwt>
<totfact> 0.51363567E+04</totfact>
</mgrwt>
</event>
<event>
 6    1  0.1274196E-001  0.3000000E+03  0.7818608E-02  0.1093470E+00
         21   -1    0    0  501  502  0.00000000000E+00  0.00000000000E+00  0.12216239296E+01  0.12216239296E+01  0.00000000000E+00 0. -1.
         13   -1    0    0    0    0 -0.00000000000E+00 -0.00000000000E+00 -0.10000000000E+04  0.10000000000E+04  0.00000000000E+00 0.  1.
    9000005    2    1    2  501    0 -0.16568071206E+02  0.30618166633E+02 -0.52591735203E+03  0.52708079973E+03  0.36242477392E+01 0.  0.
         13    1    3    3    0    0 -0.81004719493E+01  0.18034690592E+02 -0.28169064278E+03  0.28238357945E+03  0.00000000000E+00 0.  1.
          3    1    3    3  501    0 -0.84675992568E+01  0.12583476041E+02 -0.24422670925E+03  0.24469722029E+03  0.00000000000E+00 0.  1.
         -3    1    1    2    0  502  0.16568071206E+02 -0.30618166633E+02 -0.47286102404E+03  0.47414082420E+03  0.00000000000E+00 0. -1.
<mgrwt>
<rscale>  1 0.30000000E+03</rscale>
<asrwt>0</asrwt>
<pdfrwt beam="1">  1       21 0.44422782E-02 0.30000000E+03</pdfrwt>
<pdfrwt beam="2">0</pdfrwt>
<totfact> 0.35221003E+04</totfact>
</mgrwt>
</event>
<event>
 6    1  0.1274196E-001  0.3000000E+03  0.7818608E-02  0.1093470E+00
         21   -1    0    0  501  502  0.00000000000E+00  0.00000000000E+00  0.14091045684E+01  0.14091045684E+01  0.00000000000E+00 0. -1.
         13   -1    0    0    0    0 -0.00000000000E+00 -0.00000000000E+00 -0.10000000000E+04  0.10000000000E+04  0.00000000000E+00 0.  1.
    9000005    2    1    2  501    0  0.16180743337E+02 -0.25883773245E+02 -0.78977286604E+03  0.79037177239E+03  0.38173933238E+01 0.  0.
         13    1    3    3    0    0  0.39720169357E+01 -0.45678341683E+01 -0.18899801913E+03  0.18909493188E+03  0.00000000000E+00 0.  1.
          1    1    3    3  501    0  0.12208726401E+02 -0.21315939076E+02 -0.60077484691E+03  0.60127684051E+03  0.00000000000E+00 0.  1.
         -3    1    1    2    0  502 -0.16180743337E+02  0.25883773245E+02 -0.20881802939E+03  0.21103733217E+03  0.00000000000E+00 0. -1.
<mgrwt>
<rscale>  1 0.30000000E+03</rscale>
<asrwt>0</asrwt>
<pdfrwt beam="1">  1       21 0.51240274E-02 0.30000000E+03</pdfrwt>
<pdfrwt beam="2">0</pdfrwt>
<totfact> 0.27625527E+04</totfact>
</mgrwt>
</event>
<event>
 6    1  0.1274196E-001  0.3000000E+03  0.7818608E-02  0.1093470E+00
         21   -1    0    0  501  502  0.00000000000E+00  0.00000000000E+00  0.23154428522E+01  0.23154428522E+01  0.00000000000E+00 0. -1.
         13   -1    0    0    0    0 -0.00000000000E+00 -0.00000000000E+00 -0.10000000000E+04  0.10000000000E+04  0.00000000000E+00 0.  1.
    9000005    2    1    2  501    0  0.15457235135E+02 -0.40846504902E+02 -0.70815070778E+03  0.70950626778E+03  0.37889311661E+01 0.  0.
         13    1    3    3    0    0  0.89515521792E+01 -0.28499881664E+02 -0.48932295645E+03  0.49023395359E+03  0.00000000000E+00 0.  1.
          1    1    3    3  501    0  0.65056829555E+01 -0.12346623238E+02 -0.21882775133E+03  0.21927231418E+03  0.00000000000E+00 0.  1.
         -1    1    1    2    0  502 -0.15457235135E+02  0.40846504902E+02 -0.28953384936E+03  0.29280917508E+03  0.00000000000E+00 0. -1.
<mgrwt>
<rscale>  1 0.30000000E+03</rscale>
<asrwt>0</asrwt>
<pdfrwt beam="1">  1       21 0.84198099E-02 0.30000000E+03</pdfrwt>
<pdfrwt beam="2">0</pdfrwt>
<totfact> 0.11674715E+04</totfact>
</mgrwt>
</event>
<event>
 6    1  0.1274196E-001  0.3000000E+03  0.7818608E-02  0.1093470E+00
         21   -1    0    0  501  502  0.00000000000E+00  0.00000000000E+00  0.16958495964E+01  0.16958495964E+01  0.00000000000E+00 0. -1.
         13   -1    0    0    0    0 -0.00000000000E+00 -0.00000000000E+00 -0.10000000000E+04  0.10000000000E+04  0.00000000000E+00 0.  1.
    9000005    2    1    2  501    0  0.33532577605E+02 -0.73063860334E+01 -0.77458458756E+03  0.77535924223E+03  0.47806045156E+01 0.  0.
         13    1    3    3    0    0  0.34893535036E+01  0.21452939192E+00 -0.57501786596E+02  0.57607960148E+02  0.00000000000E+00 0.  1.
          3    1    3    3  501    0  0.30043224101E+02 -0.75209154253E+01 -0.71708280097E+03  0.71775128208E+03  0.00000000000E+00 0.  1.
         -3    1    1    2    0  502 -0.33532577605E+02  0.73063860334E+01 -0.22371956284E+03  0.22633660737E+03  0.00000000000E+00 0. -1.
<mgrwt>
<rscale>  1 0.30000000E+03</rscale>
<asrwt>0</asrwt>
<pdfrwt beam="1">  1       21 0.61667388E-02 0.30000000E+03</pdfrwt>
<pdfrwt beam="2">0</pdfrwt>
<totfact> 0.20098170E+04</totfact>
</mgrwt>
</event>
<event>
 6    1  0.1274196E-001  0.3000000E+03  0.7818608E-02  0.1093470E+00
         21   -1    0    0  501  502  0.00000000000E+00  0.00000000000E+00  0.21099446107E+01  0.21099446107E+01  0.00000000000E+00 0. -1.
         13   -1    0    0    0    0 -0.00000000000E+00 -0.00000000000E+00 -0.10000000000E+04  0.10000000000E+04  0.00000000000E+00 0.  1.
    9000005    2    1    2  501    0 -0.31522327298E+02 -0.11021346850E+02 -0.84272374946E+03  0.84339098009E+03  0.31464548818E+01 0.  0.
         13    1    3    3    0    0 -0.19562421327E+02 -0.83405174915E+01 -0.52098556404E+03  0.52141941899E+03  0.00000000000E+00 0.  1.
          3    1    3    3  501    0 -0.11959905971E+02 -0.26808293588E+01 -0.32173818543E+03  0.32197156110E+03  0.00000000000E+00 0.  1.
         -1    1    1    2    0  502  0.31522327298E+02  0.11021346850E+02 -0.15516630593E+03  0.15871896452E+03  0.00000000000E+00 0. -1.
<mgrwt>
<rscale>  1 0.30000000E+03</rscale>
<asrwt>0</asrwt>
<pdfrwt beam="1">  1       21 0.76725420E-02 0.30000000E+03</pdfrwt>
<pdfrwt beam="2">0</pdfrwt>
<totfact> 0.13745730E+04</totfact>
</mgrwt>
</event>
<event>
 6    1  0.1274196E-001  0.3000000E+03  0.7818608E-02  0.1093470E+00
         21   -1    0    0  501  502  0.00000000000E+00  0.00000000000E+00  0.15684239290E+01  0.15684239290E+01  0.00000000000E+00 0. -1.
         13   -1    0    0    0    0 -0.00000000000E+00 -0.00000000000E+00 -0.10000000000E+04  0.10000000000E+04  0.00000000000E+00 0.  1.
    9000005    2    1    2  501    0 -0.37563881585E+02  0.11715110408E+02 -0.54851421678E+03  0.54993370515E+03  0.33083293233E+01 0.  0.
         13    1    3    3    0    0 -0.16769113407E+02  0.37097359808E+01 -0.22816057333E+03  0.22880605877E+03  0.00000000000E+00 0.  1.
          1    1    3    3  501    0 -0.20794768178E+02  0.80053744272E+01 -0.32035364344E+03  0.32112764638E+03  0.00000000000E+00 0.  1.
         -3    1    1    2    0  502  0.37563881585E+02 -0.11715110408E+02 -0.44991735929E+03  0.45163471878E+03  0.00000000000E+00 0. -1.
<mgrwt>
<rscale>  1 0.30000000E+03</rscale>
<asrwt>0</asrwt>
<pdfrwt beam="1">  1       21 0.57033718E-02 0.30000000E+03</pdfrwt>
<pdfrwt beam="2">0</pdfrwt>
<totfact> 0.22994865E+04</totfact>
</mgrwt>
</event>
<event>
 6    1  0.1274196E-001  0.3000000E+03  0.7818608E-02  0.1093470E+00
         21   -1    0    0  501  502  0.00000000000E+00  0.00000000000E+00  0.12682944770E+01  0.12682944770E+01  0.00000000000E+00 0. -1.
         13   -1    0    0    0    0 -0.00000000000E+00 -0.00000000000E+00 -0.10000000000E+04  0.10000000000E+04  0.00000000000E+00 0.  1.
    9000005    2    1    2  501    0 -0.21027548069E+02 -0.27418936131E+02 -0.61699843814E+03  0.61797435601E+03  0.33580032888E+01 0.  0.
         13    1    3    3    0    0 -0.12602319993E+02 -0.14745946897E+02 -0.36890453225E+03  0.36941415151E+03  0.00000000000E+00 0.  1.
          3    1    3    3  501    0 -0.84252280757E+01 -0.12672989234E+02 -0.24809390589E+03  0.24856020450E+03  0.00000000000E+00 0.  1.
         -3    1    1    2    0  502  0.21027548069E+02  0.27418936131E+02 -0.38173326739E+03  0.38329393847E+03  0.00000000000E+00 0. -1.
<mgrwt>
<rscale>  1 0.30000000E+03</rscale>
<asrwt>0</asrwt>
<pdfrwt beam="1">  1       21 0.46119896E-02 0.30000000E+03</pdfrwt>
<pdfrwt beam="2">0</pdfrwt>
<totfact> 0.33049294E+04</totfact>
</mgrwt>
</event>
<event>
 6    1  0.1274196E-001  0.3000000E+03  0.7818608E-02  0.1093470E+00
         21   -1    0    0  501  502  0.00000000000E+00  0.00000000000E+00  0.22929026860E+01  0.22929026860E+01  0.00000000000E+00 0. -1.
         13   -1    0    0    0    0 -0.00000000000E+00 -0.00000000000E+00 -0.10000000000E+04  0.10000000000E+04  0.00000000000E+00 0.  1.
    9000005    2    1    2  501    0 -0.45139513274E+02 -0.10781334761E+02 -0.62064578410E+03  0.62238627368E+03  0.31099051319E+01 0.  0.
         13    1    3    3    0    0 -0.94628770279E+01 -0.34678039549E+01 -0.14147156022E+03  0.14183008869E+03  0.00000000000E+00 0.  1.
          3    1    3    3  501    0 -0.35676636246E+02 -0.73135308056E+01 -0.47917422388E+03  0.48055618499E+03  0.00000000000E+00 0.  1.
         -3    1    1    2    0  502  0.45139513274E+02  0.10781334761E+02 -0.37706131321E+03  0.37990662900E+03  0.00000000000E+00 0. -1.
<mgrwt>
<rscale>  1 0.30000000E+03</rscale>
<asrwt>0</asrwt>
<pdfrwt beam="1">  1       21 0.83378455E-02 0.30000000E+03</pdfrwt>
<pdfrwt beam="2">0</pdfrwt>
<totfact> 0.11877642E+04</totfact>
</mgrwt>
</event>
<event>
 6    1  0.1274196E-001  0.3000000E+03  0.7818608E-02  0.1093470E+00
         21   -1    0    0  501  502  0.00000000000E+00  0.00000000000E+00  0.16084865223E+01  0.16084865223E+01  0.00000000000E+00 0. -1.
         13   -1    0    0    0    0 -0.00000000000E+00 -0.00000000000E+00 -0.10000000000E+04  0.10000000000E+04  0.00000000000E+00 0.  1.
    9000005    2    1    2  501    0  0.23826216943E+02  0.22972876403E+02 -0.78156738855E+03  0.78227280129E+03  0.27768930535E+01 0.  0.
         13    1    3    3    0    0  0.14297373537E+02  0.11995624021E+02 -0.42782942729E+03  0.42823630012E+03  0.00000000000E+00 0.  1.
          3    1    3    3  501    0  0.95288434057E+01  0.10977252382E+02 -0.35373796126E+03  0.35403650117E+03  0.00000000000E+00 0.  1.
         -3    1    1    2    0  502 -0.23826216943E+02 -0.22972876403E+02 -0.21682412493E+03  0.21933568523E+03  0.00000000000E+00 0. -1.
<mgrwt>
<rscale>  1 0.30000000E+03</rscale>
<asrwt>0</asrwt>
<pdfrwt beam="1">  1       21 0.58490542E-02 0.30000000E+03</pdfrwt>
<pdfrwt beam="2">0</pdfrwt>
<totfact> 0.22017797E+04</totfact>
</mgrwt>
</event>
<event>
 6    1  0.1274196E-001  0.3000000E+03  0.7818608E-02  0.1093470E+00
         21   -1    0    0  501  502  0.00000000000E+00  0.00000000000E+00  0.35484471395E+02  0.35484471395E+02  0.00000000000E+00 0. -1.
         13   -1    0    0    0    0 -0.00000000000E+00 -0.00000000000E+00 -0.10000000000E+04  0.10000000000E+04  0.00000000000E+00 0.  1.
    9000005    2    1    2  501    0  0.24714360425E+01  0.39106186032E+02 -0.98866716617E+03  0.98945509622E+03  0.48187316057E+01 0.  0.
         13    1    3    3    0    0  0.25861334929E+01  0.19046016598E+02 -0.43438507841E+03  0.43481011393E+03  0.00000000000E+00 0.  1.
          3    1    3    3  501    0 -0.11469745034E+00  0.20060169434E+02 -0.55428208777E+03  0.55464498229E+03  0.00000000000E+00 0.  1.
         -1    1    1    2    0  502 -0.24714360425E+01 -0.39106186032E+02  0.24151637569E+02  0.46029375179E+02  0.00000000000E+00 0. -1.
<mgrwt>
<rscale>  1 0.30000000E+03</rscale>
<asrwt>0</asrwt>
<pdfrwt beam="1">  1       21 0.12903471E+00 0.30000000E+03</pdfrwt>
<pdfrwt beam="2">0</pdfrwt>
<totfact> 0.37093330E+01</totfact>
</mgrwt>
</event>
<event>
 6    1  0.1274196E-001  0.3000000E+03  0.7818608E-02  0.1093470E+00
         21   -1    0    0  501  502  0.00000000000E+00  0.00000000000E+00  0.16902891035E+01  0.16902891035E+01  0.00000000000E+00 0. -1.
         13   -1    0    0    0    0 -0.00000000000E+00 -0.00000000000E+00 -0.10000000000E+04  0.10000000000E+04  0.00000000000E+00 0.  1.
    9000005    2    1    2  501    0  0.10951795777E+02  0.33304504664E+02 -0.75894472109E+03  0.75977143865E+03  0.51397908706E+01 0.  0.
         13    1    3    3    0    0  0.81527033408E+01  0.25835105082E+02 -0.53619348283E+03  0.53687742573E+03  0.00000000000E+00 0.  1.
          1    1    3    3  501    0  0.27990924360E+01  0.74693995824E+01 -0.22275123826E+03  0.22289401292E+03  0.00000000000E+00 0.  1.
         -3    1    1    2    0  502 -0.10951795777E+02 -0.33304504664E+02 -0.23936498980E+03  0.24191885046E+03  0.00000000000E+00 0. -1.
<mgrwt>
<rscale>  1 0.30000000E+03</rscale>
<asrwt>0</asrwt>
<pdfrwt beam="1">  1       21 0.61465188E-02 0.30000000E+03</pdfrwt>
<pdfrwt beam="2">0</pdfrwt>
<totfact> 0.20212458E+04</totfact>
</mgrwt>
</event>
<event>
 6    1  0.1274196E-001  0.3000000E+03  0.7818608E-02  0.1093470E+00
         21   -1    0    0  501  502  0.00000000000E+00  0.00000000000E+00  0.12512954697E+01  0.12512954697E+01  0.00000000000E+00 0. -1.
         13   -1    0    0    0    0 -0.00000000000E+00 -0.00000000000E+00 -0.10000000000E+04  0.10000000000E+04  0.00000000000E+00 0.  1.
    9000005    2    1    2  501    0 -0.31175626250E+02  0.16478822992E+02 -0.48609695317E+03  0.48738819166E+03  0.36783438881E+01 0.  0.
         13    1    3    3    0    0 -0.29054682496E+02  0.16043564674E+02 -0.46395221852E+03  0.46513786302E+03  0.00000000000E+00 0.  1.
          3    1    3    3  501    0 -0.21209437545E+01  0.43525831820E+00 -0.22144734643E+02  0.22250328640E+02  0.00000000000E+00 0.  1.
         -1    1    1    2    0  502  0.31175626250E+02 -0.16478822992E+02 -0.51265175136E+03  0.51386310381E+03  0.00000000000E+00 0. -1.
<mgrwt>
<rscale>  1 0.30000000E+03</rscale>
<asrwt>0</asrwt>
<pdfrwt beam="1">  1       21 0.45501749E-02 0.30000000E+03</pdfrwt>
<pdfrwt beam="2">0</pdfrwt>
<totfact> 0.33815608E+04</totfact>
</mgrwt>
</event>
<event>
 6    1  0.1274196E-001  0.3000000E+03  0.7818608E-02  0.1093470E+00
         21   -1    0    0  501  502  0.00000000000E+00  0.00000000000E+00  0.14794869827E+01  0.14794869827E+01  0.00000000000E+00 0. -1.
         13   -1    0    0    0    0 -0.00000000000E+00 -0.00000000000E+00 -0.10000000000E+04  0.10000000000E+04  0.00000000000E+00 0.  1.
    9000005    2    1    2  501    0 -0.23089105133E+02 -0.28553736718E+02 -0.64580958267E+03  0.64686219603E+03  0.35015607205E+01 0.  0.
         13    1    3    3    0    0 -0.71448614915E+01 -0.99812068789E+01 -0.19040193278E+03  0.19079719480E+03  0.00000000000E+00 0.  1.
          1    1    3    3  501    0 -0.15944243641E+02 -0.18572529839E+02 -0.45540764989E+03  0.45606500123E+03  0.00000000000E+00 0.  1.
         -1    1    1    2    0  502  0.23089105133E+02  0.28553736718E+02 -0.35271093035E+03  0.35461729095E+03  0.00000000000E+00 0. -1.
<mgrwt>
<rscale>  1 0.30000000E+03</rscale>
<asrwt>0</asrwt>
<pdfrwt beam="1">  1       21 0.53799640E-02 0.30000000E+03</pdfrwt>
<pdfrwt beam="2">0</pdfrwt>
<totfact> 0.25417152E+04</totfact>
</mgrwt>
</event>
<event>
 6    1  0.1274196E-001  0.3000000E+03  0.7818608E-02  0.1093470E+00
         21   -1    0    0  501  502  0.00000000000E+00  0.00000000000E+00  0.20996197453E+01  0.20996197453E+01  0.00000000000E+00 0. -1.
         13   -1    0    0    0    0 -0.00000000000E+00 -0.00000000000E+00 -0.10000000000E+04  0.10000000000E+04  0.00000000000E+00 0.  1.
    9000005    2    1    2  501    0  0.84139700624E+01 -0.44344537663E+02 -0.54030998453E+03  0.54228856815E+03  0.10236153917E+02 0.  0.
         13    1    3    3    0    0 -0.10010568151E+01 -0.21787186416E+02 -0.26426975400E+03  0.26516822300E+03  0.00000000000E+00 0.  1.
          3    1    3    3  501    0  0.94150268774E+01 -0.22557351247E+02 -0.27604023053E+03  0.27712034515E+03  0.00000000000E+00 0.  1.
         -1    1    1    2    0  502 -0.84139700624E+01  0.44344537663E+02 -0.45759039572E+03  0.45981105160E+03  0.00000000000E+00 0. -1.
<mgrwt>
<rscale>  1 0.30000000E+03</rscale>
<asrwt>0</asrwt>
<pdfrwt beam="1">  1       21 0.76349970E-02 0.30000000E+03</pdfrwt>
<pdfrwt beam="2">0</pdfrwt>
<totfact> 0.13864405E+04</totfact>
</mgrwt>
</event>
<event>
 6    1  0.1274196E-001  0.3000000E+03  0.7818608E-02  0.1093470E+00
         21   -1    0    0  501  502  0.00000000000E+00  0.00000000000E+00  0.13140286065E+01  0.13140286065E+01  0.00000000000E+00 0. -1.
         13   -1    0    0    0    0 -0.00000000000E+00 -0.00000000000E+00 -0.10000000000E+04  0.10000000000E+04  0.00000000000E+00 0.  1.
    9000005    2    1    2  501    0 -0.18813754064E+02  0.30012682247E+02 -0.60257824951E+03  0.60362565089E+03  0.29429896749E+01 0.  0.
         13    1    3    3    0    0 -0.65358106406E+00  0.12144952039E+01 -0.35037376901E+02  0.35064511217E+02  0.00000000000E+00 0.  1.
          1    1    3    3  501    0 -0.18160173000E+02  0.28798187043E+02 -0.56754087261E+03  0.56856113967E+03  0.00000000000E+00 0.  1.
         -3    1    1    2    0  502  0.18813754064E+02 -0.30012682247E+02 -0.39610772188E+03  0.39768837772E+03  0.00000000000E+00 0. -1.
<mgrwt>
<rscale>  1 0.30000000E+03</rscale>
<asrwt>0</asrwt>
<pdfrwt beam="1">  1       21 0.47782959E-02 0.30000000E+03</pdfrwt>
<pdfrwt beam="2">0</pdfrwt>
<totfact> 0.31117562E+04</totfact>
</mgrwt>
</event>
<event>
 6    1  0.1274196E-001  0.3000000E+03  0.7818608E-02  0.1093470E+00
         21   -1    0    0  501  502  0.00000000000E+00  0.00000000000E+00  0.16987634309E+01  0.16987634309E+01  0.00000000000E+00 0. -1.
         13   -1    0    0    0    0 -0.00000000000E+00 -0.00000000000E+00 -0.10000000000E+04  0.10000000000E+04  0.00000000000E+00 0.  1.
    9000005    2    1    2  501    0 -0.36791583040E+02  0.12629776057E+02 -0.34670986466E+03  0.34894731933E+03  0.65855592859E+01 0.  0.
         13    1    3    3    0    0 -0.41694739496E+01  0.29350559876E+01 -0.62367027462E+02  0.62575116310E+02  0.00000000000E+00 0.  1.
          3    1    3    3  501    0 -0.32622109091E+02  0.96947200692E+01 -0.28434283720E+03  0.28637220302E+03  0.00000000000E+00 0.  1.
         -1    1    1    2    0  502  0.36791583040E+02 -0.12629776057E+02 -0.65159137191E+03  0.65275144410E+03  0.00000000000E+00 0. -1.
<mgrwt>
<rscale>  1 0.30000000E+03</rscale>
<asrwt>0</asrwt>
<pdfrwt beam="1">  1       21 0.61773346E-02 0.30000000E+03</pdfrwt>
<pdfrwt beam="2">0</pdfrwt>
<totfact> 0.20038680E+04</totfact>
</mgrwt>
</event>
<event>
 6    1  0.1274196E-001  0.3000000E+03  0.7818608E-02  0.1093470E+00
         21   -1    0    0  501  502  0.00000000000E+00  0.00000000000E+00  0.73546585984E+01  0.73546585984E+01  0.00000000000E+00 0. -1.
         13   -1    0    0    0    0 -0.00000000000E+00 -0.00000000000E+00 -0.10000000000E+04  0.10000000000E+04  0.00000000000E+00 0.  1.
    9000005    2    1    2  501    0  0.15645343610E+02 -0.39664882824E+02 -0.93329400343E+03  0.93427483221E+03  0.36993990941E+01 0.  0.
         13    1    3    3    0    0 -0.19267387925E+00 -0.83213077345E+00 -0.21071330978E+02  0.21088635661E+02  0.00000000000E+00 0.  1.
          1    1    3    3  501    0  0.15838017489E+02 -0.38832752051E+02 -0.91222267245E+03  0.91318619655E+03  0.00000000000E+00 0.  1.
         -1    1    1    2    0  502 -0.15645343610E+02  0.39664882824E+02 -0.59351337970E+02  0.73079826388E+02  0.00000000000E+00 0. -1.
<mgrwt>
<rscale>  1 0.30000000E+03</rscale>
<asrwt>0</asrwt>
<pdfrwt beam="1">  1       21 0.26744269E-01 0.30000000E+03</pdfrwt>
<pdfrwt beam="2">0</pdfrwt>
<totfact> 0.13658988E+03</totfact>
</mgrwt>
</event>
<event>
 6    1  0.1274196E-001  0.3000000E+03  0.7818608E-02  0.1093470E+00
         21   -1    0    0  501  502  0.00000000000E+00  0.00000000000E+00  0.18527676899E+01  0.18527676899E+01  0.00000000000E+00 0. -1.
         13   -1    0    0    0    0 -0.00000000000E+00 -0.00000000000E+00 -0.10000000000E+04  0.10000000000E+04  0.00000000000E+00 0.  1.
    9000005    2    1    2  501    0  0.31683958904E+02  0.16069345591E+01 -0.83728339687E+03  0.83789048836E+03  0.32447372203E+01 0.  0.
         13    1    3    3    0    0  0.17579766368E+02  0.19412394925E+01 -0.43329987940E+03  0.43366069926E+03  0.00000000000E+00 0.  1.
          1    1    3    3  501    0  0.14104192537E+02 -0.33430493338E+00 -0.40398351747E+03  0.40422978909E+03  0.00000000000E+00 0.  1.
         -1    1    1    2    0  502 -0.31683958904E+02 -0.16069345591E+01 -0.16086383544E+03  0.16396227933E+03  0.00000000000E+00 0. -1.
<mgrwt>
<rscale>  1 0.30000000E+03</rscale>
<asrwt>0</asrwt>
<pdfrwt beam="1">  1       21 0.67373513E-02 0.30000000E+03</pdfrwt>
<pdfrwt beam="2">0</pdfrwt>
<totfact> 0.17244046E+04</totfact>
</mgrwt>
</event>
<event>
 6    1  0.1274196E-001  0.3000000E+03  0.7818608E-02  0.1093470E+00
         21   -1    0    0  501  502  0.00000000000E+00  0.00000000000E+00  0.18709420819E+01  0.18709420819E+01  0.00000000000E+00 0. -1.
         13   -1    0    0    0    0 -0.00000000000E+00 -0.00000000000E+00 -0.10000000000E+04  0.10000000000E+04  0.00000000000E+00 0.  1.
    9000005    2    1    2  501    0 -0.23257078356E+02 -0.30249156513E+02 -0.73416810363E+03  0.73516644539E+03  0.33158537462E+01 0.  0.
         13    1    3    3    0    0 -0.75720133794E+01 -0.74462411221E+01 -0.20814744130E+03  0.20841818350E+03  0.00000000000E+00 0.  1.
          3    1    3    3  501    0 -0.15685064977E+02 -0.22802915391E+02 -0.52602066232E+03  0.52674826189E+03  0.00000000000E+00 0.  1.
         -3    1    1    2    0  502  0.23257078356E+02  0.30249156513E+02 -0.26396095429E+03  0.26670449669E+03  0.00000000000E+00 0. -1.
<mgrwt>
<rscale>  1 0.30000000E+03</rscale>
<asrwt>0</asrwt>
<pdfrwt beam="1">  1       21 0.68034401E-02 0.30000000E+03</pdfrwt>
<pdfrwt beam="2">0</pdfrwt>
<totfact> 0.16954299E+04</totfact>
</mgrwt>
</event>
<event>
 6    1  0.1274196E-001  0.3000000E+03  0.7818608E-02  0.1093470E+00
         21   -1    0    0  501  502  0.00000000000E+00  0.00000000000E+00  0.22478743201E+01  0.22478743201E+01  0.00000000000E+00 0. -1.
         13   -1    0    0    0    0 -0.00000000000E+00 -0.00000000000E+00 -0.10000000000E+04  0.10000000000E+04  0.00000000000E+00 0.  1.
    9000005    2    1    2  501    0  0.14973079106E+02 -0.27313484822E+02 -0.87595377320E+03  0.87652970452E+03  0.62522453409E+01 0.  0.
         13    1    3    3    0    0  0.57307122463E+01 -0.16845263675E+02 -0.47885936165E+03  0.47918982899E+03  0.00000000000E+00 0.  1.
          1    1    3    3  501    0  0.92423668602E+01 -0.10468221147E+02 -0.39709441155E+03  0.39733987552E+03  0.00000000000E+00 0.  1.
         -1    1    1    2    0  502 -0.14973079106E+02  0.27313484822E+02 -0.12179835248E+03  0.12571816980E+03  0.00000000000E+00 0. -1.
<mgrwt>
<rscale>  1 0.30000000E+03</rscale>
<asrwt>0</asrwt>
<pdfrwt beam="1">  1       21 0.81741057E-02 0.30000000E+03</pdfrwt>
<pdfrwt beam="2">0</pdfrwt>
<totfact> 0.12299536E+04</totfact>
</mgrwt>
</event>
<event>
 6    1  0.1274196E-001  0.3000000E+03  0.7818608E-02  0.1093470E+00
         21   -1    0    0  501  502  0.00000000000E+00  0.00000000000E+00  0.17022705761E+01  0.17022705761E+01  0.00000000000E+00 0. -1.
         13   -1    0    0    0    0 -0.00000000000E+00 -0.00000000000E+00 -0.10000000000E+04  0.10000000000E+04  0.00000000000E+00 0.  1.
    9000005    2    1    2  501    0  0.15632175863E+02  0.33111977430E+02 -0.72876823576E+03  0.72969691047E+03  0.36975296917E+01 0.  0.
         13    1    3    3    0    0  0.12293047485E+02  0.29010296016E+02 -0.61918791617E+03  0.61998902557E+03  0.00000000000E+00 0.  1.
          3    1    3    3  501    0  0.33391283778E+01  0.41016814142E+01 -0.10958031959E+03  0.10970788490E+03  0.00000000000E+00 0.  1.
         -1    1    1    2    0  502 -0.15632175863E+02 -0.33111977430E+02 -0.26952949366E+03  0.27200536010E+03  0.00000000000E+00 0. -1.
<mgrwt>
<rscale>  1 0.30000000E+03</rscale>
<asrwt>0</asrwt>
<pdfrwt beam="1">  1       21 0.61900879E-02 0.30000000E+03</pdfrwt>
<pdfrwt beam="2">0</pdfrwt>
<totfact> 0.19967440E+04</totfact>
</mgrwt>
</event>
<event>
 6    1  0.1274196E-001  0.3000000E+03  0.7818608E-02  0.1093470E+00
         21   -1    0    0  501  502  0.00000000000E+00  0.00000000000E+00  0.18226294748E+01  0.18226294748E+01  0.00000000000E+00 0. -1.
         13   -1    0    0    0    0 -0.00000000000E+00 -0.00000000000E+00 -0.10000000000E+04  0.10000000000E+04  0.00000000000E+00 0.  1.
    9000005    2    1    2  501    0  0.69217982305E+01 -0.40864432413E+02 -0.38322023893E+03  0.38547038698E+03  0.34430490179E+01 0.  0.
         13    1    3    3    0    0  0.10021478070E+01 -0.56617718275E+01 -0.65175504441E+02  0.65428635471E+02  0.00000000000E+00 0.  1.
          3    1    3    3  501    0  0.59196504235E+01 -0.35202660586E+02 -0.31804473449E+03  0.32004175151E+03  0.00000000000E+00 0.  1.
         -1    1    1    2    0  502 -0.69217982305E+01  0.40864432413E+02 -0.61495713160E+03  0.61635224250E+03  0.00000000000E+00 0. -1.
<mgrwt>
<rscale>  1 0.30000000E+03</rscale>
<asrwt>0</asrwt>
<pdfrwt beam="1">  1       21 0.66277575E-02 0.30000000E+03</pdfrwt>
<pdfrwt beam="2">0</pdfrwt>
<totfact> 0.17741592E+04</totfact>
</mgrwt>
</event>
<event>
 6    1  0.1274196E-001  0.3000000E+03  0.7818608E-02  0.1093470E+00
         21   -1    0    0  501  502  0.00000000000E+00  0.00000000000E+00  0.55528880724E+01  0.55528880724E+01  0.00000000000E+00 0. -1.
         13   -1    0    0    0    0 -0.00000000000E+00 -0.00000000000E+00 -0.10000000000E+04  0.10000000000E+04  0.00000000000E+00 0.  1.
    9000005    2    1    2  501    0 -0.34161811796E+02  0.64204518722E+02 -0.60590854037E+03  0.61026631963E+03  0.32514553558E+01 0.  0.
         13    1    3    3    0    0 -0.29282181048E+02  0.52489631179E+02 -0.49771643335E+03  0.50133248003E+03  0.00000000000E+00 0.  1.
          1    1    3    3  501    0 -0.48796307474E+01  0.11714887543E+02 -0.10819210702E+03  0.10893383959E+03  0.00000000000E+00 0.  1.
         -3    1    1    2    0  502  0.34161811796E+02 -0.64204518722E+02 -0.38853857155E+03  0.39528656845E+03  0.00000000000E+00 0. -1.
<mgrwt>
<rscale>  1 0.30000000E+03</rscale>
<asrwt>0</asrwt>
<pdfrwt beam="1">  1       21 0.20192363E-01 0.30000000E+03</pdfrwt>
<pdfrwt beam="2">0</pdfrwt>
<totfact> 0.23557565E+03</totfact>
</mgrwt>
</event>
<event>
 6    1  0.1274196E-001  0.3000000E+03  0.7818608E-02  0.1093470E+00
         21   -1    0    0  501  502  0.00000000000E+00  0.00000000000E+00  0.52055922610E+01  0.52055922610E+01  0.00000000000E+00 0. -1.
         13   -1    0    0    0    0 -0.00000000000E+00 -0.00000000000E+00 -0.10000000000E+04  0.10000000000E+04  0.00000000000E+00 0.  1.
    9000005    2    1    2  501    0 -0.31876454516E+02  0.36834228315E+02 -0.86806540999E+03  0.86943701121E+03  0.32080720052E+01 0.  0.
         13    1    3    3    0    0 -0.12717585980E+02  0.17066947150E+02 -0.37228712824E+03  0.37289505700E+03  0.00000000000E+00 0.  1.
          3    1    3    3  501    0 -0.19158868536E+02  0.19767281165E+02 -0.49577828175E+03  0.49654195422E+03  0.00000000000E+00 0.  1.
         -3    1    1    2    0  502  0.31876454516E+02 -0.36834228315E+02 -0.12672899775E+03  0.13576858105E+03  0.00000000000E+00 0. -1.
<mgrwt>
<rscale>  1 0.30000000E+03</rscale>
<asrwt>0</asrwt>
<pdfrwt beam="1">  1       21 0.18929466E-01 0.30000000E+03</pdfrwt>
<pdfrwt beam="2">0</pdfrwt>
<totfact> 0.26637965E+03</totfact>
</mgrwt>
</event>
<event>
 6    1  0.1274196E-001  0.3000000E+03  0.7818608E-02  0.1093470E+00
         21   -1    0    0  501  502  0.00000000000E+00  0.00000000000E+00  0.18817242084E+02  0.18817242084E+02  0.00000000000E+00 0. -1.
         13   -1    0    0    0    0 -0.00000000000E+00 -0.00000000000E+00 -0.10000000000E+04  0.10000000000E+04  0.00000000000E+00 0.  1.
    9000005    2    1    2  501    0 -0.80736600657E+01  0.52524297978E+02 -0.96021186044E+03  0.96168787655E+03  0.35733893019E+01 0.  0.
         13    1    3    3    0    0 -0.87393662670E-01  0.13770948613E+01 -0.37089866716E+02  0.37115525604E+02  0.00000000000E+00 0.  1.
          1    1    3    3  501    0 -0.79862664030E+01  0.51147203117E+02 -0.92312199373E+03  0.92457235095E+03  0.00000000000E+00 0.  1.
         -3    1    1    2    0  502  0.80736600657E+01 -0.52524297978E+02 -0.20970897473E+02  0.57129365529E+02  0.00000000000E+00 0. -1.
<mgrwt>
<rscale>  1 0.30000000E+03</rscale>
<asrwt>0</asrwt>
<pdfrwt beam="1">  1       21 0.68426479E-01 0.30000000E+03</pdfrwt>
<pdfrwt beam="2">0</pdfrwt>
<totfact> 0.18601653E+02</totfact>
</mgrwt>
</event>
<event>
 6    1  0.1274196E-001  0.3000000E+03  0.7818608E-02  0.1093470E+00
         21   -1    0    0  501  502  0.00000000000E+00  0.00000000000E+00  0.18392210995E+01  0.18392210995E+01  0.00000000000E+00 0. -1.
         13   -1    0    0    0    0 -0.00000000000E+00 -0.00000000000E+00 -0.10000000000E+04  0.10000000000E+04  0.00000000000E+00 0.  1.
    9000005    2    1    2  501    0  0.21031101921E+02 -0.21597467006E+02 -0.14473121046E+03  0.14787740339E+03  0.34417032206E+01 0.  0.
         13    1    3    3    0    0  0.15331960226E+01 -0.24281837459E+01 -0.10251295194E+02  0.10645929715E+02  0.00000000000E+00 0.  1.
          3    1    3    3  501    0  0.19497905898E+02 -0.19169283260E+02 -0.13447991527E+03  0.13723147367E+03  0.00000000000E+00 0.  1.
         -1    1    1    2    0  502 -0.21031101921E+02  0.21597467006E+02 -0.85342956844E+03  0.85396181771E+03  0.00000000000E+00 0. -1.
<mgrwt>
<rscale>  1 0.30000000E+03</rscale>
<asrwt>0</asrwt>
<pdfrwt beam="1">  1       21 0.66880908E-02 0.30000000E+03</pdfrwt>
<pdfrwt beam="2">0</pdfrwt>
<totfact> 0.17464994E+04</totfact>
</mgrwt>
</event>
<event>
 6    1  0.1274196E-001  0.3000000E+03  0.7818608E-02  0.1093470E+00
         21   -1    0    0  501  502  0.00000000000E+00  0.00000000000E+00  0.16500108443E+01  0.16500108443E+01  0.00000000000E+00 0. -1.
         13   -1    0    0    0    0 -0.00000000000E+00 -0.00000000000E+00 -0.10000000000E+04  0.10000000000E+04  0.00000000000E+00 0.  1.
    9000005    2    1    2  501    0 -0.90046608757E+01 -0.32249112804E+02 -0.78143350601E+03  0.78216459025E+03  0.46939033299E+01 0.  0.
         13    1    3    3    0    0 -0.27053268251E+01 -0.81255304807E+01 -0.15681863681E+03  0.15705230940E+03  0.00000000000E+00 0.  1.
          3    1    3    3  501    0 -0.62993340506E+01 -0.24123582323E+02 -0.62461486920E+03  0.62511228085E+03  0.00000000000E+00 0.  1.
         -3    1    1    2    0  502  0.90046608757E+01  0.32249112804E+02 -0.21691648314E+03  0.21948542060E+03  0.00000000000E+00 0. -1.
<mgrwt>
<rscale>  1 0.30000000E+03</rscale>
<asrwt>0</asrwt>
<pdfrwt beam="1">  1       21 0.60000521E-02 0.30000000E+03</pdfrwt>
<pdfrwt beam="2">0</pdfrwt>
<totfact> 0.21071350E+04</totfact>
</mgrwt>
</event>
<event>
 6    1  0.1274196E-001  0.3000000E+03  0.7818608E-02  0.1093470E+00
         21   -1    0    0  501  502  0.00000000000E+00  0.00000000000E+00  0.46804303381E+01  0.46804303381E+01  0.00000000000E+00 0. -1.
         13   -1    0    0    0    0 -0.00000000000E+00 -0.00000000000E+00 -0.10000000000E+04  0.10000000000E+04  0.00000000000E+00 0.  1.
    9000005    2    1    2  501    0 -0.36855860010E+01 -0.30945707829E+02 -0.94477324994E+03  0.94529902908E+03  0.47476533966E+01 0.  0.
         13    1    3    3    0    0 -0.32234423665E+01 -0.28358821693E+02 -0.89659396155E+03  0.89704812872E+03  0.00000000000E+00 0.  1.
          1    1    3    3  501    0 -0.46214363455E+00 -0.25868861364E+01 -0.48179288383E+02  0.48250900362E+02  0.00000000000E+00 0.  1.
         -1    1    1    2    0  502  0.36855860010E+01  0.30945707829E+02 -0.50546319725E+02  0.59381401254E+02  0.00000000000E+00 0. -1.
<mgrwt>
<rscale>  1 0.30000000E+03</rscale>
<asrwt>0</asrwt>
<pdfrwt beam="1">  1       21 0.17019783E-01 0.30000000E+03</pdfrwt>
<pdfrwt beam="2">0</pdfrwt>
<totfact> 0.32544239E+03</totfact>
</mgrwt>
</event>
<event>
 6    1  0.1274196E-001  0.3000000E+03  0.7818608E-02  0.1093470E+00
         21   -1    0    0  501  502  0.00000000000E+00  0.00000000000E+00  0.24592994330E+01  0.24592994330E+01  0.00000000000E+00 0. -1.
         13   -1    0    0    0    0 -0.00000000000E+00 -0.00000000000E+00 -0.10000000000E+04  0.10000000000E+04  0.00000000000E+00 0.  1.
    9000005    2    1    2  501    0  0.73955700992E+00 -0.32509874819E+02 -0.87682387419E+03  0.87743933673E+03  0.47163942966E+01 0.  0.
         13    1    3    3    0    0  0.23064258018E+01 -0.99689440169E+01 -0.25597988691E+03  0.25618431245E+03  0.00000000000E+00 0.  1.
          3    1    3    3  501    0 -0.15668687919E+01 -0.22540930802E+02 -0.62084398728E+03  0.62125502427E+03  0.00000000000E+00 0.  1.
         -1    1    1    2    0  502 -0.73955700992E+00  0.32509874819E+02 -0.12071682637E+03  0.12501996271E+03  0.00000000000E+00 0. -1.
<mgrwt>
<rscale>  1 0.30000000E+03</rscale>
<asrwt>0</asrwt>
<pdfrwt beam="1">  1       21 0.89429259E-02 0.30000000E+03</pdfrwt>
<pdfrwt beam="2">0</pdfrwt>
<totfact> 0.10495687E+04</totfact>
</mgrwt>
</event>
<event>
 6    1  0.1274196E-001  0.3000000E+03  0.7818608E-02  0.1093470E+00
         21   -1    0    0  501  502  0.00000000000E+00  0.00000000000E+00  0.14458752279E+01  0.14458752279E+01  0.00000000000E+00 0. -1.
         13   -1    0    0    0    0 -0.00000000000E+00 -0.00000000000E+00 -0.10000000000E+04  0.10000000000E+04  0.00000000000E+00 0.  1.
    9000005    2    1    2  501    0  0.13458431046E+02  0.33789857510E+02 -0.64285545108E+03  0.64389248019E+03  0.33928196687E+01 0.  0.
         13    1    3    3    0    0  0.33855747254E+01  0.82181064840E+01 -0.18417412078E+03  0.18438846535E+03  0.00000000000E+00 0.  1.
          1    1    3    3  501    0  0.10072856320E+02  0.25571751026E+02 -0.45868133030E+03  0.45950401484E+03  0.00000000000E+00 0.  1.
         -1    1    1    2    0  502 -0.13458431046E+02 -0.33789857510E+02 -0.35569867369E+03  0.35755339504E+03  0.00000000000E+00 0. -1.
<mgrwt>
<rscale>  1 0.30000000E+03</rscale>
<asrwt>0</asrwt>
<pdfrwt beam="1">  1       21 0.52577392E-02 0.30000000E+03</pdfrwt>
<pdfrwt beam="2">0</pdfrwt>
<totfact> 0.26436282E+04</totfact>
</mgrwt>
</event>
<event>
 6    1  0.1274196E-001  0.3000000E+03  0.7818608E-02  0.1093470E+00
         21   -1    0    0  501  502  0.00000000000E+00  0.00000000000E+00  0.11010085306E+02  0.11010085306E+02  0.00000000000E+00 0. -1.
         13   -1    0    0    0    0 -0.00000000000E+00 -0.00000000000E+00 -0.10000000000E+04  0.10000000000E+04  0.00000000000E+00 0.  1.
    9000005    2    1    2  501    0 -0.27550830948E+02 -0.75283874969E+02 -0.82057896104E+03  0.82449209844E+03  0.32678682068E+01 0.  0.
         13    1    3    3    0    0 -0.75480310875E+01 -0.25025514075E+02 -0.26982887867E+03  0.27109200079E+03  0.00000000000E+00 0.  1.
          3    1    3    3  501    0 -0.20002799861E+02 -0.50258360894E+02 -0.55075008237E+03  0.55340009764E+03  0.00000000000E+00 0.  1.
         -1    1    1    2    0  502  0.27550830948E+02  0.75283874969E+02 -0.16841095365E+03  0.18651798687E+03  0.00000000000E+00 0. -1.
<mgrwt>
<rscale>  1 0.30000000E+03</rscale>
<asrwt>0</asrwt>
<pdfrwt beam="1">  1       21 0.40036758E-01 0.30000000E+03</pdfrwt>
<pdfrwt beam="2">0</pdfrwt>
<totfact> 0.60286133E+02</totfact>
</mgrwt>
</event>
<event>
 6    1  0.1274196E-001  0.3000000E+03  0.7818608E-02  0.1093470E+00
         21   -1    0    0  501  502  0.00000000000E+00  0.00000000000E+00  0.20321059782E+01  0.20321059782E+01  0.00000000000E+00 0. -1.
         13   -1    0    0    0    0 -0.00000000000E+00 -0.00000000000E+00 -0.10000000000E+04  0.10000000000E+04  0.00000000000E+00 0.  1.
    9000005    2    1    2  501    0  0.15177222497E+02  0.36608073117E+02 -0.73689387138E+03  0.73796744647E+03  0.35882140226E+01 0.  0.
         13    1    3    3    0    0  0.61702585239E+01  0.16455318003E+02 -0.29581561994E+03  0.29633719068E+03  0.00000000000E+00 0.  1.
          1    1    3    3  501    0  0.90069639729E+01  0.20152755114E+02 -0.44107825144E+03  0.44163025580E+03  0.00000000000E+00 0.  1.
         -1    1    1    2    0  502 -0.15177222497E+02 -0.36608073117E+02 -0.26107402264E+03  0.26406465950E+03  0.00000000000E+00 0. -1.
<mgrwt>
<rscale>  1 0.30000000E+03</rscale>
<asrwt>0</asrwt>
<pdfrwt beam="1">  1       21 0.73894919E-02 0.30000000E+03</pdfrwt>
<pdfrwt beam="2">0</pdfrwt>
<totfact> 0.14680929E+04</totfact>
</mgrwt>
</event>
<event>
 6    1  0.1274196E-001  0.3000000E+03  0.7818608E-02  0.1093470E+00
         21   -1    0    0  501  502  0.00000000000E+00  0.00000000000E+00  0.99114322736E+00  0.99114322736E+00  0.00000000000E+00 0. -1.
         13   -1    0    0    0    0 -0.00000000000E+00 -0.00000000000E+00 -0.10000000000E+04  0.10000000000E+04  0.00000000000E+00 0.  1.
    9000005    2    1    2  501    0 -0.12487337300E+02  0.27691467487E+02 -0.62709821061E+03  0.62784200456E+03  0.32658790893E+01 0.  0.
         13    1    3    3    0    0 -0.99244561151E+01  0.23296803189E+02 -0.54289450723E+03  0.54348475769E+03  0.00000000000E+00 0.  1.
          1    1    3    3  501    0 -0.25628811846E+01  0.43946642985E+01 -0.84203703389E+02  0.84357246865E+02  0.00000000000E+00 0.  1.
         -3    1    1    2    0  502  0.12487337300E+02 -0.27691467487E+02 -0.37191064616E+03  0.37314913867E+03  0.00000000000E+00 0. -1.
<mgrwt>
<rscale>  1 0.30000000E+03</rscale>
<asrwt>0</asrwt>
<pdfrwt beam="1">  1       21 0.36041648E-02 0.30000000E+03</pdfrwt>
<pdfrwt beam="2">0</pdfrwt>
<totfact> 0.50093089E+04</totfact>
</mgrwt>
</event>
<event>
 6    1  0.1274196E-001  0.3000000E+03  0.7818608E-02  0.1093470E+00
         21   -1    0    0  501  502  0.00000000000E+00  0.00000000000E+00  0.92198043437E+01  0.92198043437E+01  0.00000000000E+00 0. -1.
         13   -1    0    0    0    0 -0.00000000000E+00 -0.00000000000E+00 -0.10000000000E+04  0.10000000000E+04  0.00000000000E+00 0.  1.
    9000005    2    1    2  501    0 -0.15432469766E+02  0.84748718844E+02 -0.71750238252E+03  0.72268661321E+03  0.67650219481E+01 0.  0.
         13    1    3    3    0    0 -0.94105792378E+01  0.66638482507E+02 -0.55199826720E+03  0.55608572481E+03  0.00000000000E+00 0.  1.
          1    1    3    3  501    0 -0.60218905278E+01  0.18110236338E+02 -0.16550411532E+03  0.16660088839E+03  0.00000000000E+00 0.  1.
         -3    1    1    2    0  502  0.15432469766E+02 -0.84748718844E+02 -0.27327781314E+03  0.28653319113E+03  0.00000000000E+00 0. -1.
<mgrwt>
<rscale>  1 0.30000000E+03</rscale>
<asrwt>0</asrwt>
<pdfrwt beam="1">  1       21 0.33526632E-01 0.30000000E+03</pdfrwt>
<pdfrwt beam="2">0</pdfrwt>
<totfact> 0.86878492E+02</totfact>
</mgrwt>
</event>
<event>
 6    1  0.1274196E-001  0.3000000E+03  0.7818608E-02  0.1093470E+00
         21   -1    0    0  501  502  0.00000000000E+00  0.00000000000E+00  0.12464562419E+01  0.12464562419E+01  0.00000000000E+00 0. -1.
         13   -1    0    0    0    0 -0.00000000000E+00 -0.00000000000E+00 -0.10000000000E+04  0.10000000000E+04  0.00000000000E+00 0.  1.
    9000005    2    1    2  501    0  0.10880369152E+02  0.30547516738E+02 -0.69564510858E+03  0.69640837350E+03  0.33124586589E+01 0.  0.
         13    1    3    3    0    0  0.60365882160E+01  0.21512848608E+02 -0.47415671262E+03  0.47468287432E+03  0.00000000000E+00 0.  1.
          1    1    3    3  501    0  0.48437809363E+01  0.90346681297E+01 -0.22148839596E+03  0.22172549918E+03  0.00000000000E+00 0.  1.
         -3    1    1    2    0  502 -0.10880369152E+02 -0.30547516738E+02 -0.30310843518E+03  0.30483808274E+03  0.00000000000E+00 0. -1.
<mgrwt>
<rscale>  1 0.30000000E+03</rscale>
<asrwt>0</asrwt>
<pdfrwt beam="1">  1       21 0.45325777E-02 0.30000000E+03</pdfrwt>
<pdfrwt beam="2">0</pdfrwt>
<totfact> 0.34038854E+04</totfact>
</mgrwt>
</event>
<event>
 6    1  0.1274196E-001  0.3000000E+03  0.7818608E-02  0.1093470E+00
         21   -1    0    0  501  502  0.00000000000E+00  0.00000000000E+00  0.43926596688E+01  0.43926596688E+01  0.00000000000E+00 0. -1.
         13   -1    0    0    0    0 -0.00000000000E+00 -0.00000000000E+00 -0.10000000000E+04  0.10000000000E+04  0.00000000000E+00 0.  1.
    9000005    2    1    2  501    0  0.27658189530E+02  0.42315205463E+02 -0.82239815787E+03  0.82395715055E+03  0.33322388662E+01 0.  0.
         13    1    3    3    0    0  0.20593740309E+02  0.29276613018E+02 -0.59586770130E+03  0.59694182268E+03  0.00000000000E+00 0.  1.
          3    1    3    3  501    0  0.70644492212E+01  0.13038592445E+02 -0.22653045657E+03  0.22701532787E+03  0.00000000000E+00 0.  1.
         -3    1    1    2    0  502 -0.27658189530E+02 -0.42315205463E+02 -0.17320918246E+03  0.18043550912E+03  0.00000000000E+00 0. -1.
<mgrwt>
<rscale>  1 0.30000000E+03</rscale>
<asrwt>0</asrwt>
<pdfrwt beam="1">  1       21 0.15973342E-01 0.30000000E+03</pdfrwt>
<pdfrwt beam="2">0</pdfrwt>
<totfact> 0.36640344E+03</totfact>
</mgrwt>
</event>
<event>
 6    1  0.1274196E-001  0.3000000E+03  0.7818608E-02  0.1093470E+00
         21   -1    0    0  501  502  0.00000000000E+00  0.00000000000E+00  0.22052338340E+01  0.22052338340E+01  0.00000000000E+00 0. -1.
         13   -1    0    0    0    0 -0.00000000000E+00 -0.00000000000E+00 -0.10000000000E+04  0.10000000000E+04  0.00000000000E+00 0.  1.
    9000005    2    1    2  501    0  0.11967911677E+02  0.40128385878E+02 -0.72516016106E+03  0.72637349859E+03  0.27716441141E+01 0.  0.
         13    1    3    3    0    0  0.19967410051E+01  0.47082083759E+01 -0.10147052401E+03  0.10159931812E+03  0.00000000000E+00 0.  1.
          1    1    3    3  501    0  0.99711706719E+01  0.35420177502E+02 -0.62368963705E+03  0.62477418047E+03  0.00000000000E+00 0.  1.
         -3    1    1    2    0  502 -0.11967911677E+02 -0.40128385878E+02 -0.27263460511E+03  0.27583173524E+03  0.00000000000E+00 0. -1.
<mgrwt>
<rscale>  1 0.30000000E+03</rscale>
<asrwt>0</asrwt>
<pdfrwt beam="1">  1       21 0.80190490E-02 0.30000000E+03</pdfrwt>
<pdfrwt beam="2">0</pdfrwt>
<totfact> 0.12720615E+04</totfact>
</mgrwt>
</event>
<event>
 6    1  0.1274196E-001  0.3000000E+03  0.7818608E-02  0.1093470E+00
         21   -1    0    0  501  502  0.00000000000E+00  0.00000000000E+00  0.26697490998E+01  0.26697490998E+01  0.00000000000E+00 0. -1.
         13   -1    0    0    0    0 -0.00000000000E+00 -0.00000000000E+00 -0.10000000000E+04  0.10000000000E+04  0.00000000000E+00 0.  1.
    9000005    2    1    2  501    0  0.10155946927E+01 -0.48546449011E+02 -0.66891682565E+03  0.67068606422E+03  0.35054175423E+01 0.  0.
         13    1    3    3    0    0 -0.56509860712E-01 -0.21794076493E+02 -0.32328771053E+03  0.32402149426E+03  0.00000000000E+00 0.  1.
          3    1    3    3  501    0  0.10721045534E+01 -0.26752372518E+02 -0.34562911512E+03  0.34666456996E+03  0.00000000000E+00 0.  1.
         -1    1    1    2    0  502 -0.10155946927E+01  0.48546449011E+02 -0.32841342525E+03  0.33198368488E+03  0.00000000000E+00 0. -1.
<mgrwt>
<rscale>  1 0.30000000E+03</rscale>
<asrwt>0</asrwt>
<pdfrwt beam="1">  1       21 0.97081990E-02 0.30000000E+03</pdfrwt>
<pdfrwt beam="2">0</pdfrwt>
<totfact> 0.90702974E+03</totfact>
</mgrwt>
</event>
<event>
 6    1  0.1274196E-001  0.3000000E+03  0.7818608E-02  0.1093470E+00
         21   -1    0    0  501  502  0.00000000000E+00  0.00000000000E+00  0.11656164011E+01  0.11656164011E+01  0.00000000000E+00 0. -1.
         13   -1    0    0    0    0 -0.00000000000E+00 -0.00000000000E+00 -0.10000000000E+04  0.10000000000E+04  0.00000000000E+00 0.  1.
    9000005    2    1    2  501    0 -0.26442771916E+02  0.20903482211E+02 -0.57133500311E+03  0.57233943242E+03  0.35446242948E+01 0.  0.
         13    1    3    3    0    0 -0.77269911967E+01  0.80433747608E+01 -0.17681338104E+03  0.17716482153E+03  0.00000000000E+00 0.  1.
          1    1    3    3  501    0 -0.18715780719E+02  0.12860107450E+02 -0.39452162207E+03  0.39517461089E+03  0.00000000000E+00 0.  1.
         -1    1    1    2    0  502  0.26442771916E+02 -0.20903482211E+02 -0.42749938049E+03  0.42882618398E+03  0.00000000000E+00 0. -1.
<mgrwt>
<rscale>  1 0.30000000E+03</rscale>
<asrwt>0</asrwt>
<pdfrwt beam="1">  1       21 0.42386140E-02 0.30000000E+03</pdfrwt>
<pdfrwt beam="2">0</pdfrwt>
<totfact> 0.38132408E+04</totfact>
</mgrwt>
</event>
<event>
 6    1  0.1274196E-001  0.3000000E+03  0.7818608E-02  0.1093470E+00
         21   -1    0    0  501  502  0.00000000000E+00  0.00000000000E+00  0.12641685887E+01  0.12641685887E+01  0.00000000000E+00 0. -1.
         13   -1    0    0    0    0 -0.00000000000E+00 -0.00000000000E+00 -0.10000000000E+04  0.10000000000E+04  0.00000000000E+00 0.  1.
    9000005    2    1    2  501    0 -0.73456608912E+01  0.33008642901E+02 -0.65112298265E+03  0.65201036135E+03  0.35837892265E+01 0.  0.
         13    1    3    3    0    0 -0.85740243398E+00  0.10264864571E+02 -0.21479462642E+03  0.21504147071E+03  0.00000000000E+00 0.  1.
          3    1    3    3  501    0 -0.64882584573E+01  0.22743778330E+02 -0.43632835622E+03  0.43696889065E+03  0.00000000000E+00 0.  1.
         -1    1    1    2    0  502  0.73456608912E+01 -0.33008642901E+02 -0.34761284877E+03  0.34925380723E+03  0.00000000000E+00 0. -1.
<mgrwt>
<rscale>  1 0.30000000E+03</rscale>
<asrwt>0</asrwt>
<pdfrwt beam="1">  1       21 0.45969864E-02 0.30000000E+03</pdfrwt>
<pdfrwt beam="2">0</pdfrwt>
<totfact> 0.33232765E+04</totfact>
</mgrwt>
</event>
<event>
 6    1  0.1274196E-001  0.3000000E+03  0.7818608E-02  0.1093470E+00
         21   -1    0    0  501  502  0.00000000000E+00  0.00000000000E+00  0.18407555247E+01  0.18407555247E+01  0.00000000000E+00 0. -1.
         13   -1    0    0    0    0 -0.00000000000E+00 -0.00000000000E+00 -0.10000000000E+04  0.10000000000E+04  0.00000000000E+00 0.  1.
    9000005    2    1    2  501    0  0.29929232631E+02 -0.31507089041E+01 -0.85581234312E+03  0.85634736647E+03  0.32186169672E+01 0.  0.
         13    1    3    3    0    0  0.29836326985E+02 -0.32826245651E+01 -0.84338741690E+03  0.84392139267E+03  0.00000000000E+00 0.  1.
          1    1    3    3  501    0  0.92905645855E-01  0.13191566105E+00 -0.12424926223E+02  0.12425973798E+02  0.00000000000E+00 0.  1.
         -3    1    1    2    0  502 -0.29929232631E+02  0.31507089041E+01 -0.14234690136E+03  0.14549338905E+03  0.00000000000E+00 0. -1.
<mgrwt>
<rscale>  1 0.30000000E+03</rscale>
<asrwt>0</asrwt>
<pdfrwt beam="1">  1       21 0.66936706E-02 0.30000000E+03</pdfrwt>
<pdfrwt beam="2">0</pdfrwt>
<totfact> 0.17439749E+04</totfact>
</mgrwt>
</event>
<event>
 6    1  0.1274196E-001  0.3000000E+03  0.7818608E-02  0.1093470E+00
         21   -1    0    0  501  502  0.00000000000E+00  0.00000000000E+00  0.28937423644E+01  0.28937423644E+01  0.00000000000E+00 0. -1.
         13   -1    0    0    0    0 -0.00000000000E+00 -0.00000000000E+00 -0.10000000000E+04  0.10000000000E+04  0.00000000000E+00 0.  1.
    9000005    2    1    2  501    0 -0.13203576757E+02  0.30700066884E+02 -0.89019445707E+03  0.89088052151E+03  0.10252007751E+02 0.  0.
         13    1    3    3    0    0 -0.10784424289E+02  0.12382186959E+02 -0.39312102739E+03  0.39346380334E+03  0.00000000000E+00 0.  1.
          1    1    3    3  501    0 -0.24191524683E+01  0.18317879925E+02 -0.49707342969E+03  0.49741671818E+03  0.00000000000E+00 0.  1.
         -3    1    1    2    0  502  0.13203576757E+02 -0.30700066884E+02 -0.10691180056E+03  0.11201322085E+03  0.00000000000E+00 0. -1.
<mgrwt>
<rscale>  1 0.30000000E+03</rscale>
<asrwt>0</asrwt>
<pdfrwt beam="1">  1       21 0.10522722E-01 0.30000000E+03</pdfrwt>
<pdfrwt beam="2">0</pdfrwt>
<totfact> 0.78533766E+03</totfact>
</mgrwt>
</event>
<event>
 6    1  0.1274196E-001  0.3000000E+03  0.7818608E-02  0.1093470E+00
         21   -1    0    0  501  502  0.00000000000E+00  0.00000000000E+00  0.21662916502E+01  0.21662916502E+01  0.00000000000E+00 0. -1.
         13   -1    0    0    0    0 -0.00000000000E+00 -0.00000000000E+00 -0.10000000000E+04  0.10000000000E+04  0.00000000000E+00 0.  1.
    9000005    2    1    2  501    0  0.37671378501E+02  0.13411725710E+02 -0.75473303144E+03  0.75579878921E+03  0.32945227000E+01 0.  0.
         13    1    3    3    0    0  0.86031345474E+01  0.24041552473E+01 -0.19267373082E+03  0.19288068964E+03  0.00000000000E+00 0.  1.
          3    1    3    3  501    0  0.29068243953E+02  0.11007570462E+02 -0.56205930062E+03  0.56291809957E+03  0.00000000000E+00 0.  1.
         -3    1    1    2    0  502 -0.37671378501E+02 -0.13411725710E+02 -0.24310067691E+03  0.24636750244E+03  0.00000000000E+00 0. -1.
<mgrwt>
<rscale>  1 0.30000000E+03</rscale>
<asrwt>0</asrwt>
<pdfrwt beam="1">  1       21 0.78774408E-02 0.30000000E+03</pdfrwt>
<pdfrwt beam="2">0</pdfrwt>
<totfact> 0.13124845E+04</totfact>
</mgrwt>
</event>
<event>
 6    1  0.1274196E-001  0.3000000E+03  0.7818608E-02  0.1093470E+00
         21   -1    0    0  501  502  0.00000000000E+00  0.00000000000E+00  0.14829609553E+01  0.14829609553E+01  0.00000000000E+00 0. -1.
         13   -1    0    0    0    0 -0.00000000000E+00 -0.00000000000E+00 -0.10000000000E+04  0.10000000000E+04  0.00000000000E+00 0.  1.
    9000005    2    1    2  501    0 -0.17913604213E+02 -0.27167821656E+02 -0.76624968586E+03  0.76694701253E+03  0.31860939987E+01 0.  0.
         13    1    3    3    0    0 -0.13043355001E+02 -0.17747716070E+02 -0.49352734275E+03  0.49401857109E+03  0.00000000000E+00 0.  1.
          1    1    3    3  501    0 -0.48702492118E+01 -0.94201055862E+01 -0.27272234310E+03  0.27292844144E+03  0.00000000000E+00 0.  1.
         -3    1    1    2    0  502  0.17913604213E+02  0.27167821656E+02 -0.23226735319E+03  0.23453594843E+03  0.00000000000E+00 0. -1.
<mgrwt>
<rscale>  1 0.30000000E+03</rscale>
<asrwt>0</asrwt>
<pdfrwt beam="1">  1       21 0.53925967E-02 0.30000000E+03</pdfrwt>
<pdfrwt beam="2">0</pdfrwt>
<totfact> 0.25315293E+04</totfact>
</mgrwt>
</event>
<event>
 6    1  0.1274196E-001  0.3000000E+03  0.7818608E-02  0.1093470E+00
         21   -1    0    0  501  502  0.00000000000E+00  0.00000000000E+00  0.35884878529E+01  0.35884878529E+01  0.00000000000E+00 0. -1.
         13   -1    0    0    0    0 -0.00000000000E+00 -0.00000000000E+00 -0.10000000000E+04  0.10000000000E+04  0.00000000000E+00 0.  1.
    9000005    2    1    2  501    0  0.17172779522E+02 -0.56386300116E+02 -0.58538568761E+03  0.58835777170E+03  0.37609929970E+01 0.  0.
         13    1    3    3    0    0  0.16442136300E+02 -0.51083364583E+02 -0.53858915525E+03  0.54125606891E+03  0.00000000000E+00 0.  1.
          1    1    3    3  501    0  0.73064322187E+00 -0.53029355332E+01 -0.46796532362E+02  0.47101702792E+02  0.00000000000E+00 0.  1.
         -3    1    1    2    0  502 -0.17172779522E+02  0.56386300116E+02 -0.41102582454E+03  0.41523071615E+03  0.00000000000E+00 0. -1.
<mgrwt>
<rscale>  1 0.30000000E+03</rscale>
<asrwt>0</asrwt>
<pdfrwt beam="1">  1       21 0.13049074E-01 0.30000000E+03</pdfrwt>
<pdfrwt beam="2">0</pdfrwt>
<totfact> 0.53197897E+03</totfact>
</mgrwt>
</event>
<event>
 6    1  0.1274196E-001  0.3000000E+03  0.7818608E-02  0.1093470E+00
         21   -1    0    0  501  502  0.00000000000E+00  0.00000000000E+00  0.88329755441E+01  0.88329755441E+01  0.00000000000E+00 0. -1.
         13   -1    0    0    0    0 -0.00000000000E+00 -0.00000000000E+00 -0.10000000000E+04  0.10000000000E+04  0.00000000000E+00 0.  1.
    9000005    2    1    2  501    0 -0.62722880085E+02  0.57763106548E+02 -0.70747214319E+03  0.71260076625E+03  0.35046415136E+01 0.  0.
         13    1    3    3    0    0 -0.47559858559E+02  0.42596201009E+02 -0.53971182672E+03  0.54347514423E+03  0.00000000000E+00 0.  1.
          1    1    3    3  501    0 -0.15163021526E+02  0.15166905539E+02 -0.16776031647E+03  0.16912562203E+03  0.00000000000E+00 0.  1.
         -3    1    1    2    0  502  0.62722880085E+02 -0.57763106548E+02 -0.28369488127E+03  0.29623220929E+03  0.00000000000E+00 0. -1.
<mgrwt>
<rscale>  1 0.30000000E+03</rscale>
<asrwt>0</asrwt>
<pdfrwt beam="1">  1       21 0.32119979E-01 0.30000000E+03</pdfrwt>
<pdfrwt beam="2">0</pdfrwt>
<totfact> 0.94776825E+02</totfact>
</mgrwt>
</event>
<event>
 6    1  0.1274196E-001  0.3000000E+03  0.7818608E-02  0.1093470E+00
         21   -1    0    0  501  502  0.00000000000E+00  0.00000000000E+00  0.12881266445E+01  0.12881266445E+01  0.00000000000E+00 0. -1.
         13   -1    0    0    0    0 -0.00000000000E+00 -0.00000000000E+00 -0.10000000000E+04  0.10000000000E+04  0.00000000000E+00 0.  1.
    9000005    2    1    2  501    0 -0.63912881410E+00 -0.31115626677E+02 -0.74770755537E+03  0.74836173744E+03  0.31797793017E+01 0.  0.
         13    1    3    3    0    0 -0.16547994625E+00 -0.37182250317E+00 -0.44824281342E+01  0.45008663127E+01  0.00000000000E+00 0.  1.
          3    1    3    3  501    0 -0.47364886786E+00 -0.30743804174E+02 -0.74322512723E+03  0.74386087112E+03  0.00000000000E+00 0.  1.
         -1    1    1    2    0  502  0.63912881410E+00  0.31115626677E+02 -0.25100431799E+03  0.25292638921E+03  0.00000000000E+00 0. -1.
<mgrwt>
<rscale>  1 0.30000000E+03</rscale>
<asrwt>0</asrwt>
<pdfrwt beam="1">  1       21 0.46841068E-02 0.30000000E+03</pdfrwt>
<pdfrwt beam="2">0</pdfrwt>
<totfact> 0.32189170E+04</totfact>
</mgrwt>
</event>
<event>
 6    1  0.1274196E-001  0.3000000E+03  0.7818608E-02  0.1093470E+00
         21   -1    0    0  501  502  0.00000000000E+00  0.00000000000E+00  0.46433552279E+01  0.46433552279E+01  0.00000000000E+00 0. -1.
         13   -1    0    0    0    0 -0.00000000000E+00 -0.00000000000E+00 -0.10000000000E+04  0.10000000000E+04  0.00000000000E+00 0.  1.
    9000005    2    1    2  501    0  0.88609074186E+01 -0.37471643312E+02 -0.91178422774E+03  0.91262711416E+03  0.74250791226E+01 0.  0.
         13    1    3    3    0    0  0.68083934945E+01 -0.13824142736E+02 -0.33296222575E+03  0.33331862372E+03  0.00000000000E+00 0.  1.
          1    1    3    3  501    0  0.20525139242E+01 -0.23647500576E+02 -0.57882200200E+03  0.57930849044E+03  0.00000000000E+00 0.  1.
         -1    1    1    2    0  502 -0.88609074186E+01  0.37471643312E+02 -0.83572417028E+02  0.92016241070E+02  0.00000000000E+00 0. -1.
<mgrwt>
<rscale>  1 0.30000000E+03</rscale>
<asrwt>0</asrwt>
<pdfrwt beam="1">  1       21 0.16884964E-01 0.30000000E+03</pdfrwt>
<pdfrwt beam="2">0</pdfrwt>
<totfact> 0.33032502E+03</totfact>
</mgrwt>
</event>
<event>
 6    1  0.1274196E-001  0.3000000E+03  0.7818608E-02  0.1093470E+00
         21   -1    0    0  501  502  0.00000000000E+00  0.00000000000E+00  0.39145099910E+01  0.39145099910E+01  0.00000000000E+00 0. -1.
         13   -1    0    0    0    0 -0.00000000000E+00 -0.00000000000E+00 -0.10000000000E+04  0.10000000000E+04  0.00000000000E+00 0.  1.
    9000005    2    1    2  501    0  0.32610453907E+02 -0.20053312694E+02 -0.89497355773E+03  0.89579790672E+03  0.32624516765E+01 0.  0.
         13    1    3    3    0    0  0.59860195393E+01 -0.26211363644E+01 -0.13409339302E+03  0.13425252638E+03  0.00000000000E+00 0.  1.
          3    1    3    3  501    0  0.26624434368E+02 -0.17432176329E+02 -0.76088016471E+03  0.76154538034E+03  0.00000000000E+00 0.  1.
         -3    1    1    2    0  502 -0.32610453907E+02  0.20053312694E+02 -0.10111193228E+03  0.10811660327E+03  0.00000000000E+00 0. -1.
<mgrwt>
<rscale>  1 0.30000000E+03</rscale>
<asrwt>0</asrwt>
<pdfrwt beam="1">  1       21 0.14234612E-01 0.30000000E+03</pdfrwt>
<pdfrwt beam="2">0</pdfrwt>
<totfact> 0.45359224E+03</totfact>
</mgrwt>
</event>
<event>
 6    1  0.1274196E-001  0.3000000E+03  0.7818608E-02  0.1093470E+00
         21   -1    0    0  501  502  0.00000000000E+00  0.00000000000E+00  0.10639825536E+01  0.10639825536E+01  0.00000000000E+00 0. -1.
         13   -1    0    0    0    0 -0.00000000000E+00 -0.00000000000E+00 -0.10000000000E+04  0.10000000000E+04  0.00000000000E+00 0.  1.
    9000005    2    1    2  501    0  0.15423714915E+02 -0.25965651803E+02 -0.68316512078E+03  0.68385212080E+03  0.51995016879E+01 0.  0.
         13    1    3    3    0    0  0.89717161041E+01 -0.17664647501E+02 -0.39723080236E+03  0.39772458033E+03  0.00000000000E+00 0.  1.
          3    1    3    3  501    0  0.64519988109E+01 -0.83010043027E+01 -0.28593431842E+03  0.28612754046E+03  0.00000000000E+00 0.  1.
         -3    1    1    2    0  502 -0.15423714915E+02  0.25965651803E+02 -0.31577089667E+03  0.31721186176E+03  0.00000000000E+00 0. -1.
<mgrwt>
<rscale>  1 0.30000000E+03</rscale>
<asrwt>0</asrwt>
<pdfrwt beam="1">  1       21 0.38690356E-02 0.30000000E+03</pdfrwt>
<pdfrwt beam="2">0</pdfrwt>
<totfact> 0.44469820E+04</totfact>
</mgrwt>
</event>
<event>
 6    1  0.1274196E-001  0.3000000E+03  0.7818608E-02  0.1093470E+00
         21   -1    0    0  501  502  0.00000000000E+00  0.00000000000E+00  0.18822327320E+02  0.18822327320E+02  0.00000000000E+00 0. -1.
         13   -1    0    0    0    0 -0.00000000000E+00 -0.00000000000E+00 -0.10000000000E+04  0.10000000000E+04  0.00000000000E+00 0.  1.
    9000005    2    1    2  501    0 -0.82088309218E+02  0.37467964841E+02 -0.87428496858E+03  0.87893526899E+03  0.32652537013E+01 0.  0.
         13    1    3    3    0    0 -0.11823907830E+02  0.63920660278E+01 -0.12324287061E+03  0.12397366035E+03  0.00000000000E+00 0.  1.
          3    1    3    3  501    0 -0.70264401388E+02  0.31075898813E+02 -0.75104209797E+03  0.75496160864E+03  0.00000000000E+00 0.  1.
         -3    1    1    2    0  502  0.82088309218E+02 -0.37467964841E+02 -0.10689270410E+03  0.13988705833E+03  0.00000000000E+00 0. -1.
<mgrwt>
<rscale>  1 0.30000000E+03</rscale>
<asrwt>0</asrwt>
<pdfrwt beam="1">  1       21 0.68444971E-01 0.30000000E+03</pdfrwt>
<pdfrwt beam="2">0</pdfrwt>
<totfact> 0.18589972E+02</totfact>
</mgrwt>
</event>
<event>
 6    1  0.1274196E-001  0.3000000E+03  0.7818608E-02  0.1093470E+00
         21   -1    0    0  501  502  0.00000000000E+00  0.00000000000E+00  0.20777299835E+01  0.20777299835E+01  0.00000000000E+00 0. -1.
         13   -1    0    0    0    0 -0.00000000000E+00 -0.00000000000E+00 -0.10000000000E+04  0.10000000000E+04  0.00000000000E+00 0.  1.
    9000005    2    1    2  501    0 -0.32983565094E+02 -0.65786312026E+01 -0.83671600844E+03  0.83740030977E+03  0.37955339722E+01 0.  0.
         13    1    3    3    0    0 -0.26817601042E+02 -0.38615603828E+01 -0.66008643617E+03  0.66064226219E+03  0.00000000000E+00 0.  1.
          1    1    3    3  501    0 -0.61659640522E+01 -0.27170708199E+01 -0.17662957226E+03  0.17675804758E+03  0.00000000000E+00 0.  1.
         -3    1    1    2    0  502  0.32983565094E+02  0.65786312026E+01 -0.16120626158E+03  0.16467742021E+03  0.00000000000E+00 0. -1.
<mgrwt>
<rscale>  1 0.30000000E+03</rscale>
<asrwt>0</asrwt>
<pdfrwt beam="1">  1       21 0.75553977E-02 0.30000000E+03</pdfrwt>
<pdfrwt beam="2">0</pdfrwt>
<totfact> 0.14121303E+04</totfact>
</mgrwt>
</event>
<event>
 6    1  0.1274196E-001  0.3000000E+03  0.7818608E-02  0.1093470E+00
         21   -1    0    0  501  502  0.00000000000E+00  0.00000000000E+00  0.65676569805E+01  0.65676569805E+01  0.00000000000E+00 0. -1.
         13   -1    0    0    0    0 -0.00000000000E+00 -0.00000000000E+00 -0.10000000000E+04  0.10000000000E+04  0.00000000000E+00 0.  1.
    9000005    2    1    2  501    0  0.41022891052E+02  0.12125773435E+02 -0.92413463270E+03  0.92513004511E+03  0.32968223824E+01 0.  0.
         13    1    3    3    0    0  0.21785788315E+02  0.75933716429E+01 -0.47142577565E+03  0.47198998062E+03  0.00000000000E+00 0.  1.
          3    1    3    3  501    0  0.19237102736E+02  0.45324017922E+01 -0.45270885706E+03  0.45314006449E+03  0.00000000000E+00 0.  1.
         -3    1    1    2    0  502 -0.41022891052E+02 -0.12125773435E+02 -0.69297710317E+02  0.81437611869E+02  0.00000000000E+00 0. -1.
<mgrwt>
<rscale>  1 0.30000000E+03</rscale>
<asrwt>0</asrwt>
<pdfrwt beam="1">  1       21 0.23882439E-01 0.30000000E+03</pdfrwt>
<pdfrwt beam="2">0</pdfrwt>
<totfact> 0.17051139E+03</totfact>
</mgrwt>
</event>
<event>
 6    1  0.1274196E-001  0.3000000E+03  0.7818608E-02  0.1093470E+00
         21   -1    0    0  501  502  0.00000000000E+00  0.00000000000E+00  0.96241466107E+01  0.96241466107E+01  0.00000000000E+00 0. -1.
         13   -1    0    0    0    0 -0.00000000000E+00 -0.00000000000E+00 -0.10000000000E+04  0.10000000000E+04  0.00000000000E+00 0.  1.
    9000005    2    1    2  501    0  0.78093622725E+02 -0.46394681425E+01 -0.79968273293E+03  0.80350766313E+03  0.34572786174E+01 0.  0.
         13    1    3    3    0    0  0.72346110579E+02 -0.36639367299E+01 -0.73310263859E+03  0.73667283298E+03  0.00000000000E+00 0.  1.
          3    1    3    3  501    0  0.57475121453E+01 -0.97553141256E+00 -0.66580094347E+02  0.66834830146E+02  0.00000000000E+00 0.  1.
         -3    1    1    2    0  502 -0.78093622725E+02  0.46394681425E+01 -0.19069312046E+03  0.20611648349E+03  0.00000000000E+00 0. -1.
<mgrwt>
<rscale>  1 0.30000000E+03</rscale>
<asrwt>0</asrwt>
<pdfrwt beam="1">  1       21 0.34996971E-01 0.30000000E+03</pdfrwt>
<pdfrwt beam="2">0</pdfrwt>
<totfact> 0.79593530E+02</totfact>
</mgrwt>
</event>
<event>
 6    1  0.1274196E-001  0.3000000E+03  0.7818608E-02  0.1093470E+00
         21   -1    0    0  501  502  0.00000000000E+00  0.00000000000E+00  0.12426531671E+01  0.12426531671E+01  0.00000000000E+00 0. -1.
         13   -1    0    0    0    0 -0.00000000000E+00 -0.00000000000E+00 -0.10000000000E+04  0.10000000000E+04  0.00000000000E+00 0.  1.
    9000005    2    1    2  501    0 -0.30858820644E+02 -0.16165995088E+02 -0.56669652659E+03  0.56777966906E+03  0.38978367469E+01 0.  0.
         13    1    3    3    0    0 -0.69210226013E+01 -0.52818394617E+01 -0.15474095520E+03  0.15498568191E+03  0.00000000000E+00 0.  1.
          1    1    3    3  501    0 -0.23937798043E+02 -0.10884155626E+02 -0.41195557140E+03  0.41279398715E+03  0.00000000000E+00 0.  1.
         -3    1    1    2    0  502  0.30858820644E+02  0.16165995088E+02 -0.43206082024E+03  0.43346298411E+03  0.00000000000E+00 0. -1.
<mgrwt>
<rscale>  1 0.30000000E+03</rscale>
<asrwt>0</asrwt>
<pdfrwt beam="1">  1       21 0.45187483E-02 0.30000000E+03</pdfrwt>
<pdfrwt beam="2">0</pdfrwt>
<totfact> 0.34215898E+04</totfact>
</mgrwt>
</event>
<event>
 6    1  0.1274196E-001  0.3000000E+03  0.7818608E-02  0.1093470E+00
         21   -1    0    0  501  502  0.00000000000E+00  0.00000000000E+00  0.31757927696E+01  0.31757927696E+01  0.00000000000E+00 0. -1.
         13   -1    0    0    0    0 -0.00000000000E+00 -0.00000000000E+00 -0.10000000000E+04  0.10000000000E+04  0.00000000000E+00 0.  1.
    9000005    2    1    2  501    0 -0.12379247245E+02  0.28467118611E+02 -0.91695099394E+03  0.91748242776E+03  0.33552000791E+01 0.  0.
         13    1    3    3    0    0 -0.85672498623E+01  0.18414455269E+02 -0.55366765428E+03  0.55404003585E+03  0.00000000000E+00 0.  1.
          1    1    3    3  501    0 -0.38119973824E+01  0.10052663342E+02 -0.36328333966E+03  0.36344239191E+03  0.00000000000E+00 0.  1.
         -1    1    1    2    0  502  0.12379247245E+02 -0.28467118611E+02 -0.79873213294E+02  0.85693365007E+02  0.00000000000E+00 0. -1.
<mgrwt>
<rscale>  1 0.30000000E+03</rscale>
<asrwt>0</asrwt>
<pdfrwt beam="1">  1       21 0.11548362E-01 0.30000000E+03</pdfrwt>
<pdfrwt beam="2">0</pdfrwt>
<totfact> 0.66429885E+03</totfact>
</mgrwt>
</event>
<event>
 6    1  0.1274196E-001  0.3000000E+03  0.7818608E-02  0.1093470E+00
         21   -1    0    0  501  502  0.00000000000E+00  0.00000000000E+00  0.26775466837E+01  0.26775466837E+01  0.00000000000E+00 0. -1.
         13   -1    0    0    0    0 -0.00000000000E+00 -0.00000000000E+00 -0.10000000000E+04  0.10000000000E+04  0.00000000000E+00 0.  1.
    9000005    2    1    2  501    0  0.32155171422E+02 -0.81025288629E+00 -0.89123404135E+03  0.89182014858E+03  0.32325544908E+01 0.  0.
         13    1    3    3    0    0  0.27847941726E+02 -0.18042657888E+01 -0.77126963205E+03  0.77177432488E+03  0.00000000000E+00 0.  1.
          1    1    3    3  501    0  0.43072296967E+01  0.99401290252E+00 -0.11996440930E+03  0.12004582370E+03  0.00000000000E+00 0.  1.
         -3    1    1    2    0  502 -0.32155171422E+02  0.81025288629E+00 -0.10608841197E+03  0.11085739810E+03  0.00000000000E+00 0. -1.
<mgrwt>
<rscale>  1 0.30000000E+03</rscale>
<asrwt>0</asrwt>
<pdfrwt beam="1">  1       21 0.97365539E-02 0.30000000E+03</pdfrwt>
<pdfrwt beam="2">0</pdfrwt>
<totfact> 0.90232273E+03</totfact>
</mgrwt>
</event>
<event>
 6    1  0.1274196E-001  0.3000000E+03  0.7818608E-02  0.1093470E+00
         21   -1    0    0  501  502  0.00000000000E+00  0.00000000000E+00  0.14160534490E+01  0.14160534490E+01  0.00000000000E+00 0. -1.
         13   -1    0    0    0    0 -0.00000000000E+00 -0.00000000000E+00 -0.10000000000E+04  0.10000000000E+04  0.00000000000E+00 0.  1.
    9000005    2    1    2  501    0 -0.10975741463E+02  0.29146488195E+02 -0.77907818668E+03  0.77971182866E+03  0.42107137006E+01 0.  0.
         13    1    3    3    0    0 -0.20016652499E+01  0.21054453893E+01 -0.82870751661E+02  0.82921656067E+02  0.00000000000E+00 0.  1.
          1    1    3    3  501    0 -0.89740762134E+01  0.27041042806E+02 -0.69620743502E+03  0.69679017259E+03  0.00000000000E+00 0.  1.
         -3    1    1    2    0  502  0.10975741463E+02 -0.29146488195E+02 -0.21950575987E+03  0.22170422479E+03  0.00000000000E+00 0. -1.
<mgrwt>
<rscale>  1 0.30000000E+03</rscale>
<asrwt>0</asrwt>
<pdfrwt beam="1">  1       21 0.51492961E-02 0.30000000E+03</pdfrwt>
<pdfrwt beam="2">0</pdfrwt>
<totfact> 0.27394502E+04</totfact>
</mgrwt>
</event>
<event>
 6    1  0.1274196E-001  0.3000000E+03  0.7818608E-02  0.1093470E+00
         21   -1    0    0  501  502  0.00000000000E+00  0.00000000000E+00  0.11034790735E+01  0.11034790735E+01  0.00000000000E+00 0. -1.
         13   -1    0    0    0    0 -0.00000000000E+00 -0.00000000000E+00 -0.10000000000E+04  0.10000000000E+04  0.00000000000E+00 0.  1.
    9000005    2    1    2  501    0 -0.27006550433E+01 -0.30503572899E+02 -0.69158323086E+03  0.69226821594E+03  0.31868652201E+01 0.  0.
         13    1    3    3    0    0 -0.18300768749E+01 -0.20314221072E+02 -0.49321014048E+03  0.49363170424E+03  0.00000000000E+00 0.  1.
          1    1    3    3  501    0 -0.87057816842E+00 -0.10189351827E+02 -0.19837309037E+03  0.19863651170E+03  0.00000000000E+00 0.  1.
         -3    1    1    2    0  502  0.27006550433E+01  0.30503572899E+02 -0.30731329007E+03  0.30883526313E+03  0.00000000000E+00 0. -1.
<mgrwt>
<rscale>  1 0.30000000E+03</rscale>
<asrwt>0</asrwt>
<pdfrwt beam="1">  1       21 0.40126596E-02 0.30000000E+03</pdfrwt>
<pdfrwt beam="2">0</pdfrwt>
<totfact> 0.41824150E+04</totfact>
</mgrwt>
</event>
<event>
 6    1  0.1274196E-001  0.3000000E+03  0.7818608E-02  0.1093470E+00
         21   -1    0    0  501  502  0.00000000000E+00  0.00000000000E+00  0.16254810076E+01  0.16254810076E+01  0.00000000000E+00 0. -1.
         13   -1    0    0    0    0 -0.00000000000E+00 -0.00000000000E+00 -0.10000000000E+04  0.10000000000E+04  0.00000000000E+00 0.  1.
    9000005    2    1    2  501    0  0.34426692591E+02 -0.13875329114E+02 -0.30623765647E+03  0.30849406606E+03  0.30601691180E+01 0.  0.
         13    1    3    3    0    0  0.20150265323E+02 -0.88007894879E+01 -0.19246076457E+03  0.19371275897E+03  0.00000000000E+00 0.  1.
          1    1    3    3  501    0  0.14276427268E+02 -0.50745396259E+01 -0.11377689190E+03  0.11478130709E+03  0.00000000000E+00 0.  1.
         -3    1    1    2    0  502 -0.34426692591E+02  0.13875329114E+02 -0.69213686252E+03  0.69313141495E+03  0.00000000000E+00 0. -1.
<mgrwt>
<rscale>  1 0.30000000E+03</rscale>
<asrwt>0</asrwt>
<pdfrwt beam="1">  1       21 0.59108525E-02 0.30000000E+03</pdfrwt>
<pdfrwt beam="2">0</pdfrwt>
<totfact> 0.21622591E+04</totfact>
</mgrwt>
</event>
<event>
 6    1  0.1274196E-001  0.3000000E+03  0.7818608E-02  0.1093470E+00
         21   -1    0    0  501  502  0.00000000000E+00  0.00000000000E+00  0.17683974577E+01  0.17683974577E+01  0.00000000000E+00 0. -1.
         13   -1    0    0    0    0 -0.00000000000E+00 -0.00000000000E+00 -0.10000000000E+04  0.10000000000E+04  0.00000000000E+00 0.  1.
    9000005    2    1    2  501    0  0.34269873129E+02 -0.13547762856E+02 -0.73892733504E+03  0.73985873894E+03  0.44023886992E+01 0.  0.
         13    1    3    3    0    0  0.20977062481E+02 -0.65433961580E+01 -0.46681224411E+03  0.46732913930E+03  0.00000000000E+00 0.  1.
          3    1    3    3  501    0  0.13292810648E+02 -0.70043666983E+01 -0.27211509093E+03  0.27252959964E+03  0.00000000000E+00 0.  1.
         -3    1    1    2    0  502 -0.34269873129E+02  0.13547762856E+02 -0.25930426750E+03  0.26190965852E+03  0.00000000000E+00 0. -1.
<mgrwt>
<rscale>  1 0.30000000E+03</rscale>
<asrwt>0</asrwt>
<pdfrwt beam="1">  1       21 0.64305498E-02 0.30000000E+03</pdfrwt>
<pdfrwt beam="2">0</pdfrwt>
<totfact> 0.18694421E+04</totfact>
</mgrwt>
</event>
<event>
 6    1  0.1274196E-001  0.3000000E+03  0.7818608E-02  0.1093470E+00
         21   -1    0    0  501  502  0.00000000000E+00  0.00000000000E+00  0.14557080302E+01  0.14557080302E+01  0.00000000000E+00 0. -1.
         13   -1    0    0    0    0 -0.00000000000E+00 -0.00000000000E+00 -0.10000000000E+04  0.10000000000E+04  0.00000000000E+00 0.  1.
    9000005    2    1    2  501    0  0.34262465726E+02  0.15986656238E+02 -0.56102135545E+03  0.56230219305E+03  0.30504600757E+01 0.  0.
         13    1    3    3    0    0  0.30854632791E+02  0.13455117374E+02 -0.50439762239E+03  0.50551954465E+03  0.00000000000E+00 0.  1.
          1    1    3    3  501    0  0.34078329348E+01  0.25315388638E+01 -0.56623733060E+02  0.56782648406E+02  0.00000000000E+00 0.  1.
         -3    1    1    2    0  502 -0.34262465726E+02 -0.15986656238E+02 -0.43752293652E+03  0.43915351498E+03  0.00000000000E+00 0. -1.
<mgrwt>
<rscale>  1 0.30000000E+03</rscale>
<asrwt>0</asrwt>
<pdfrwt beam="1">  1       21 0.52934949E-02 0.30000000E+03</pdfrwt>
<pdfrwt beam="2">0</pdfrwt>
<totfact> 0.26131694E+04</totfact>
</mgrwt>
</event>
<event>
 6    1  0.1274196E-001  0.3000000E+03  0.7818608E-02  0.1093470E+00
         21   -1    0    0  501  502  0.00000000000E+00  0.00000000000E+00  0.15371774750E+01  0.15371774750E+01  0.00000000000E+00 0. -1.
         13   -1    0    0    0    0 -0.00000000000E+00 -0.00000000000E+00 -0.10000000000E+04  0.10000000000E+04  0.00000000000E+00 0.  1.
    9000005    2    1    2  501    0 -0.47869317194E+01  0.38710032516E+02 -0.54115517659E+03  0.54256913462E+03  0.33104921384E+01 0.  0.
         13    1    3    3    0    0 -0.14826276483E+01  0.21999702735E+02 -0.29010171741E+03  0.29093846694E+03  0.00000000000E+00 0.  1.
          3    1    3    3  501    0 -0.33043040711E+01  0.16710329781E+02 -0.25105345919E+03  0.25163066768E+03  0.00000000000E+00 0.  1.
         -1    1    1    2    0  502  0.47869317194E+01 -0.38710032516E+02 -0.45730764593E+03  0.45896804285E+03  0.00000000000E+00 0. -1.
<mgrwt>
<rscale>  1 0.30000000E+03</rscale>
<asrwt>0</asrwt>
<pdfrwt beam="1">  1       21 0.55897481E-02 0.30000000E+03</pdfrwt>
<pdfrwt beam="2">0</pdfrwt>
<totfact> 0.23803831E+04</totfact>
</mgrwt>
</event>
<event>
 6    1  0.1274196E-001  0.3000000E+03  0.7818608E-02  0.1093470E+00
         21   -1    0    0  501  502  0.00000000000E+00  0.00000000000E+00  0.10292149725E+01  0.10292149725E+01  0.00000000000E+00 0. -1.
         13   -1    0    0    0    0 -0.00000000000E+00 -0.00000000000E+00 -0.10000000000E+04  0.10000000000E+04  0.00000000000E+00 0.  1.
    9000005    2    1    2  501    0  0.21426901150E+02  0.21602513578E+02 -0.34792668834E+03  0.34927450919E+03  0.37311688167E+01 0.  0.
         13    1    3    3    0    0  0.80350750391E+01  0.70527971431E+01 -0.10425820057E+03  0.10480494628E+03  0.00000000000E+00 0.  1.
          1    1    3    3  501    0  0.13391826111E+02  0.14549716435E+02 -0.24366848778E+03  0.24446956291E+03  0.00000000000E+00 0.  1.
         -1    1    1    2    0  502 -0.21426901150E+02 -0.21602513578E+02 -0.65104409668E+03  0.65175470579E+03  0.00000000000E+00 0. -1.
<mgrwt>
<rscale>  1 0.30000000E+03</rscale>
<asrwt>0</asrwt>
<pdfrwt beam="1">  1       21 0.37426078E-02 0.30000000E+03</pdfrwt>
<pdfrwt beam="2">0</pdfrwt>
<totfact> 0.47022823E+04</totfact>
</mgrwt>
</event>
<event>
 6    1  0.1274196E-001  0.3000000E+03  0.7818608E-02  0.1093470E+00
         21   -1    0    0  501  502  0.00000000000E+00  0.00000000000E+00  0.15641326583E+01  0.15641326583E+01  0.00000000000E+00 0. -1.
         13   -1    0    0    0    0 -0.00000000000E+00 -0.00000000000E+00 -0.10000000000E+04  0.10000000000E+04  0.00000000000E+00 0.  1.
    9000005    2    1    2  501    0 -0.30630418445E+02  0.11848829476E+02 -0.22272761060E+03  0.22516094045E+03  0.33531010501E+01 0.  0.
         13    1    3    3    0    0 -0.71557249150E+00 -0.12821398186E+00 -0.73950463195E+01  0.74306926247E+01  0.00000000000E+00 0.  1.
          1    1    3    3  501    0 -0.29914845954E+02  0.11977043458E+02 -0.21533256428E+03  0.21773024783E+03  0.00000000000E+00 0.  1.
         -1    1    1    2    0  502  0.30630418445E+02 -0.11848829476E+02 -0.77570825674E+03  0.77640319221E+03  0.00000000000E+00 0. -1.
<mgrwt>
<rscale>  1 0.30000000E+03</rscale>
<asrwt>0</asrwt>
<pdfrwt beam="1">  1       21 0.56877671E-02 0.30000000E+03</pdfrwt>
<pdfrwt beam="2">0</pdfrwt>
<totfact> 0.23103446E+04</totfact>
</mgrwt>
</event>
<event>
 6    1  0.1274196E-001  0.3000000E+03  0.7818608E-02  0.1093470E+00
         21   -1    0    0  501  502  0.00000000000E+00  0.00000000000E+00  0.14499288562E+01  0.14499288562E+01  0.00000000000E+00 0. -1.
         13   -1    0    0    0    0 -0.00000000000E+00 -0.00000000000E+00 -0.10000000000E+04  0.10000000000E+04  0.00000000000E+00 0.  1.
    9000005    2    1    2  501    0 -0.37705526651E+02  0.46979439620E+01 -0.48640764088E+03  0.48789988621E+03  0.31825221521E+01 0.  0.
         13    1    3    3    0    0 -0.33720805596E+02  0.38034062776E+01 -0.44464658973E+03  0.44593962415E+03  0.00000000000E+00 0.  1.
          1    1    3    3  501    0 -0.39847210545E+01  0.89453768442E+00 -0.41761051147E+02  0.41960262063E+02  0.00000000000E+00 0.  1.
         -1    1    1    2    0  502  0.37705526651E+02 -0.46979439620E+01 -0.51214243027E+03  0.51355004264E+03  0.00000000000E+00 0. -1.
<mgrwt>
<rscale>  1 0.30000000E+03</rscale>
<asrwt>0</asrwt>
<pdfrwt beam="1">  1       21 0.52724797E-02 0.30000000E+03</pdfrwt>
<pdfrwt beam="2">0</pdfrwt>
<totfact> 0.26310051E+04</totfact>
</mgrwt>
</event>
<event>
 6    1  0.1274196E-001  0.3000000E+03  0.7818608E-02  0.1093470E+00
         21   -1    0    0  501  502  0.00000000000E+00  0.00000000000E+00  0.13407029849E+01  0.13407029849E+01  0.00000000000E+00 0. -1.
         13   -1    0    0    0    0 -0.00000000000E+00 -0.00000000000E+00 -0.10000000000E+04  0.10000000000E+04  0.00000000000E+00 0.  1.
    9000005    2    1    2  501    0  0.14860207881E+02  0.30746577766E+02 -0.67833449427E+03  0.67920073795E+03  0.31270569297E+01 0.  0.
         13    1    3    3    0    0  0.12166667845E+02  0.21999117504E+02 -0.49673351302E+03  0.49736925109E+03  0.00000000000E+00 0.  1.
          1    1    3    3  501    0  0.26935400359E+01  0.87474602623E+01 -0.18160098126E+03  0.18183148686E+03  0.00000000000E+00 0.  1.
         -1    1    1    2    0  502 -0.14860207881E+02 -0.30746577766E+02 -0.32032480274E+03  0.32213996504E+03  0.00000000000E+00 0. -1.
<mgrwt>
<rscale>  1 0.30000000E+03</rscale>
<asrwt>0</asrwt>
<pdfrwt beam="1">  1       21 0.48752939E-02 0.30000000E+03</pdfrwt>
<pdfrwt beam="2">0</pdfrwt>
<totfact> 0.30071214E+04</totfact>
</mgrwt>
</event>
<event>
 6    1  0.1274196E-001  0.3000000E+03  0.7818608E-02  0.1093470E+00
         21   -1    0    0  501  502  0.00000000000E+00  0.00000000000E+00  0.12839818350E+01  0.12839818350E+01  0.00000000000E+00 0. -1.
         13   -1    0    0    0    0 -0.00000000000E+00 -0.00000000000E+00 -0.10000000000E+04  0.10000000000E+04  0.00000000000E+00 0.  1.
    9000005    2    1    2  501    0 -0.47225799366E+00 -0.32282159694E+02 -0.71361763548E+03  0.71436335053E+03  0.47440533522E+01 0.  0.
         13    1    3    3    0    0 -0.11207666118E+01 -0.28944346639E+02 -0.66235793644E+03  0.66299100090E+03  0.00000000000E+00 0.  1.
          3    1    3    3  501    0  0.64850861818E+00 -0.33378130551E+01 -0.51259699046E+02  0.51372349622E+02  0.00000000000E+00 0.  1.
         -3    1    1    2    0  502  0.47225799366E+00  0.32282159694E+02 -0.28509838268E+03  0.28692063131E+03  0.00000000000E+00 0. -1.
<mgrwt>
<rscale>  1 0.30000000E+03</rscale>
<asrwt>0</asrwt>
<pdfrwt beam="1">  1       21 0.46690347E-02 0.30000000E+03</pdfrwt>
<pdfrwt beam="2">0</pdfrwt>
<totfact> 0.32366008E+04</totfact>
</mgrwt>
</event>
<event>
 6    1  0.1274196E-001  0.3000000E+03  0.7818608E-02  0.1093470E+00
         21   -1    0    0  501  502  0.00000000000E+00  0.00000000000E+00  0.19797571920E+01  0.19797571920E+01  0.00000000000E+00 0. -1.
         13   -1    0    0    0    0 -0.00000000000E+00 -0.00000000000E+00 -0.10000000000E+04  0.10000000000E+04  0.00000000000E+00 0.  1.
    9000005    2    1    2  501    0 -0.40774554508E+02  0.11417193715E+02 -0.65072511669E+03  0.65211289504E+03  0.38902155466E+01 0.  0.
         13    1    3    3    0    0 -0.14401452071E+02  0.28503493416E+01 -0.20339324902E+03  0.20392238735E+03  0.00000000000E+00 0.  1.
          3    1    3    3  501    0 -0.26373102436E+02  0.85668443734E+01 -0.44733186767E+03  0.44819050769E+03  0.00000000000E+00 0.  1.
         -1    1    1    2    0  502  0.40774554508E+02 -0.11417193715E+02 -0.34729512612E+03  0.34986686215E+03  0.00000000000E+00 0. -1.
<mgrwt>
<rscale>  1 0.30000000E+03</rscale>
<asrwt>0</asrwt>
<pdfrwt beam="1">  1       21 0.71991322E-02 0.30000000E+03</pdfrwt>
<pdfrwt beam="2">0</pdfrwt>
<totfact> 0.15365644E+04</totfact>
</mgrwt>
</event>
<event>
 6    1  0.1274196E-001  0.3000000E+03  0.7818608E-02  0.1093470E+00
         21   -1    0    0  501  502  0.00000000000E+00  0.00000000000E+00  0.58991728753E+01  0.58991728753E+01  0.00000000000E+00 0. -1.
         13   -1    0    0    0    0 -0.00000000000E+00 -0.00000000000E+00 -0.10000000000E+04  0.10000000000E+04  0.00000000000E+00 0.  1.
    9000005    2    1    2  501    0  0.36258288558E+02 -0.92193476809E+01 -0.93625684369E+03  0.93701095704E+03  0.36050525565E+01 0.  0.
         13    1    3    3    0    0  0.11088447840E+02 -0.42751802770E+01 -0.31946522371E+03  0.31968618988E+03  0.00000000000E+00 0.  1.
          1    1    3    3  501    0  0.25169840718E+02 -0.49441674039E+01 -0.61679161998E+03  0.61732476716E+03  0.00000000000E+00 0.  1.
         -3    1    1    2    0  502 -0.36258288558E+02  0.92193476809E+01 -0.57843983437E+02  0.68888215833E+02  0.00000000000E+00 0. -1.
<mgrwt>
<rscale>  1 0.30000000E+03</rscale>
<asrwt>0</asrwt>
<pdfrwt beam="1">  1       21 0.21451583E-01 0.30000000E+03</pdfrwt>
<pdfrwt beam="2">0</pdfrwt>
<totfact> 0.20980045E+03</totfact>
</mgrwt>
</event>
<event>
 6    1  0.1274196E-001  0.3000000E+03  0.7818608E-02  0.1093470E+00
         21   -1    0    0  501  502  0.00000000000E+00  0.00000000000E+00  0.32189527005E+01  0.32189527005E+01  0.00000000000E+00 0. -1.
         13   -1    0    0    0    0 -0.00000000000E+00 -0.00000000000E+00 -0.10000000000E+04  0.10000000000E+04  0.00000000000E+00 0.  1.
    9000005    2    1    2  501    0  0.35325196958E+02  0.43110893390E+02 -0.58929956510E+03  0.59194340394E+03  0.40739879168E+01 0.  0.
         13    1    3    3    0    0  0.25165704310E+02  0.33478598770E+02 -0.43962383768E+03  0.44161436560E+03  0.00000000000E+00 0.  1.
          3    1    3    3  501    0  0.10159492648E+02  0.96322946197E+01 -0.14967572742E+03  0.15032903834E+03  0.00000000000E+00 0.  1.
         -1    1    1    2    0  502 -0.35325196958E+02 -0.43110893390E+02 -0.40748148220E+03  0.41127554876E+03  0.00000000000E+00 0. -1.
<mgrwt>
<rscale>  1 0.30000000E+03</rscale>
<asrwt>0</asrwt>
<pdfrwt beam="1">  1       21 0.11705307E-01 0.30000000E+03</pdfrwt>
<pdfrwt beam="2">0</pdfrwt>
<totfact> 0.64827705E+03</totfact>
</mgrwt>
</event>
<event>
 6    1  0.1274196E-001  0.3000000E+03  0.7818608E-02  0.1093470E+00
         21   -1    0    0  501  502  0.00000000000E+00  0.00000000000E+00  0.29856486770E+01  0.29856486770E+01  0.00000000000E+00 0. -1.
         13   -1    0    0    0    0 -0.00000000000E+00 -0.00000000000E+00 -0.10000000000E+04  0.10000000000E+04  0.00000000000E+00 0.  1.
    9000005    2    1    2  501    0  0.45548298292E+02 -0.28096593606E+02 -0.40008229802E+03  0.40365940837E+03  0.33176398337E+01 0.  0.
         13    1    3    3    0    0  0.15078113296E+02 -0.75916378434E+01 -0.12220112857E+03  0.12336165648E+03  0.00000000000E+00 0.  1.
          1    1    3    3  501    0  0.30470184996E+02 -0.20504955763E+02 -0.27788116945E+03  0.28029775190E+03  0.00000000000E+00 0.  1.
         -3    1    1    2    0  502 -0.45548298292E+02  0.28096593606E+02 -0.59693205331E+03  0.59932624030E+03  0.00000000000E+00 0. -1.
<mgrwt>
<rscale>  1 0.30000000E+03</rscale>
<asrwt>0</asrwt>
<pdfrwt beam="1">  1       21 0.10856927E-01 0.30000000E+03</pdfrwt>
<pdfrwt beam="2">0</pdfrwt>
<totfact> 0.74247691E+03</totfact>
</mgrwt>
</event>
<event>
 6    1  0.1274196E-001  0.3000000E+03  0.7818608E-02  0.1093470E+00
         21   -1    0    0  501  502  0.00000000000E+00  0.00000000000E+00  0.18976525692E+01  0.18976525692E+01  0.00000000000E+00 0. -1.
         13   -1    0    0    0    0 -0.00000000000E+00 -0.00000000000E+00 -0.10000000000E+04  0.10000000000E+04  0.00000000000E+00 0.  1.
    9000005    2    1    2  501    0 -0.28904917316E+02 -0.31700538942E+02 -0.57923215566E+03  0.58083630791E+03  0.45285780132E+01 0.  0.
         13    1    3    3    0    0 -0.24901732559E+02 -0.26382590813E+02 -0.50803736484E+03  0.50933103327E+03  0.00000000000E+00 0.  1.
          1    1    3    3  501    0 -0.40031847567E+01 -0.53179481288E+01 -0.71194790823E+02  0.71505274637E+02  0.00000000000E+00 0.  1.
         -3    1    1    2    0  502  0.28904917316E+02  0.31700538942E+02 -0.41887019177E+03  0.42106134466E+03  0.00000000000E+00 0. -1.
<mgrwt>
<rscale>  1 0.30000000E+03</rscale>
<asrwt>0</asrwt>
<pdfrwt beam="1">  1       21 0.69005693E-02 0.30000000E+03</pdfrwt>
<pdfrwt beam="2">0</pdfrwt>
<totfact> 0.16541826E+04</totfact>
</mgrwt>
</event>
<event>
 6    1  0.1274196E-001  0.3000000E+03  0.7818608E-02  0.1093470E+00
         21   -1    0    0  501  502  0.00000000000E+00  0.00000000000E+00  0.10520211082E+02  0.10520211082E+02  0.00000000000E+00 0. -1.
         13   -1    0    0    0    0 -0.00000000000E+00 -0.00000000000E+00 -0.10000000000E+04  0.10000000000E+04  0.00000000000E+00 0.  1.
    9000005    2    1    2  501    0 -0.11239157278E+02 -0.28788169420E+02 -0.97651028821E+03  0.97700476235E+03  0.32992911285E+01 0.  0.
         13    1    3    3    0    0 -0.10875307179E+02 -0.26528439076E+02 -0.87843652602E+03  0.87890429549E+03  0.00000000000E+00 0.  1.
          3    1    3    3  501    0 -0.36385009940E+00 -0.22597303446E+01 -0.98073762189E+02  0.98100466860E+02  0.00000000000E+00 0.  1.
         -1    1    1    2    0  502  0.11239157278E+02  0.28788169420E+02 -0.12969500705E+02  0.33515448728E+02  0.00000000000E+00 0. -1.
<mgrwt>
<rscale>  1 0.30000000E+03</rscale>
<asrwt>0</asrwt>
<pdfrwt beam="1">  1       21 0.38255394E-01 0.30000000E+03</pdfrwt>
<pdfrwt beam="2">0</pdfrwt>
<totfact> 0.66270819E+02</totfact>
</mgrwt>
</event>
<event>
 6    1  0.1274196E-001  0.3000000E+03  0.7818608E-02  0.1093470E+00
         21   -1    0    0  501  502  0.00000000000E+00  0.00000000000E+00  0.54971900647E+01  0.54971900647E+01  0.00000000000E+00 0. -1.
         13   -1    0    0    0    0 -0.00000000000E+00 -0.00000000000E+00 -0.10000000000E+04  0.10000000000E+04  0.00000000000E+00 0.  1.
    9000005    2    1    2  501    0  0.26826962317E+02 -0.48111817166E+02 -0.83362537012E+03  0.83545018627E+03  0.33649921440E+01 0.  0.
         13    1    3    3    0    0  0.10162866111E+02 -0.17136463100E+02 -0.27870619371E+03  0.27941740216E+03  0.00000000000E+00 0.  1.
          1    1    3    3  501    0  0.16664096205E+02 -0.30975354065E+02 -0.55491917641E+03  0.55603278411E+03  0.00000000000E+00 0.  1.
         -3    1    1    2    0  502 -0.26826962317E+02  0.48111817166E+02 -0.16087743982E+03  0.17004700380E+03  0.00000000000E+00 0. -1.
<mgrwt>
<rscale>  1 0.30000000E+03</rscale>
<asrwt>0</asrwt>
<pdfrwt beam="1">  1       21 0.19989824E-01 0.30000000E+03</pdfrwt>
<pdfrwt beam="2">0</pdfrwt>
<totfact> 0.24015542E+03</totfact>
</mgrwt>
</event>
<event>
 6    1  0.1274196E-001  0.3000000E+03  0.7818608E-02  0.1093470E+00
         21   -1    0    0  501  502  0.00000000000E+00  0.00000000000E+00  0.22030951680E+01  0.22030951680E+01  0.00000000000E+00 0. -1.
         13   -1    0    0    0    0 -0.00000000000E+00 -0.00000000000E+00 -0.10000000000E+04  0.10000000000E+04  0.00000000000E+00 0.  1.
    9000005    2    1    2  501    0 -0.18591211932E+02  0.32059313927E+02 -0.80611404279E+03  0.80697053546E+03  0.28569813281E+01 0.  0.
         13    1    3    3    0    0 -0.11637673735E+02  0.20161784187E+02 -0.47578984860E+03  0.47635901695E+03  0.00000000000E+00 0.  1.
          3    1    3    3  501    0 -0.69535381971E+01  0.11897529740E+02 -0.33032419419E+03  0.33061151852E+03  0.00000000000E+00 0.  1.
         -1    1    1    2    0  502  0.18591211932E+02 -0.32059313927E+02 -0.19168286204E+03  0.19523255971E+03  0.00000000000E+00 0. -1.
<mgrwt>
<rscale>  1 0.30000000E+03</rscale>
<asrwt>0</asrwt>
<pdfrwt beam="1">  1       21 0.80112720E-02 0.30000000E+03</pdfrwt>
<pdfrwt beam="2">0</pdfrwt>
<totfact> 0.12742315E+04</totfact>
</mgrwt>
</event>
<event>
 6    1  0.1274196E-001  0.3000000E+03  0.7818608E-02  0.1093470E+00
         21   -1    0    0  501  502  0.00000000000E+00  0.00000000000E+00  0.11799647658E+01  0.11799647658E+01  0.00000000000E+00 0. -1.
         13   -1    0    0    0    0 -0.00000000000E+00 -0.00000000000E+00 -0.10000000000E+04  0.10000000000E+04  0.00000000000E+00 0.  1.
    9000005    2    1    2  501    0 -0.15796907199E+02 -0.28792709139E+02 -0.64305989505E+03  0.64390718421E+03  0.34454156650E+01 0.  0.
         13    1    3    3    0    0 -0.12615766691E+02 -0.25460302989E+02 -0.55407784670E+03  0.55480595238E+03  0.00000000000E+00 0.  1.
          3    1    3    3  501    0 -0.31811405082E+01 -0.33324061499E+01 -0.88982048348E+02  0.89101231831E+02  0.00000000000E+00 0.  1.
         -1    1    1    2    0  502  0.15796907199E+02  0.28792709139E+02 -0.35576014019E+03  0.35727278055E+03  0.00000000000E+00 0. -1.
<mgrwt>
<rscale>  1 0.30000000E+03</rscale>
<asrwt>0</asrwt>
<pdfrwt beam="1">  1       21 0.42907900E-02 0.30000000E+03</pdfrwt>
<pdfrwt beam="2">0</pdfrwt>
<totfact> 0.37351935E+04</totfact>
</mgrwt>
</event>
<event>
 6    1  0.1274196E-001  0.3000000E+03  0.7818608E-02  0.1093470E+00
         21   -1    0    0  501  502  0.00000000000E+00  0.00000000000E+00  0.30346865528E+01  0.30346865528E+01  0.00000000000E+00 0. -1.
         13   -1    0    0    0    0 -0.00000000000E+00 -0.00000000000E+00 -0.10000000000E+04  0.10000000000E+04  0.00000000000E+00 0.  1.
    9000005    2    1    2  501    0 -0.17959240937E+02  0.26126323657E+02 -0.90853608975E+03  0.90909403121E+03  0.30020123098E+01 0.  0.
         13    1    3    3    0    0 -0.15585821119E+02  0.20617705130E+02 -0.73402418543E+03  0.73447907553E+03  0.00000000000E+00 0.  1.
          3    1    3    3  501    0 -0.23734198177E+01  0.55086185267E+01 -0.17451190432E+03  0.17461495568E+03  0.00000000000E+00 0.  1.
         -3    1    1    2    0  502  0.17959240937E+02 -0.26126323657E+02 -0.88429223698E+02  0.93940655345E+02  0.00000000000E+00 0. -1.
<mgrwt>
<rscale>  1 0.30000000E+03</rscale>
<asrwt>0</asrwt>
<pdfrwt beam="1">  1       21 0.11035247E-01 0.30000000E+03</pdfrwt>
<pdfrwt beam="2">0</pdfrwt>
<totfact> 0.72103964E+03</totfact>
</mgrwt>
</event>
<event>
 6    1  0.1274196E-001  0.3000000E+03  0.7818608E-02  0.1093470E+00
         21   -1    0    0  501  502  0.00000000000E+00  0.00000000000E+00  0.89375524529E+01  0.89375524529E+01  0.00000000000E+00 0. -1.
         13   -1    0    0    0    0 -0.00000000000E+00 -0.00000000000E+00 -0.10000000000E+04  0.10000000000E+04  0.00000000000E+00 0.  1.
    9000005    2    1    2  501    0  0.50735766518E+02 -0.71081099166E+02 -0.68849236183E+03  0.69401645530E+03  0.32353149043E+01 0.  0.
         13    1    3    3    0    0  0.35370547718E+02 -0.47599956669E+02 -0.47518763031E+03  0.47887379916E+03  0.00000000000E+00 0.  1.
          1    1    3    3  501    0  0.15365218800E+02 -0.23481142497E+02 -0.21330473152E+03  0.21514265614E+03  0.00000000000E+00 0.  1.
         -1    1    1    2    0  502 -0.50735766518E+02  0.71081099166E+02 -0.30257008572E+03  0.31492109716E+03  0.00000000000E+00 0. -1.
<mgrwt>
<rscale>  1 0.30000000E+03</rscale>
<asrwt>0</asrwt>
<pdfrwt beam="1">  1       21 0.32500259E-01 0.30000000E+03</pdfrwt>
<pdfrwt beam="2">0</pdfrwt>
<totfact> 0.92544672E+02</totfact>
</mgrwt>
</event>
<event>
 6    1  0.1274196E-001  0.3000000E+03  0.7818608E-02  0.1093470E+00
         21   -1    0    0  501  502  0.00000000000E+00  0.00000000000E+00  0.20836567692E+01  0.20836567692E+01  0.00000000000E+00 0. -1.
         13   -1    0    0    0    0 -0.00000000000E+00 -0.00000000000E+00 -0.10000000000E+04  0.10000000000E+04  0.00000000000E+00 0.  1.
    9000005    2    1    2  501    0 -0.36433863676E+02  0.20569422096E+02 -0.69817063969E+03  0.69943201818E+03  0.35182931407E+01 0.  0.
         13    1    3    3    0    0 -0.35232279794E+02  0.20248699740E+02 -0.68439720048E+03  0.68560254624E+03  0.00000000000E+00 0.  1.
          3    1    3    3  501    0 -0.12015838825E+01  0.32072235568E+00 -0.13773439206E+02  0.13829471943E+02  0.00000000000E+00 0.  1.
         -1    1    1    2    0  502  0.36433863676E+02 -0.20569422096E+02 -0.29974570354E+03  0.30265163859E+03  0.00000000000E+00 0. -1.
<mgrwt>
<rscale>  1 0.30000000E+03</rscale>
<asrwt>0</asrwt>
<pdfrwt beam="1">  1       21 0.75769497E-02 0.30000000E+03</pdfrwt>
<pdfrwt beam="2">0</pdfrwt>
<totfact> 0.14051025E+04</totfact>
</mgrwt>
</event>
<event>
 6    1  0.1274196E-001  0.3000000E+03  0.7818608E-02  0.1093470E+00
         21   -1    0    0  501  502  0.00000000000E+00  0.00000000000E+00  0.27929208624E+01  0.27929208624E+01  0.00000000000E+00 0. -1.
         13   -1    0    0    0    0 -0.00000000000E+00 -0.00000000000E+00 -0.10000000000E+04  0.10000000000E+04  0.00000000000E+00 0.  1.
    9000005    2    1    2  501    0 -0.37829570504E+02  0.16595924296E+02 -0.81092689422E+03  0.81198723856E+03  0.37877037380E+01 0.  0.
         13    1    3    3    0    0 -0.20601387138E+02  0.94774957352E+01 -0.48079746973E+03  0.48133195092E+03  0.00000000000E+00 0.  1.
          1    1    3    3  501    0 -0.17228183365E+02  0.71184285606E+01 -0.33012942449E+03  0.33065528764E+03  0.00000000000E+00 0.  1.
         -1    1    1    2    0  502  0.37829570504E+02 -0.16595924296E+02 -0.18628018491E+03  0.19080568230E+03  0.00000000000E+00 0. -1.
<mgrwt>
<rscale>  1 0.30000000E+03</rscale>
<asrwt>0</asrwt>
<pdfrwt beam="1">  1       21 0.10156097E-01 0.30000000E+03</pdfrwt>
<pdfrwt beam="2">0</pdfrwt>
<totfact> 0.83682465E+03</totfact>
</mgrwt>
</event>
<event>
 6    1  0.1274196E-001  0.3000000E+03  0.7818608E-02  0.1093470E+00
         21   -1    0    0  501  502  0.00000000000E+00  0.00000000000E+00  0.73748090855E+01  0.73748090855E+01  0.00000000000E+00 0. -1.
         13   -1    0    0    0    0 -0.00000000000E+00 -0.00000000000E+00 -0.10000000000E+04  0.10000000000E+04  0.00000000000E+00 0.  1.
    9000005    2    1    2  501    0 -0.49708184642E+02 -0.70357496072E+01 -0.90492564190E+03  0.90632226686E+03  0.30378687100E+01 0.  0.
         13    1    3    3    0    0 -0.37689593872E+02 -0.65071043502E+01 -0.67786549930E+03  0.67894365232E+03  0.00000000000E+00 0.  1.
          1    1    3    3  501    0 -0.12018590770E+02 -0.52864525699E+00 -0.22706014260E+03  0.22737861453E+03  0.00000000000E+00 0.  1.
         -1    1    1    2    0  502  0.49708184642E+02  0.70357496072E+01 -0.87699549019E+02  0.10105254223E+03  0.00000000000E+00 0. -1.
<mgrwt>
<rscale>  1 0.30000000E+03</rscale>
<asrwt>0</asrwt>
<pdfrwt beam="1">  1       21 0.26817544E-01 0.30000000E+03</pdfrwt>
<pdfrwt beam="2">0</pdfrwt>
<totfact> 0.13585435E+03</totfact>
</mgrwt>
</event>
<event>
 6    1  0.1274196E-001  0.3000000E+03  0.7818608E-02  0.1093470E+00
         21   -1    0    0  501  502  0.00000000000E+00  0.00000000000E+00  0.48411594132E+01  0.48411594132E+01  0.00000000000E+00 0. -1.
         13   -1    0    0    0    0 -0.00000000000E+00 -0.00000000000E+00 -0.10000000000E+04  0.10000000000E+04  0.00000000000E+00 0.  1.
    9000005    2    1    2  501    0 -0.42958402192E+02  0.30932401608E+02 -0.82210788207E+03  0.82387466519E+03  0.10288653511E+02 0.  0.
         13    1    3    3    0    0 -0.39191667851E+01 -0.30122690717E+00 -0.59806701866E+02  0.59935733866E+02  0.00000000000E+00 0.  1.
          3    1    3    3  501    0 -0.39039235407E+02  0.31233628515E+02 -0.76230118021E+03  0.76393893133E+03  0.00000000000E+00 0.  1.
         -1    1    1    2    0  502  0.42958402192E+02 -0.30932401608E+02 -0.17305095851E+03  0.18096649422E+03  0.00000000000E+00 0. -1.
<mgrwt>
<rscale>  1 0.30000000E+03</rscale>
<asrwt>0</asrwt>
<pdfrwt beam="1">  1       21 0.17604253E-01 0.30000000E+03</pdfrwt>
<pdfrwt beam="2">0</pdfrwt>
<totfact> 0.30546700E+03</totfact>
</mgrwt>
</event>
<event>
 6    1  0.1274196E-001  0.3000000E+03  0.7818608E-02  0.1093470E+00
         21   -1    0    0  501  502  0.00000000000E+00  0.00000000000E+00  0.36411667810E+01  0.36411667810E+01  0.00000000000E+00 0. -1.
         13   -1    0    0    0    0 -0.00000000000E+00 -0.00000000000E+00 -0.10000000000E+04  0.10000000000E+04  0.00000000000E+00 0.  1.
    9000005    2    1    2  501    0  0.21694192478E+02 -0.46107337330E+02 -0.76653038122E+03  0.76823164723E+03  0.38097168816E+01 0.  0.
         13    1    3    3    0    0  0.21001953494E+02 -0.43069006482E+02 -0.72820213889E+03  0.72977693609E+03  0.00000000000E+00 0.  1.
          3    1    3    3  501    0  0.69223898399E+00 -0.30383308477E+01 -0.38328242324E+02  0.38454711140E+02  0.00000000000E+00 0.  1.
         -3    1    1    2    0  502 -0.21694192478E+02  0.46107337330E+02 -0.22982845200E+03  0.23540951955E+03  0.00000000000E+00 0. -1.
<mgrwt>
<rscale>  1 0.30000000E+03</rscale>
<asrwt>0</asrwt>
<pdfrwt beam="1">  1       21 0.13240634E-01 0.30000000E+03</pdfrwt>
<pdfrwt beam="2">0</pdfrwt>
<totfact> 0.51799700E+03</totfact>
</mgrwt>
</event>
<event>
 6    1  0.1274196E-001  0.3000000E+03  0.7818608E-02  0.1093470E+00
         21   -1    0    0  501  502  0.00000000000E+00  0.00000000000E+00  0.18750204475E+01  0.18750204475E+01  0.00000000000E+00 0. -1.
         13   -1    0    0    0    0 -0.00000000000E+00 -0.00000000000E+00 -0.10000000000E+04  0.10000000000E+04  0.00000000000E+00 0.  1.
    9000005    2    1    2  501    0 -0.18905674687E+02  0.36213879353E+02 -0.66268456972E+03  0.66395618678E+03  0.42555183265E+01 0.  0.
         13    1    3    3    0    0 -0.71396586044E+01  0.16650950701E+02 -0.31937628725E+03  0.31988973373E+03  0.00000000000E+00 0.  1.
          1    1    3    3  501    0 -0.11766016082E+02  0.19562928651E+02 -0.34330828246E+03  0.34406645306E+03  0.00000000000E+00 0.  1.
         -1    1    1    2    0  502  0.18905674687E+02 -0.36213879353E+02 -0.33544040984E+03  0.33791883366E+03  0.00000000000E+00 0. -1.
<mgrwt>
<rscale>  1 0.30000000E+03</rscale>
<asrwt>0</asrwt>
<pdfrwt beam="1">  1       21 0.68182706E-02 0.30000000E+03</pdfrwt>
<pdfrwt beam="2">0</pdfrwt>
<totfact> 0.16890306E+04</totfact>
</mgrwt>
</event>
<event>
 6    1  0.1274196E-001  0.3000000E+03  0.7818608E-02  0.1093470E+00
         21   -1    0    0  501  502  0.00000000000E+00  0.00000000000E+00  0.13323343946E+01  0.13323343946E+01  0.00000000000E+00 0. -1.
         13   -1    0    0    0    0 -0.00000000000E+00 -0.00000000000E+00 -0.10000000000E+04  0.10000000000E+04  0.00000000000E+00 0.  1.
    9000005    2    1    2  501    0  0.24650640996E+02 -0.25453152611E+02 -0.38862096077E+03  0.39025746242E+03  0.43724986650E+01 0.  0.
         13    1    3    3    0    0  0.10627402533E+02 -0.11302720616E+02 -0.19408216741E+03  0.19470126061E+03  0.00000000000E+00 0.  1.
          3    1    3    3  501    0  0.14023238464E+02 -0.14150431994E+02 -0.19453879336E+03  0.19555620181E+03  0.00000000000E+00 0.  1.
         -3    1    1    2    0  502 -0.24650640996E+02  0.25453152611E+02 -0.61004670483E+03  0.61107487197E+03  0.00000000000E+00 0. -1.
<mgrwt>
<rscale>  1 0.30000000E+03</rscale>
<asrwt>0</asrwt>
<pdfrwt beam="1">  1       21 0.48448626E-02 0.30000000E+03</pdfrwt>
<pdfrwt beam="2">0</pdfrwt>
<totfact> 0.30393492E+04</totfact>
</mgrwt>
</event>
<event>
 6    1  0.1274196E-001  0.3000000E+03  0.7818608E-02  0.1093470E+00
         21   -1    0    0  501  502  0.00000000000E+00  0.00000000000E+00  0.10495650686E+01  0.10495650686E+01  0.00000000000E+00 0. -1.
         13   -1    0    0    0    0 -0.00000000000E+00 -0.00000000000E+00 -0.10000000000E+04  0.10000000000E+04  0.00000000000E+00 0.  1.
    9000005    2    1    2  501    0  0.23998710051E+02 -0.21437738633E+02 -0.54823384399E+03  0.54918569168E+03  0.30102376561E+01 0.  0.
         13    1    3    3    0    0  0.54061823412E+01 -0.36534582498E+01 -0.97432519565E+02  0.97650757465E+02  0.00000000000E+00 0.  1.
          1    1    3    3  501    0  0.18592527709E+02 -0.17784280383E+02 -0.45080132443E+03  0.45153493422E+03  0.00000000000E+00 0.  1.
         -1    1    1    2    0  502 -0.23998710051E+02  0.21437738633E+02 -0.45071659094E+03  0.45186387339E+03  0.00000000000E+00 0. -1.
<mgrwt>
<rscale>  1 0.30000000E+03</rscale>
<asrwt>0</asrwt>
<pdfrwt beam="1">  1       21 0.38166083E-02 0.30000000E+03</pdfrwt>
<pdfrwt beam="2">0</pdfrwt>
<totfact> 0.45501428E+04</totfact>
</mgrwt>
</event>
<event>
 6    1  0.1274196E-001  0.3000000E+03  0.7818608E-02  0.1093470E+00
         21   -1    0    0  501  502  0.00000000000E+00  0.00000000000E+00  0.13757736389E+01  0.13757736389E+01  0.00000000000E+00 0. -1.
         13   -1    0    0    0    0 -0.00000000000E+00 -0.00000000000E+00 -0.10000000000E+04  0.10000000000E+04  0.00000000000E+00 0.  1.
    9000005    2    1    2  501    0  0.34277899398E+02  0.22348822758E-01 -0.68753934815E+03  0.68840808147E+03  0.45118177376E+01 0.  0.
         13    1    3    3    0    0  0.87697933870E+01  0.88998820766E+00 -0.14363324956E+03  0.14390348062E+03  0.00000000000E+00 0.  1.
          3    1    3    3  501    0  0.25508106011E+02 -0.86763938490E+00 -0.54390609859E+03  0.54450460085E+03  0.00000000000E+00 0.  1.
         -3    1    1    2    0  502 -0.34277899398E+02 -0.22348822758E-01 -0.31108487821E+03  0.31296769217E+03  0.00000000000E+00 0. -1.
<mgrwt>
<rscale>  1 0.30000000E+03</rscale>
<asrwt>0</asrwt>
<pdfrwt beam="1">  1       21 0.50028238E-02 0.30000000E+03</pdfrwt>
<pdfrwt beam="2">0</pdfrwt>
<totfact> 0.28776944E+04</totfact>
</mgrwt>
</event>
<event>
 6    1  0.1274196E-001  0.3000000E+03  0.7818608E-02  0.1093470E+00
         21   -1    0    0  501  502  0.00000000000E+00  0.00000000000E+00  0.17261290160E+01  0.17261290160E+01  0.00000000000E+00 0. -1.
         13   -1    0    0    0    0 -0.00000000000E+00 -0.00000000000E+00 -0.10000000000E+04  0.10000000000E+04  0.00000000000E+00 0.  1.
    9000005    2    1    2  501    0  0.34488924540E+02 -0.22614782106E+02 -0.55318063065E+03  0.55472623318E+03  0.33866454003E+01 0.  0.
         13    1    3    3    0    0  0.27402808165E+02 -0.18213464952E+02 -0.45828317764E+03  0.45946285498E+03  0.00000000000E+00 0.  1.
          1    1    3    3  501    0  0.70861163758E+01 -0.44013171540E+01 -0.94897453010E+02  0.95263378199E+02  0.00000000000E+00 0.  1.
         -1    1    1    2    0  502 -0.34488924540E+02  0.22614782106E+02 -0.44509324034E+03  0.44699989584E+03  0.00000000000E+00 0. -1.
<mgrwt>
<rscale>  1 0.30000000E+03</rscale>
<asrwt>0</asrwt>
<pdfrwt beam="1">  1       21 0.62768460E-02 0.30000000E+03</pdfrwt>
<pdfrwt beam="2">0</pdfrwt>
<totfact> 0.19493062E+04</totfact>
</mgrwt>
</event>
<event>
 6    1  0.1274196E-001  0.3000000E+03  0.7818608E-02  0.1093470E+00
         21   -1    0    0  501  502  0.00000000000E+00  0.00000000000E+00  0.29437538756E+01  0.29437538756E+01  0.00000000000E+00 0. -1.
         13   -1    0    0    0    0 -0.00000000000E+00 -0.00000000000E+00 -0.10000000000E+04  0.10000000000E+04  0.00000000000E+00 0.  1.
    9000005    2    1    2  501    0 -0.56175844131E+01  0.38971056514E+02 -0.84340460958E+03  0.84432746873E+03  0.26904444825E+01 0.  0.
         13    1    3    3    0    0 -0.48619260746E+01  0.32829872517E+02 -0.68874089306E+03  0.68954003265E+03  0.00000000000E+00 0.  1.
          3    1    3    3  501    0 -0.75565833851E+00  0.61411839975E+01 -0.15466371652E+03  0.15478743608E+03  0.00000000000E+00 0.  1.
         -3    1    1    2    0  502  0.56175844131E+01 -0.38971056514E+02 -0.15365163654E+03  0.15861628514E+03  0.00000000000E+00 0. -1.
<mgrwt>
<rscale>  1 0.30000000E+03</rscale>
<asrwt>0</asrwt>
<pdfrwt beam="1">  1       21 0.10704582E-01 0.30000000E+03</pdfrwt>
<pdfrwt beam="2">0</pdfrwt>
<totfact> 0.76156376E+03</totfact>
</mgrwt>
</event>
<event>
 6    1  0.1274196E-001  0.3000000E+03  0.7818608E-02  0.1093470E+00
         21   -1    0    0  501  502  0.00000000000E+00  0.00000000000E+00  0.23464152624E+01  0.23464152624E+01  0.00000000000E+00 0. -1.
         13   -1    0    0    0    0 -0.00000000000E+00 -0.00000000000E+00 -0.10000000000E+04  0.10000000000E+04  0.00000000000E+00 0.  1.
    9000005    2    1    2  501    0  0.86065248565E+00  0.37490023798E+02 -0.18289275721E+03  0.18672306550E+03  0.30821975974E+01 0.  0.
         13    1    3    3    0    0  0.60952242395E+00  0.13270108256E+02 -0.57791087321E+02  0.59298204564E+02  0.00000000000E+00 0.  1.
          3    1    3    3  501    0  0.25113006170E+00  0.24219915543E+02 -0.12510166989E+03  0.12742486093E+03  0.00000000000E+00 0.  1.
         -1    1    1    2    0  502 -0.86065248565E+00 -0.37490023798E+02 -0.81476082753E+03  0.81562334976E+03  0.00000000000E+00 0. -1.
<mgrwt>
<rscale>  1 0.30000000E+03</rscale>
<asrwt>0</asrwt>
<pdfrwt beam="1">  1       21 0.85324371E-02 0.30000000E+03</pdfrwt>
<pdfrwt beam="2">0</pdfrwt>
<totfact> 0.11404396E+04</totfact>
</mgrwt>
</event>
<event>
 6    1  0.1274196E-001  0.3000000E+03  0.7818608E-02  0.1093470E+00
         21   -1    0    0  501  502  0.00000000000E+00  0.00000000000E+00  0.12786854839E+01  0.12786854839E+01  0.00000000000E+00 0. -1.
         13   -1    0    0    0    0 -0.00000000000E+00 -0.00000000000E+00 -0.10000000000E+04  0.10000000000E+04  0.00000000000E+00 0.  1.
    9000005    2    1    2  501    0 -0.94302290245E+01 -0.34400435824E+02 -0.48294167813E+03  0.48426712613E+03  0.31089808846E+01 0.  0.
         13    1    3    3    0    0 -0.35443354174E+01 -0.84196080528E+01 -0.13222519489E+03  0.13254038734E+03  0.00000000000E+00 0.  1.
          1    1    3    3  501    0 -0.58858936071E+01 -0.25980827771E+02 -0.35071648324E+03  0.35172673878E+03  0.00000000000E+00 0.  1.
         -3    1    1    2    0  502  0.94302290245E+01  0.34400435824E+02 -0.51577963638E+03  0.51701155936E+03  0.00000000000E+00 0. -1.
<mgrwt>
<rscale>  1 0.30000000E+03</rscale>
<asrwt>0</asrwt>
<pdfrwt beam="1">  1       21 0.46497752E-02 0.30000000E+03</pdfrwt>
<pdfrwt beam="2">0</pdfrwt>
<totfact> 0.32594201E+04</totfact>
</mgrwt>
</event>
<event>
 6    1  0.1274196E-001  0.3000000E+03  0.7818608E-02  0.1093470E+00
         21   -1    0    0  501  502  0.00000000000E+00  0.00000000000E+00  0.17236115937E+01  0.17236115937E+01  0.00000000000E+00 0. -1.
         13   -1    0    0    0    0 -0.00000000000E+00 -0.00000000000E+00 -0.10000000000E+04  0.10000000000E+04  0.00000000000E+00 0.  1.
    9000005    2    1    2  501    0 -0.39640548379E+02 -0.26065009538E+01 -0.64301593108E+03  0.64424891394E+03  0.30014274887E+01 0.  0.
         13    1    3    3    0    0 -0.16980534610E+02 -0.84466709407E+00 -0.25180631144E+03  0.25237961585E+03  0.00000000000E+00 0.  1.
          3    1    3    3  501    0 -0.22660013769E+02 -0.17618338598E+01 -0.39120961965E+03  0.39186929809E+03  0.00000000000E+00 0.  1.
         -3    1    1    2    0  502  0.39640548379E+02  0.26065009538E+01 -0.35526045732E+03  0.35747469765E+03  0.00000000000E+00 0. -1.
<mgrwt>
<rscale>  1 0.30000000E+03</rscale>
<asrwt>0</asrwt>
<pdfrwt beam="1">  1       21 0.62676917E-02 0.30000000E+03</pdfrwt>
<pdfrwt beam="2">0</pdfrwt>
<totfact> 0.19542287E+04</totfact>
</mgrwt>
</event>
<event>
 6    1  0.1274196E-001  0.3000000E+03  0.7818608E-02  0.1093470E+00
         21   -1    0    0  501  502  0.00000000000E+00  0.00000000000E+00  0.12542035233E+01  0.12542035233E+01  0.00000000000E+00 0. -1.
         13   -1    0    0    0    0 -0.00000000000E+00 -0.00000000000E+00 -0.10000000000E+04  0.10000000000E+04  0.00000000000E+00 0.  1.
    9000005    2    1    2  501    0  0.19882499238E+02 -0.29029806404E+02 -0.45370395853E+03  0.45507781393E+03  0.32390292781E+01 0.  0.
         13    1    3    3    0    0  0.16337351104E+02 -0.23965493662E+02 -0.35685725339E+03  0.35803401127E+03  0.00000000000E+00 0.  1.
          1    1    3    3  501    0  0.35451481347E+01 -0.50643127412E+01 -0.96846705137E+02  0.97043802660E+02  0.00000000000E+00 0.  1.
         -1    1    1    2    0  502 -0.19882499238E+02  0.29029806404E+02 -0.54504183795E+03  0.54617638959E+03  0.00000000000E+00 0. -1.
<mgrwt>
<rscale>  1 0.30000000E+03</rscale>
<asrwt>0</asrwt>
<pdfrwt beam="1">  1       21 0.45607497E-02 0.30000000E+03</pdfrwt>
<pdfrwt beam="2">0</pdfrwt>
<totfact> 0.33682547E+04</totfact>
</mgrwt>
</event>
<event>
 6    1  0.1274196E-001  0.3000000E+03  0.7818608E-02  0.1093470E+00
         21   -1    0    0  501  502  0.00000000000E+00  0.00000000000E+00  0.19837537378E+01  0.19837537378E+01  0.00000000000E+00 0. -1.
         13   -1    0    0    0    0 -0.00000000000E+00 -0.00000000000E+00 -0.10000000000E+04  0.10000000000E+04  0.00000000000E+00 0.  1.
    9000005    2    1    2  501    0  0.23265700214E+02 -0.37634232720E+02 -0.55121600161E+03  0.55299813381E+03  0.31980133906E+01 0.  0.
         13    1    3    3    0    0  0.45868130181E+01 -0.98842835838E+01 -0.12976733710E+03  0.13022403655E+03  0.00000000000E+00 0.  1.
          3    1    3    3  501    0  0.18678887196E+02 -0.27749949137E+02 -0.42144866450E+03  0.42277409726E+03  0.00000000000E+00 0.  1.
         -1    1    1    2    0  502 -0.23265700214E+02  0.37634232720E+02 -0.44680024466E+03  0.44898561993E+03  0.00000000000E+00 0. -1.
<mgrwt>
<rscale>  1 0.30000000E+03</rscale>
<asrwt>0</asrwt>
<pdfrwt beam="1">  1       21 0.72136652E-02 0.30000000E+03</pdfrwt>
<pdfrwt beam="2">0</pdfrwt>
<totfact> 0.15311676E+04</totfact>
</mgrwt>
</event>
<event>
 6    1  0.1274196E-001  0.3000000E+03  0.7818608E-02  0.1093470E+00
         21   -1    0    0  501  502  0.00000000000E+00  0.00000000000E+00  0.21065684655E+01  0.21065684655E+01  0.00000000000E+00 0. -1.
         13   -1    0    0    0    0 -0.00000000000E+00 -0.00000000000E+00 -0.10000000000E+04  0.10000000000E+04  0.00000000000E+00 0.  1.
    9000005    2    1    2  501    0  0.32685178412E+01 -0.45228000828E+02 -0.56899748740E+03  0.57082013678E+03  0.46078855593E+01 0.  0.
         13    1    3    3    0    0  0.13852681984E+01 -0.37193540440E+02 -0.48003271575E+03  0.48147345369E+03  0.00000000000E+00 0.  1.
          1    1    3    3  501    0  0.18832496428E+01 -0.80344603881E+01 -0.88964771654E+02  0.89346683086E+02  0.00000000000E+00 0.  1.
         -3    1    1    2    0  502 -0.32685178412E+01  0.45228000828E+02 -0.42889594413E+03  0.43128643169E+03  0.00000000000E+00 0. -1.
<mgrwt>
<rscale>  1 0.30000000E+03</rscale>
<asrwt>0</asrwt>
<pdfrwt beam="1">  1       21 0.76602651E-02 0.30000000E+03</pdfrwt>
<pdfrwt beam="2">0</pdfrwt>
<totfact> 0.13784362E+04</totfact>
</mgrwt>
</event>
<event>
 6    1  0.1274196E-001  0.3000000E+03  0.7818608E-02  0.1093470E+00
         21   -1    0    0  501  502  0.00000000000E+00  0.00000000000E+00  0.15232695716E+01  0.15232695716E+01  0.00000000000E+00 0. -1.
         13   -1    0    0    0    0 -0.00000000000E+00 -0.00000000000E+00 -0.10000000000E+04  0.10000000000E+04  0.00000000000E+00 0.  1.
    9000005    2    1    2  501    0 -0.18909876064E+02 -0.33688243156E+02 -0.43573792526E+03  0.43745993626E+03  0.33429308357E+01 0.  0.
         13    1    3    3    0    0 -0.12875788590E+01 -0.25241307121E+01 -0.43160378525E+02  0.43253293164E+02  0.00000000000E+00 0.  1.
          3    1    3    3  501    0 -0.17622297205E+02 -0.31164112444E+02 -0.39257754674E+03  0.39420664310E+03  0.00000000000E+00 0.  1.
         -3    1    1    2    0  502  0.18909876064E+02  0.33688243156E+02 -0.56273880517E+03  0.56406333331E+03  0.00000000000E+00 0. -1.
<mgrwt>
<rscale>  1 0.30000000E+03</rscale>
<asrwt>0</asrwt>
<pdfrwt beam="1">  1       21 0.55391738E-02 0.30000000E+03</pdfrwt>
<pdfrwt beam="2">0</pdfrwt>
<totfact> 0.24178039E+04</totfact>
</mgrwt>
</event>
<event>
 6    1  0.1274196E-001  0.3000000E+03  0.7818608E-02  0.1093470E+00
         21   -1    0    0  501  502  0.00000000000E+00  0.00000000000E+00  0.30556637130E+01  0.30556637130E+01  0.00000000000E+00 0. -1.
         13   -1    0    0    0    0 -0.00000000000E+00 -0.00000000000E+00 -0.10000000000E+04  0.10000000000E+04  0.00000000000E+00 0.  1.
    9000005    2    1    2  501    0 -0.36296248230E+02  0.37018519025E+02 -0.67176174805E+03  0.67376627111E+03  0.30583590435E+01 0.  0.
         13    1    3    3    0    0 -0.49677759777E+00  0.47693065094E+00 -0.53791174240E+01  0.54230208453E+01  0.00000000000E+00 0.  1.
          1    1    3    3  501    0 -0.35799470632E+02  0.36541588374E+02 -0.66638263063E+03  0.66834325027E+03  0.00000000000E+00 0.  1.
         -3    1    1    2    0  502  0.36296248230E+02 -0.37018519025E+02 -0.32518258824E+03  0.32928939260E+03  0.00000000000E+00 0. -1.
<mgrwt>
<rscale>  1 0.30000000E+03</rscale>
<asrwt>0</asrwt>
<pdfrwt beam="1">  1       21 0.11111528E-01 0.30000000E+03</pdfrwt>
<pdfrwt beam="2">0</pdfrwt>
<totfact> 0.71215339E+03</totfact>
</mgrwt>
</event>
<event>
 6    1  0.1274196E-001  0.3000000E+03  0.7818608E-02  0.1093470E+00
         21   -1    0    0  501  502  0.00000000000E+00  0.00000000000E+00  0.90868577895E+00  0.90868577895E+00  0.00000000000E+00 0. -1.
         13   -1    0    0    0    0 -0.00000000000E+00 -0.00000000000E+00 -0.10000000000E+04  0.10000000000E+04  0.00000000000E+00 0.  1.
    9000005    2    1    2  501    0  0.18252180246E+02  0.23891066378E+02 -0.51798804257E+03  0.51886690011E+03  0.27060393767E+01 0.  0.
         13    1    3    3    0    0  0.88438655213E+01  0.94947601056E+01 -0.23043147002E+03  0.23079650518E+03  0.00000000000E+00 0.  1.
          3    1    3    3  501    0  0.94083147247E+01  0.14396306272E+02 -0.28755657255E+03  0.28807039494E+03  0.00000000000E+00 0.  1.
         -3    1    1    2    0  502 -0.18252180246E+02 -0.23891066378E+02 -0.48110327165E+03  0.48204178567E+03  0.00000000000E+00 0. -1.
<mgrwt>
<rscale>  1 0.30000000E+03</rscale>
<asrwt>0</asrwt>
<pdfrwt beam="1">  1       21 0.33043189E-02 0.30000000E+03</pdfrwt>
<pdfrwt beam="2">0</pdfrwt>
<totfact> 0.57927000E+04</totfact>
</mgrwt>
</event>
<event>
 6    1  0.1274196E-001  0.3000000E+03  0.7818608E-02  0.1093470E+00
         21   -1    0    0  501  502  0.00000000000E+00  0.00000000000E+00  0.23549965614E+01  0.23549965614E+01  0.00000000000E+00 0. -1.
         13   -1    0    0    0    0 -0.00000000000E+00 -0.00000000000E+00 -0.10000000000E+04  0.10000000000E+04  0.00000000000E+00 0.  1.
    9000005    2    1    2  501    0  0.31414001579E+02 -0.90173957736E+01 -0.86896495192E+03  0.86958938136E+03  0.41775090387E+01 0.  0.
         13    1    3    3    0    0  0.49331783850E+01 -0.12488661739E+01 -0.10001207208E+03  0.10014145235E+03  0.00000000000E+00 0.  1.
          1    1    3    3  501    0  0.26480823194E+02 -0.77685295997E+01 -0.76895287984E+03  0.76944792901E+03  0.00000000000E+00 0.  1.
         -1    1    1    2    0  502 -0.31414001579E+02  0.90173957736E+01 -0.12868005152E+03  0.13276561520E+03  0.00000000000E+00 0. -1.
<mgrwt>
<rscale>  1 0.30000000E+03</rscale>
<asrwt>0</asrwt>
<pdfrwt beam="1">  1       21 0.85636419E-02 0.30000000E+03</pdfrwt>
<pdfrwt beam="2">0</pdfrwt>
<totfact> 0.11331189E+04</totfact>
</mgrwt>
</event>
<event>
 6    1  0.1274196E-001  0.3000000E+03  0.7818608E-02  0.1093470E+00
         21   -1    0    0  501  502  0.00000000000E+00  0.00000000000E+00  0.17235940836E+01  0.17235940836E+01  0.00000000000E+00 0. -1.
         13   -1    0    0    0    0 -0.00000000000E+00 -0.00000000000E+00 -0.10000000000E+04  0.10000000000E+04  0.00000000000E+00 0.  1.
    9000005    2    1    2  501    0 -0.16033739457E+02 -0.37034898699E+02 -0.61244228009E+03  0.61378463345E+03  0.41671691659E+01 0.  0.
         13    1    3    3    0    0 -0.73696387729E+01 -0.20789446379E+02 -0.31192109900E+03  0.31269999146E+03  0.00000000000E+00 0.  1.
          3    1    3    3  501    0 -0.86641006842E+01 -0.16245452321E+02 -0.30052118109E+03  0.30108464199E+03  0.00000000000E+00 0.  1.
         -1    1    1    2    0  502  0.16033739457E+02  0.37034898699E+02 -0.38583412583E+03  0.38793896063E+03  0.00000000000E+00 0. -1.
<mgrwt>
<rscale>  1 0.30000000E+03</rscale>
<asrwt>0</asrwt>
<pdfrwt beam="1">  1       21 0.62676281E-02 0.30000000E+03</pdfrwt>
<pdfrwt beam="2">0</pdfrwt>
<totfact> 0.19542630E+04</totfact>
</mgrwt>
</event>
<event>
 6    1  0.1274196E-001  0.3000000E+03  0.7818608E-02  0.1093470E+00
         21   -1    0    0  501  502  0.00000000000E+00  0.00000000000E+00  0.23818022245E+01  0.23818022245E+01  0.00000000000E+00 0. -1.
         13   -1    0    0    0    0 -0.00000000000E+00 -0.00000000000E+00 -0.10000000000E+04  0.10000000000E+04  0.00000000000E+00 0.  1.
    9000005    2    1    2  501    0  0.11215762962E+02 -0.41987128547E+02 -0.27106725469E+03  0.27453224002E+03  0.13348943805E+01 0.  0.
         13    1    3    3    0    0  0.82018845210E+01 -0.32302581945E+02 -0.21022317514E+03  0.21284856372E+03  0.00000000000E+00 0.  1.
          1    1    3    3  501    0  0.30138784409E+01 -0.96845466015E+01 -0.60844079548E+02  0.61683676302E+02  0.00000000000E+00 0.  1.
         -3    1    1    2    0  502 -0.11215762962E+02  0.41987128547E+02 -0.72655094308E+03  0.72784956220E+03  0.00000000000E+00 0. -1.
<mgrwt>
<rscale>  1 0.30000000E+03</rscale>
<asrwt>0</asrwt>
<pdfrwt beam="1">  1       21 0.86611173E-02 0.30000000E+03</pdfrwt>
<pdfrwt beam="2">0</pdfrwt>
<totfact> 0.11107062E+04</totfact>
</mgrwt>
</event>
<event>
 6    1  0.1274196E-001  0.3000000E+03  0.7818608E-02  0.1093470E+00
         21   -1    0    0  501  502  0.00000000000E+00  0.00000000000E+00  0.12674769466E+01  0.12674769466E+01  0.00000000000E+00 0. -1.
         13   -1    0    0    0    0 -0.00000000000E+00 -0.00000000000E+00 -0.10000000000E+04  0.10000000000E+04  0.00000000000E+00 0.  1.
    9000005    2    1    2  501    0  0.21193255210E+02  0.26883522717E+02 -0.63392562623E+03  0.63485793854E+03  0.33203441839E+01 0.  0.
         13    1    3    3    0    0  0.87452974974E+01  0.11336696424E+02 -0.29571612779E+03  0.29606254263E+03  0.00000000000E+00 0.  1.
          1    1    3    3  501    0  0.12447957713E+02  0.15546826293E+02 -0.33820949843E+03  0.33879539591E+03  0.00000000000E+00 0.  1.
         -3    1    1    2    0  502 -0.21193255210E+02 -0.26883522717E+02 -0.36480689683E+03  0.36640953840E+03  0.00000000000E+00 0. -1.
<mgrwt>
<rscale>  1 0.30000000E+03</rscale>
<asrwt>0</asrwt>
<pdfrwt beam="1">  1       21 0.46090168E-02 0.30000000E+03</pdfrwt>
<pdfrwt beam="2">0</pdfrwt>
<totfact> 0.33085522E+04</totfact>
</mgrwt>
</event>
<event>
 6    1  0.1274196E-001  0.3000000E+03  0.7818608E-02  0.1093470E+00
         21   -1    0    0  501  502  0.00000000000E+00  0.00000000000E+00  0.11229987635E+01  0.11229987635E+01  0.00000000000E+00 0. -1.
         13   -1    0    0    0    0 -0.00000000000E+00 -0.00000000000E+00 -0.10000000000E+04  0.10000000000E+04  0.00000000000E+00 0.  1.
    9000005    2    1    2  501    0 -0.29068349563E+02  0.16441234383E+02 -0.47854384181E+03  0.47971923973E+03  0.33252518192E+01 0.  0.
         13    1    3    3    0    0 -0.20263277032E+02  0.13164139060E+02 -0.34224508971E+03  0.34309706554E+03  0.00000000000E+00 0.  1.
          3    1    3    3  501    0 -0.88050725307E+01  0.32770953226E+01 -0.13629875210E+03  0.13662217419E+03  0.00000000000E+00 0.  1.
         -3    1    1    2    0  502  0.29068349563E+02 -0.16441234383E+02 -0.52033315943E+03  0.52140375903E+03  0.00000000000E+00 0. -1.
<mgrwt>
<rscale>  1 0.30000000E+03</rscale>
<asrwt>0</asrwt>
<pdfrwt beam="1">  1       21 0.40836405E-02 0.30000000E+03</pdfrwt>
<pdfrwt beam="2">0</pdfrwt>
<totfact> 0.40606445E+04</totfact>
</mgrwt>
</event>
<event>
 6    1  0.1274196E-001  0.3000000E+03  0.7818608E-02  0.1093470E+00
         21   -1    0    0  501  502  0.00000000000E+00  0.00000000000E+00  0.13049974053E+01  0.13049974053E+01  0.00000000000E+00 0. -1.
         13   -1    0    0    0    0 -0.00000000000E+00 -0.00000000000E+00 -0.10000000000E+04  0.10000000000E+04  0.00000000000E+00 0.  1.
    9000005    2    1    2  501    0 -0.27118335030E+02 -0.13489098308E+02 -0.77139744021E+03  0.77199834305E+03  0.31734891544E+01 0.  0.
         13    1    3    3    0    0 -0.13656148752E+02 -0.50991602932E+01 -0.35770457709E+03  0.35800147529E+03  0.00000000000E+00 0.  1.
          1    1    3    3  501    0 -0.13462186278E+02 -0.83899380144E+01 -0.41369286312E+03  0.41399686776E+03  0.00000000000E+00 0.  1.
         -3    1    1    2    0  502  0.27118335030E+02  0.13489098308E+02 -0.22729756238E+03  0.22930665436E+03  0.00000000000E+00 0. -1.
<mgrwt>
<rscale>  1 0.30000000E+03</rscale>
<asrwt>0</asrwt>
<pdfrwt beam="1">  1       21 0.47454551E-02 0.30000000E+03</pdfrwt>
<pdfrwt beam="2">0</pdfrwt>
<totfact> 0.31484772E+04</totfact>
</mgrwt>
</event>
<event>
 6    1  0.1274196E-001  0.3000000E+03  0.7818608E-02  0.1093470E+00
         21   -1    0    0  501  502  0.00000000000E+00  0.00000000000E+00  0.12836033379E+01  0.12836033379E+01  0.00000000000E+00 0. -1.
         13   -1    0    0    0    0 -0.00000000000E+00 -0.00000000000E+00 -0.10000000000E+04  0.10000000000E+04  0.00000000000E+00 0.  1.
    9000005    2    1    2  501    0 -0.78986182147E+01  0.29793428297E+02 -0.75324276751E+03  0.75388243287E+03  0.37442283190E+01 0.  0.
         13    1    3    3    0    0 -0.49165464993E+01  0.22403645176E+02 -0.58907403774E+03  0.58952041329E+03  0.00000000000E+00 0.  1.
          3    1    3    3  501    0 -0.29820717154E+01  0.73897831212E+01 -0.16416872977E+03  0.16436201958E+03  0.00000000000E+00 0.  1.
         -3    1    1    2    0  502  0.78986182147E+01 -0.29793428297E+02 -0.24547362915E+03  0.24740117047E+03  0.00000000000E+00 0. -1.
<mgrwt>
<rscale>  1 0.30000000E+03</rscale>
<asrwt>0</asrwt>
<pdfrwt beam="1">  1       21 0.46676583E-02 0.30000000E+03</pdfrwt>
<pdfrwt beam="2">0</pdfrwt>
<totfact> 0.32382232E+04</totfact>
</mgrwt>
</event>
<event>
 6    1  0.1274196E-001  0.3000000E+03  0.7818608E-02  0.1093470E+00
         21   -1    0    0  501  502  0.00000000000E+00  0.00000000000E+00  0.18340596052E+01  0.18340596052E+01  0.00000000000E+00 0. -1.
         13   -1    0    0    0    0 -0.00000000000E+00 -0.00000000000E+00 -0.10000000000E+04  0.10000000000E+04  0.00000000000E+00 0.  1.
    9000005    2    1    2  501    0  0.28890774885E+02  0.26485716923E+02 -0.69969527048E+03  0.70080098688E+03  0.35187507920E+01 0.  0.
         13    1    3    3    0    0  0.20405639460E+02  0.20708459509E+02 -0.52508664285E+03  0.52589087548E+03  0.00000000000E+00 0.  1.
          1    1    3    3  501    0  0.84851354252E+01  0.57772574130E+01 -0.17460862763E+03  0.17491011140E+03  0.00000000000E+00 0.  1.
         -1    1    1    2    0  502 -0.28890774885E+02 -0.26485716923E+02 -0.29847066991E+03  0.30103307272E+03  0.00000000000E+00 0. -1.
<mgrwt>
<rscale>  1 0.30000000E+03</rscale>
<asrwt>0</asrwt>
<pdfrwt beam="1">  1       21 0.66693217E-02 0.30000000E+03</pdfrwt>
<pdfrwt beam="2">0</pdfrwt>
<totfact> 0.17550326E+04</totfact>
</mgrwt>
</event>
<event>
 6    1  0.1274196E-001  0.3000000E+03  0.7818608E-02  0.1093470E+00
         21   -1    0    0  501  502  0.00000000000E+00  0.00000000000E+00  0.32897772530E+01  0.32897772530E+01  0.00000000000E+00 0. -1.
         13   -1    0    0    0    0 -0.00000000000E+00 -0.00000000000E+00 -0.10000000000E+04  0.10000000000E+04  0.00000000000E+00 0.  1.
    9000005    2    1    2  501    0 -0.24503396665E+02 -0.51034091707E+02 -0.42239235358E+03  0.42618847782E+03  0.40525668122E+01 0.  0.
         13    1    3    3    0    0 -0.46058477178E+01 -0.12859042965E+02 -0.10944344026E+03  0.11029249945E+03  0.00000000000E+00 0.  1.
          1    1    3    3  501    0 -0.19897548947E+02 -0.38175048742E+02 -0.31294891332E+03  0.31589597836E+03  0.00000000000E+00 0.  1.
         -3    1    1    2    0  502  0.24503396665E+02  0.51034091707E+02 -0.57431786917E+03  0.57710129944E+03  0.00000000000E+00 0. -1.
<mgrwt>
<rscale>  1 0.30000000E+03</rscale>
<asrwt>0</asrwt>
<pdfrwt beam="1">  1       21 0.11962852E-01 0.30000000E+03</pdfrwt>
<pdfrwt beam="2">0</pdfrwt>
<totfact> 0.62320841E+03</totfact>
</mgrwt>
</event>
<event>
 6    1  0.1274196E-001  0.3000000E+03  0.7818608E-02  0.1093470E+00
         21   -1    0    0  501  502  0.00000000000E+00  0.00000000000E+00  0.14497934315E+01  0.14497934315E+01  0.00000000000E+00 0. -1.
         13   -1    0    0    0    0 -0.00000000000E+00 -0.00000000000E+00 -0.10000000000E+04  0.10000000000E+04  0.00000000000E+00 0.  1.
    9000005    2    1    2  501    0  0.16046802436E+02 -0.30820496540E+02 -0.70252631208E+03  0.70339350851E+03  0.34359523132E+01 0.  0.
         13    1    3    3    0    0  0.20004422699E+01 -0.40507594146E+01 -0.11716871107E+03  0.11725577715E+03  0.00000000000E+00 0.  1.
          3    1    3    3  501    0  0.14046360166E+02 -0.26769737126E+02 -0.58535760101E+03  0.58613773135E+03  0.00000000000E+00 0.  1.
         -1    1    1    2    0  502 -0.16046802436E+02  0.30820496540E+02 -0.29602389449E+03  0.29805628493E+03  0.00000000000E+00 0. -1.
<mgrwt>
<rscale>  1 0.30000000E+03</rscale>
<asrwt>0</asrwt>
<pdfrwt beam="1">  1       21 0.52719872E-02 0.30000000E+03</pdfrwt>
<pdfrwt beam="2">0</pdfrwt>
<totfact> 0.26314253E+04</totfact>
</mgrwt>
</event>
<event>
 6    1  0.1274196E-001  0.3000000E+03  0.7818608E-02  0.1093470E+00
         21   -1    0    0  501  502  0.00000000000E+00  0.00000000000E+00  0.17000004577E+01  0.17000004577E+01  0.00000000000E+00 0. -1.
         13   -1    0    0    0    0 -0.00000000000E+00 -0.00000000000E+00 -0.10000000000E+04  0.10000000000E+04  0.00000000000E+00 0.  1.
    9000005    2    1    2  501    0  0.34101350175E+02 -0.39738371455E+01 -0.77593199676E+03  0.77669728464E+03  0.30846232522E+01 0.  0.
         13    1    3    3    0    0  0.61096699928E+01 -0.18572981714E+01 -0.15229760974E+03  0.15243142575E+03  0.00000000000E+00 0.  1.
          3    1    3    3  501    0  0.27991680182E+02 -0.21165389742E+01 -0.62363438702E+03  0.62426585889E+03  0.00000000000E+00 0.  1.
         -3    1    1    2    0  502 -0.34101350175E+02  0.39738371455E+01 -0.22236800278E+03  0.22500271582E+03  0.00000000000E+00 0. -1.
<mgrwt>
<rscale>  1 0.30000000E+03</rscale>
<asrwt>0</asrwt>
<pdfrwt beam="1">  1       21 0.61818329E-02 0.30000000E+03</pdfrwt>
<pdfrwt beam="2">0</pdfrwt>
<totfact> 0.20013508E+04</totfact>
</mgrwt>
</event>
<event>
 6    1  0.1274196E-001  0.3000000E+03  0.7818608E-02  0.1093470E+00
         21   -1    0    0  501  502  0.00000000000E+00  0.00000000000E+00  0.12871192280E+01  0.12871192280E+01  0.00000000000E+00 0. -1.
         13   -1    0    0    0    0 -0.00000000000E+00 -0.00000000000E+00 -0.10000000000E+04  0.10000000000E+04  0.00000000000E+00 0.  1.
    9000005    2    1    2  501    0  0.24885212308E+02 -0.16967070152E+02 -0.77038206729E+03  0.77097837939E+03  0.34607255235E+01 0.  0.
         13    1    3    3    0    0  0.13690773763E+02 -0.73251005737E+01 -0.38240209838E+03  0.38271720530E+03  0.00000000000E+00 0.  1.
          1    1    3    3  501    0  0.11194438545E+02 -0.96419695781E+01 -0.38797996891E+03  0.38826117409E+03  0.00000000000E+00 0.  1.
         -3    1    1    2    0  502 -0.24885212308E+02  0.16967070152E+02 -0.22833081348E+03  0.23030873984E+03  0.00000000000E+00 0. -1.
<mgrwt>
<rscale>  1 0.30000000E+03</rscale>
<asrwt>0</asrwt>
<pdfrwt beam="1">  1       21 0.46804434E-02 0.30000000E+03</pdfrwt>
<pdfrwt beam="2">0</pdfrwt>
<totfact> 0.32232012E+04</totfact>
</mgrwt>
</event>
<event>
 6    1  0.1274196E-001  0.3000000E+03  0.7818608E-02  0.1093470E+00
         21   -1    0    0  501  502  0.00000000000E+00  0.00000000000E+00  0.12333504244E+01  0.12333504244E+01  0.00000000000E+00 0. -1.
         13   -1    0    0    0    0 -0.00000000000E+00 -0.00000000000E+00 -0.10000000000E+04  0.10000000000E+04  0.00000000000E+00 0.  1.
    9000005    2    1    2  501    0  0.17536035541E+02  0.29021807413E+02 -0.37600148082E+03  0.37754574171E+03  0.37276878888E+01 0.  0.
         13    1    3    3    0    0  0.14246549831E+02  0.20818201033E+02 -0.28696028275E+03  0.28806694630E+03  0.00000000000E+00 0.  1.
          1    1    3    3  501    0  0.32894857100E+01  0.82036063798E+01 -0.89041198069E+02  0.89478795406E+02  0.00000000000E+00 0.  1.
         -3    1    1    2    0  502 -0.17536035541E+02 -0.29021807413E+02 -0.62276516875E+03  0.62368760871E+03  0.00000000000E+00 0. -1.
<mgrwt>
<rscale>  1 0.30000000E+03</rscale>
<asrwt>0</asrwt>
<pdfrwt beam="1">  1       21 0.44849201E-02 0.30000000E+03</pdfrwt>
<pdfrwt beam="2">0</pdfrwt>
<totfact> 0.34654997E+04</totfact>
</mgrwt>
</event>
<event>
 6    1  0.1274196E-001  0.3000000E+03  0.7818608E-02  0.1093470E+00
         21   -1    0    0  501  502  0.00000000000E+00  0.00000000000E+00  0.10483804981E+01  0.10483804981E+01  0.00000000000E+00 0. -1.
         13   -1    0    0    0    0 -0.00000000000E+00 -0.00000000000E+00 -0.10000000000E+04  0.10000000000E+04  0.00000000000E+00 0.  1.
    9000005    2    1    2  501    0 -0.21969026331E+02 -0.20781165112E+02 -0.67397430346E+03  0.67466708373E+03  0.44516509884E+01 0.  0.
         13    1    3    3    0    0 -0.11394673953E+02 -0.84359646024E+01 -0.28270056230E+03  0.28305584611E+03  0.00000000000E+00 0.  1.
          1    1    3    3  501    0 -0.10574352378E+02 -0.12345200510E+02 -0.39127374116E+03  0.39161123761E+03  0.00000000000E+00 0.  1.
         -3    1    1    2    0  502  0.21969026331E+02  0.20781165112E+02 -0.32497731604E+03  0.32638129677E+03  0.00000000000E+00 0. -1.
<mgrwt>
<rscale>  1 0.30000000E+03</rscale>
<asrwt>0</asrwt>
<pdfrwt beam="1">  1       21 0.38123008E-02 0.30000000E+03</pdfrwt>
<pdfrwt beam="2">0</pdfrwt>
<totfact> 0.45587854E+04</totfact>
</mgrwt>
</event>
<event>
 6    1  0.1274196E-001  0.3000000E+03  0.7818608E-02  0.1093470E+00
         21   -1    0    0  501  502  0.00000000000E+00  0.00000000000E+00  0.11374846689E+01  0.11374846689E+01  0.00000000000E+00 0. -1.
         13   -1    0    0    0    0 -0.00000000000E+00 -0.00000000000E+00 -0.10000000000E+04  0.10000000000E+04  0.00000000000E+00 0.  1.
    9000005    2    1    2  501    0  0.21200978288E+02  0.25989171206E+02 -0.45371828358E+03  0.45496246518E+03  0.23759985362E+01 0.  0.
         13    1    3    3    0    0  0.18414119882E+02  0.21698779724E+02 -0.39293976712E+03  0.39396900568E+03  0.00000000000E+00 0.  1.
          1    1    3    3  501    0  0.27868584056E+01  0.42903914822E+01 -0.60778516463E+02  0.60993459504E+02  0.00000000000E+00 0.  1.
         -3    1    1    2    0  502 -0.21200978288E+02 -0.25989171206E+02 -0.54514423175E+03  0.54617501949E+03  0.00000000000E+00 0. -1.
<mgrwt>
<rscale>  1 0.30000000E+03</rscale>
<asrwt>0</asrwt>
<pdfrwt beam="1">  1       21 0.41363166E-02 0.30000000E+03</pdfrwt>
<pdfrwt beam="2">0</pdfrwt>
<totfact> 0.39738144E+04</totfact>
</mgrwt>
</event>
<event>
 6    1  0.1274196E-001  0.3000000E+03  0.7818608E-02  0.1093470E+00
         21   -1    0    0  501  502  0.00000000000E+00  0.00000000000E+00  0.35637302682E+01  0.35637302682E+01  0.00000000000E+00 0. -1.
         13   -1    0    0    0    0 -0.00000000000E+00 -0.00000000000E+00 -0.10000000000E+04  0.10000000000E+04  0.00000000000E+00 0.  1.
    9000005    2    1    2  501    0 -0.19747307756E+02  0.48620920182E+02 -0.73696724285E+03  0.73884099616E+03  0.33690546211E+01 0.  0.
         13    1    3    3    0    0 -0.43567688845E+01  0.13387355314E+02 -0.21346114461E+03  0.21392490032E+03  0.00000000000E+00 0.  1.
          1    1    3    3  501    0 -0.15390538871E+02  0.35233564869E+02 -0.52350609824E+03  0.52491609584E+03  0.00000000000E+00 0.  1.
         -3    1    1    2    0  502  0.19747307756E+02 -0.48620920182E+02 -0.25946902688E+03  0.26472273411E+03  0.00000000000E+00 0. -1.
<mgrwt>
<rscale>  1 0.30000000E+03</rscale>
<asrwt>0</asrwt>
<pdfrwt beam="1">  1       21 0.12959046E-01 0.30000000E+03</pdfrwt>
<pdfrwt beam="2">0</pdfrwt>
<totfact> 0.53874738E+03</totfact>
</mgrwt>
</event>
<event>
 6    1  0.1274196E-001  0.3000000E+03  0.7818608E-02  0.1093470E+00
         21   -1    0    0  501  502  0.00000000000E+00  0.00000000000E+00  0.13760175581E+01  0.13760175581E+01  0.00000000000E+00 0. -1.
         13   -1    0    0    0    0 -0.00000000000E+00 -0.00000000000E+00 -0.10000000000E+04  0.10000000000E+04  0.00000000000E+00 0.  1.
    9000005    2    1    2  501    0  0.29845982653E+02 -0.16820654442E+02 -0.68976174444E+03  0.69061952260E+03  0.32161784753E+01 0.  0.
         13    1    3    3    0    0  0.29230031519E+02 -0.15830364399E+02 -0.66784263675E+03  0.66866941208E+03  0.00000000000E+00 0.  1.
          3    1    3    3  501    0  0.61595113388E+00 -0.99029004239E+00 -0.21919107690E+02  0.21950110525E+02  0.00000000000E+00 0.  1.
         -3    1    1    2    0  502 -0.29845982653E+02  0.16820654442E+02 -0.30886223800E+03  0.31075649496E+03  0.00000000000E+00 0. -1.
<mgrwt>
<rscale>  1 0.30000000E+03</rscale>
<asrwt>0</asrwt>
<pdfrwt beam="1">  1       21 0.50037108E-02 0.30000000E+03</pdfrwt>
<pdfrwt beam="2">0</pdfrwt>
<totfact> 0.28768249E+04</totfact>
</mgrwt>
</event>
<event>
 6    1  0.1274196E-001  0.3000000E+03  0.7818608E-02  0.1093470E+00
         21   -1    0    0  501  502  0.00000000000E+00  0.00000000000E+00  0.14774947477E+01  0.14774947477E+01  0.00000000000E+00 0. -1.
         13   -1    0    0    0    0 -0.00000000000E+00 -0.00000000000E+00 -0.10000000000E+04  0.10000000000E+04  0.00000000000E+00 0.  1.
    9000005    2    1    2  501    0 -0.34950849728E+02 -0.13698458783E+02 -0.60091979868E+03  0.60210658702E+03  0.43044176440E+01 0.  0.
         13    1    3    3    0    0 -0.49743664017E+01 -0.51515540954E+00 -0.89097358443E+02  0.89237598509E+02  0.00000000000E+00 0.  1.
          1    1    3    3  501    0 -0.29976483326E+02 -0.13183303373E+02 -0.51182244024E+03  0.51286898851E+03  0.00000000000E+00 0.  1.
         -3    1    1    2    0  502  0.34950849728E+02  0.13698458783E+02 -0.39760270657E+03  0.39937090773E+03  0.00000000000E+00 0. -1.
<mgrwt>
<rscale>  1 0.30000000E+03</rscale>
<asrwt>0</asrwt>
<pdfrwt beam="1">  1       21 0.53727195E-02 0.30000000E+03</pdfrwt>
<pdfrwt beam="2">0</pdfrwt>
<totfact> 0.25475851E+04</totfact>
</mgrwt>
</event>
<event>
 6    1  0.1274196E-001  0.3000000E+03  0.7818608E-02  0.1093470E+00
         21   -1    0    0  501  502  0.00000000000E+00  0.00000000000E+00  0.14943372410E+01  0.14943372410E+01  0.00000000000E+00 0. -1.
         13   -1    0    0    0    0 -0.00000000000E+00 -0.00000000000E+00 -0.10000000000E+04  0.10000000000E+04  0.00000000000E+00 0.  1.
    9000005    2    1    2  501    0  0.34603969050E+02 -0.10443067058E+02 -0.67510698284E+03  0.67608198576E+03  0.33046732181E+01 0.  0.
         13    1    3    3    0    0  0.78648079604E+01 -0.33747313793E+01 -0.14121342838E+03  0.14147252868E+03  0.00000000000E+00 0.  1.
          1    1    3    3  501    0  0.26739161089E+02 -0.70683356790E+01 -0.53389355447E+03  0.53460945709E+03  0.00000000000E+00 0.  1.
         -3    1    1    2    0  502 -0.34603969050E+02  0.10443067058E+02 -0.32339867991E+03  0.32541235148E+03  0.00000000000E+00 0. -1.
<mgrwt>
<rscale>  1 0.30000000E+03</rscale>
<asrwt>0</asrwt>
<pdfrwt beam="1">  1       21 0.54339651E-02 0.30000000E+03</pdfrwt>
<pdfrwt beam="2">0</pdfrwt>
<totfact> 0.24986106E+04</totfact>
</mgrwt>
</event>
<event>
 6    1  0.1274196E-001  0.3000000E+03  0.7818608E-02  0.1093470E+00
         21   -1    0    0  501  502  0.00000000000E+00  0.00000000000E+00  0.18985343125E+01  0.18985343125E+01  0.00000000000E+00 0. -1.
         13   -1    0    0    0    0 -0.00000000000E+00 -0.00000000000E+00 -0.10000000000E+04  0.10000000000E+04  0.00000000000E+00 0.  1.
    9000005    2    1    2  501    0  0.35696686265E+02  0.32766785121E+01 -0.78330218970E+03  0.78412865807E+03  0.32314069793E+01 0.  0.
         13    1    3    3    0    0  0.15061455090E+01  0.70342058727E+00 -0.45110014828E+02  0.45140632611E+02  0.00000000000E+00 0.  1.
          1    1    3    3  501    0  0.34190540756E+02  0.25732579248E+01 -0.73819217487E+03  0.73898802546E+03  0.00000000000E+00 0.  1.
         -1    1    1    2    0  502 -0.35696686265E+02 -0.32766785121E+01 -0.21479927599E+03  0.21776987624E+03  0.00000000000E+00 0. -1.
<mgrwt>
<rscale>  1 0.30000000E+03</rscale>
<asrwt>0</asrwt>
<pdfrwt beam="1">  1       21 0.69037757E-02 0.30000000E+03</pdfrwt>
<pdfrwt beam="2">0</pdfrwt>
<totfact> 0.16528472E+04</totfact>
</mgrwt>
</event>
<event>
 6    1  0.1274196E-001  0.3000000E+03  0.7818608E-02  0.1093470E+00
         21   -1    0    0  501  502  0.00000000000E+00  0.00000000000E+00  0.10275018929E+02  0.10275018929E+02  0.00000000000E+00 0. -1.
         13   -1    0    0    0    0 -0.00000000000E+00 -0.00000000000E+00 -0.10000000000E+04  0.10000000000E+04  0.00000000000E+00 0.  1.
    9000005    2    1    2  501    0 -0.67449630407E+01  0.53914433332E+02 -0.92128089474E+03  0.92288592577E+03  0.27720642095E+01 0.  0.
         13    1    3    3    0    0 -0.32148231298E+01  0.36201330362E+02 -0.61446944587E+03  0.61554331393E+03  0.00000000000E+00 0.  1.
          1    1    3    3  501    0 -0.35301399110E+01  0.17713102971E+02 -0.30681144886E+03  0.30734261185E+03  0.00000000000E+00 0.  1.
         -3    1    1    2    0  502  0.67449630407E+01 -0.53914433332E+02 -0.68444086336E+02  0.87389093154E+02  0.00000000000E+00 0. -1.
<mgrwt>
<rscale>  1 0.30000000E+03</rscale>
<asrwt>0</asrwt>
<pdfrwt beam="1">  1       21 0.37363784E-01 0.30000000E+03</pdfrwt>
<pdfrwt beam="2">0</pdfrwt>
<totfact> 0.69581979E+02</totfact>
</mgrwt>
</event>
<event>
 6    1  0.1274196E-001  0.3000000E+03  0.7818608E-02  0.1093470E+00
         21   -1    0    0  501  502  0.00000000000E+00  0.00000000000E+00  0.96342361250E+01  0.96342361250E+01  0.00000000000E+00 0. -1.
         13   -1    0    0    0    0 -0.00000000000E+00 -0.00000000000E+00 -0.10000000000E+04  0.10000000000E+04  0.00000000000E+00 0.  1.
    9000005    2    1    2  501    0  0.29985999171E+02 -0.56284258555E+02 -0.87887924130E+03  0.88119622530E+03  0.33149355552E+01 0.  0.
         13    1    3    3    0    0  0.24911746841E+02 -0.48372815184E+02 -0.76132236712E+03  0.76326422100E+03  0.00000000000E+00 0.  1.
          3    1    3    3  501    0  0.50742523308E+01 -0.79114433713E+01 -0.11755687418E+03  0.11793200431E+03  0.00000000000E+00 0.  1.
         -1    1    1    2    0  502 -0.29985999171E+02  0.56284258555E+02 -0.11148652258E+03  0.12843801082E+03  0.00000000000E+00 0. -1.
<mgrwt>
<rscale>  1 0.30000000E+03</rscale>
<asrwt>0</asrwt>
<pdfrwt beam="1">  1       21 0.35033660E-01 0.30000000E+03</pdfrwt>
<pdfrwt beam="2">0</pdfrwt>
<totfact> 0.79423114E+02</totfact>
</mgrwt>
</event>
<event>
 6    1  0.1274196E-001  0.3000000E+03  0.7818608E-02  0.1093470E+00
         21   -1    0    0  501  502  0.00000000000E+00  0.00000000000E+00  0.29410738794E+01  0.29410738794E+01  0.00000000000E+00 0. -1.
         13   -1    0    0    0    0 -0.00000000000E+00 -0.00000000000E+00 -0.10000000000E+04  0.10000000000E+04  0.00000000000E+00 0.  1.
    9000005    2    1    2  501    0 -0.34662805298E+00 -0.39832250696E+02 -0.83861882926E+03  0.83957035240E+03  0.31792259052E+01 0.  0.
         13    1    3    3    0    0  0.33789348424E+00 -0.27039968655E+02 -0.53945081502E+03  0.54012818469E+03  0.00000000000E+00 0.  1.
          3    1    3    3  501    0 -0.68452153722E+00 -0.12792282041E+02 -0.29916801425E+03  0.29944216770E+03  0.00000000000E+00 0.  1.
         -3    1    1    2    0  502  0.34662805298E+00  0.39832250696E+02 -0.15844009686E+03  0.16337072148E+03  0.00000000000E+00 0. -1.
<mgrwt>
<rscale>  1 0.30000000E+03</rscale>
<asrwt>0</asrwt>
<pdfrwt beam="1">  1       21 0.10694837E-01 0.30000000E+03</pdfrwt>
<pdfrwt beam="2">0</pdfrwt>
<totfact> 0.76280993E+03</totfact>
</mgrwt>
</event>
<event>
 6    1  0.1274196E-001  0.3000000E+03  0.7818608E-02  0.1093470E+00
         21   -1    0    0  501  502  0.00000000000E+00  0.00000000000E+00  0.16121098184E+01  0.16121098184E+01  0.00000000000E+00 0. -1.
         13   -1    0    0    0    0 -0.00000000000E+00 -0.00000000000E+00 -0.10000000000E+04  0.10000000000E+04  0.00000000000E+00 0.  1.
    9000005    2    1    2  501    0 -0.37418502522E+02 -0.98539568455E+01 -0.63132057772E+03  0.63251096287E+03  0.26835627133E+01 0.  0.
         13    1    3    3    0    0 -0.64445466948E+01 -0.94848280944E+00 -0.95293927486E+02  0.95516304459E+02  0.00000000000E+00 0.  1.
          3    1    3    3  501    0 -0.30973955827E+02 -0.89054740361E+01 -0.53602665023E+03  0.53699465841E+03  0.00000000000E+00 0.  1.
         -3    1    1    2    0  502  0.37418502522E+02  0.98539568455E+01 -0.36706731247E+03  0.36910114695E+03  0.00000000000E+00 0. -1.
<mgrwt>
<rscale>  1 0.30000000E+03</rscale>
<asrwt>0</asrwt>
<pdfrwt beam="1">  1       21 0.58622299E-02 0.30000000E+03</pdfrwt>
<pdfrwt beam="2">0</pdfrwt>
<totfact> 0.21932598E+04</totfact>
</mgrwt>
</event>
<event>
 6    1  0.1274196E-001  0.3000000E+03  0.7818608E-02  0.1093470E+00
         21   -1    0    0  501  502  0.00000000000E+00  0.00000000000E+00  0.27788772340E+01  0.27788772340E+01  0.00000000000E+00 0. -1.
         13   -1    0    0    0    0 -0.00000000000E+00 -0.00000000000E+00 -0.10000000000E+04  0.10000000000E+04  0.00000000000E+00 0.  1.
    9000005    2    1    2  501    0 -0.51705119174E+02  0.23266175454E+01 -0.59196749387E+03  0.59423348657E+03  0.30150069003E+01 0.  0.
         13    1    3    3    0    0 -0.12023333500E+02 -0.67331287295E+00 -0.14197263193E+03  0.14248242739E+03  0.00000000000E+00 0.  1.
          1    1    3    3  501    0 -0.39681785674E+02  0.29999304183E+01 -0.44999486194E+03  0.45175105918E+03  0.00000000000E+00 0.  1.
         -3    1    1    2    0  502  0.51705119174E+02 -0.23266175454E+01 -0.40525362890E+03  0.40854539066E+03  0.00000000000E+00 0. -1.
<mgrwt>
<rscale>  1 0.30000000E+03</rscale>
<asrwt>0</asrwt>
<pdfrwt beam="1">  1       21 0.10105029E-01 0.30000000E+03</pdfrwt>
<pdfrwt beam="2">0</pdfrwt>
<totfact> 0.84440234E+03</totfact>
</mgrwt>
</event>
<event>
 6    1  0.1274196E-001  0.3000000E+03  0.7818608E-02  0.1093470E+00
         21   -1    0    0  501  502  0.00000000000E+00  0.00000000000E+00  0.22992524861E+01  0.22992524861E+01  0.00000000000E+00 0. -1.
         13   -1    0    0    0    0 -0.00000000000E+00 -0.00000000000E+00 -0.10000000000E+04  0.10000000000E+04  0.00000000000E+00 0.  1.
    9000005    2    1    2  501    0 -0.74284022661E+01  0.38231502283E+02 -0.79075954875E+03  0.79172506444E+03  0.33293828769E+01 0.  0.
         13    1    3    3    0    0 -0.18213538540E+01  0.10277247950E+02 -0.18352828005E+03  0.18382483165E+03  0.00000000000E+00 0.  1.
          1    1    3    3  501    0 -0.56070484121E+01  0.27954254333E+02 -0.60723126870E+03  0.60790023278E+03  0.00000000000E+00 0.  1.
         -3    1    1    2    0  502  0.74284022661E+01 -0.38231502283E+02 -0.20694119876E+03  0.21057418805E+03  0.00000000000E+00 0. -1.
<mgrwt>
<rscale>  1 0.30000000E+03</rscale>
<asrwt>0</asrwt>
<pdfrwt beam="1">  1       21 0.83609358E-02 0.30000000E+03</pdfrwt>
<pdfrwt beam="2">0</pdfrwt>
<totfact> 0.11819933E+04</totfact>
</mgrwt>
</event>
<event>
 6    1  0.1274196E-001  0.3000000E+03  0.7818608E-02  0.1093470E+00
         21   -1    0    0  501  502  0.00000000000E+00  0.00000000000E+00  0.16551104156E+01  0.16551104156E+01  0.00000000000E+00 0. -1.
         13   -1    0    0    0    0 -0.00000000000E+00 -0.00000000000E+00 -0.10000000000E+04  0.10000000000E+04  0.00000000000E+00 0.  1.
    9000005    2    1    2  501    0  0.30150005776E+02 -0.24018456968E+02 -0.65793563793E+03  0.65907027752E+03  0.29013649291E+01 0.  0.
         13    1    3    3    0    0  0.67080437506E+01 -0.41779203443E+01 -0.12258021874E+03  0.12283469744E+03  0.00000000000E+00 0.  1.
          1    1    3    3  501    0  0.23441962025E+02 -0.19840536624E+02 -0.53535541919E+03  0.53623558007E+03  0.00000000000E+00 0.  1.
         -1    1    1    2    0  502 -0.30150005776E+02  0.24018456968E+02 -0.34040925165E+03  0.34258483290E+03  0.00000000000E+00 0. -1.
<mgrwt>
<rscale>  1 0.30000000E+03</rscale>
<asrwt>0</asrwt>
<pdfrwt beam="1">  1       21 0.60185960E-02 0.30000000E+03</pdfrwt>
<pdfrwt beam="2">0</pdfrwt>
<totfact> 0.20959499E+04</totfact>
</mgrwt>
</event>
<event>
 6    1  0.1274196E-001  0.3000000E+03  0.7818608E-02  0.1093470E+00
         21   -1    0    0  501  502  0.00000000000E+00  0.00000000000E+00  0.70916424629E+01  0.70916424629E+01  0.00000000000E+00 0. -1.
         13   -1    0    0    0    0 -0.00000000000E+00 -0.00000000000E+00 -0.10000000000E+04  0.10000000000E+04  0.00000000000E+00 0.  1.
    9000005    2    1    2  501    0 -0.19140227678E+02 -0.39710633457E+02 -0.92545996284E+03  0.92651516530E+03  0.33054471391E+01 0.  0.
         13    1    3    3    0    0 -0.10381326618E+02 -0.19292802013E+02 -0.43153605142E+03  0.43209182800E+03  0.00000000000E+00 0.  1.
          3    1    3    3  501    0 -0.87589010596E+01 -0.20417831444E+02 -0.49392391142E+03  0.49442333730E+03  0.00000000000E+00 0.  1.
         -3    1    1    2    0  502  0.19140227678E+02  0.39710633457E+02 -0.67448394694E+02  0.80576477163E+02  0.00000000000E+00 0. -1.
<mgrwt>
<rscale>  1 0.30000000E+03</rscale>
<asrwt>0</asrwt>
<pdfrwt beam="1">  1       21 0.25787845E-01 0.30000000E+03</pdfrwt>
<pdfrwt beam="2">0</pdfrwt>
<totfact> 0.14674804E+03</totfact>
</mgrwt>
</event>
<event>
 6    1  0.1274196E-001  0.3000000E+03  0.7818608E-02  0.1093470E+00
         21   -1    0    0  501  502  0.00000000000E+00  0.00000000000E+00  0.11606039351E+01  0.11606039351E+01  0.00000000000E+00 0. -1.
         13   -1    0    0    0    0 -0.00000000000E+00 -0.00000000000E+00 -0.10000000000E+04  0.10000000000E+04  0.00000000000E+00 0.  1.
    9000005    2    1    2  501    0  0.33453667437E+02  0.89297626200E-02 -0.58967241914E+03  0.59062831173E+03  0.30154215582E+01 0.  0.
         13    1    3    3    0    0  0.95553680948E+01  0.11062244241E+01 -0.18352611996E+03  0.18377803323E+03  0.00000000000E+00 0.  1.
          1    1    3    3  501    0  0.23898299342E+02 -0.10972946614E+01 -0.40614629919E+03  0.40685027849E+03  0.00000000000E+00 0.  1.
         -3    1    1    2    0  502 -0.33453667437E+02 -0.89297626200E-02 -0.40916697692E+03  0.41053229221E+03  0.00000000000E+00 0. -1.
<mgrwt>
<rscale>  1 0.30000000E+03</rscale>
<asrwt>0</asrwt>
<pdfrwt beam="1">  1       21 0.42203868E-02 0.30000000E+03</pdfrwt>
<pdfrwt beam="2">0</pdfrwt>
<totfact> 0.38411042E+04</totfact>
</mgrwt>
</event>
<event>
 6    1  0.1274196E-001  0.3000000E+03  0.7818608E-02  0.1093470E+00
         21   -1    0    0  501  502  0.00000000000E+00  0.00000000000E+00  0.15385654546E+01  0.15385654546E+01  0.00000000000E+00 0. -1.
         13   -1    0    0    0    0 -0.00000000000E+00 -0.00000000000E+00 -0.10000000000E+04  0.10000000000E+04  0.00000000000E+00 0.  1.
    9000005    2    1    2  501    0  0.17146336011E+02 -0.28234841742E+02 -0.76784105819E+03  0.76856440140E+03  0.44883548827E+01 0.  0.
         13    1    3    3    0    0 -0.98670762628E-01 -0.75252611036E+00 -0.31131775121E+02  0.31141025251E+02  0.00000000000E+00 0.  1.
          3    1    3    3  501    0  0.17245006774E+02 -0.27482315632E+02 -0.73670928306E+03  0.73742337614E+03  0.00000000000E+00 0.  1.
         -3    1    1    2    0  502 -0.17146336011E+02  0.28234841742E+02 -0.23062037636E+03  0.23297416406E+03  0.00000000000E+00 0. -1.
<mgrwt>
<rscale>  1 0.30000000E+03</rscale>
<asrwt>0</asrwt>
<pdfrwt beam="1">  1       21 0.55947953E-02 0.30000000E+03</pdfrwt>
<pdfrwt beam="2">0</pdfrwt>
<totfact> 0.23766975E+04</totfact>
</mgrwt>
</event>
<event>
 6    1  0.1274196E-001  0.3000000E+03  0.7818608E-02  0.1093470E+00
         21   -1    0    0  501  502  0.00000000000E+00  0.00000000000E+00  0.19254367917E+01  0.19254367917E+01  0.00000000000E+00 0. -1.
         13   -1    0    0    0    0 -0.00000000000E+00 -0.00000000000E+00 -0.10000000000E+04  0.10000000000E+04  0.00000000000E+00 0.  1.
    9000005    2    1    2  501    0 -0.10746569051E+02  0.36186104519E+02 -0.75375435412E+03  0.75470632856E+03  0.33306312948E+01 0.  0.
         13    1    3    3    0    0 -0.14311792548E+01  0.63069847130E+01 -0.15436056325E+03  0.15449598641E+03  0.00000000000E+00 0.  1.
          1    1    3    3  501    0 -0.93153897961E+01  0.29879119806E+02 -0.59939379087E+03  0.60021034215E+03  0.00000000000E+00 0.  1.
         -3    1    1    2    0  502  0.10746569051E+02 -0.36186104519E+02 -0.24432020909E+03  0.24721910823E+03  0.00000000000E+00 0. -1.
<mgrwt>
<rscale>  1 0.30000000E+03</rscale>
<asrwt>0</asrwt>
<pdfrwt beam="1">  1       21 0.70016031E-02 0.30000000E+03</pdfrwt>
<pdfrwt beam="2">0</pdfrwt>
<totfact> 0.16128858E+04</totfact>
</mgrwt>
</event>
<event>
 6    1  0.1274196E-001  0.3000000E+03  0.7818608E-02  0.1093470E+00
         21   -1    0    0  501  502  0.00000000000E+00  0.00000000000E+00  0.16362402605E+01  0.16362402605E+01  0.00000000000E+00 0. -1.
         13   -1    0    0    0    0 -0.00000000000E+00 -0.00000000000E+00 -0.10000000000E+04  0.10000000000E+04  0.00000000000E+00 0.  1.
    9000005    2    1    2  501    0 -0.24843468962E+02 -0.19346622187E+02 -0.81312530655E+03  0.81374059294E+03  0.30819984001E+01 0.  0.
         13    1    3    3    0    0 -0.14168600751E+02 -0.99930835097E+01 -0.41353325621E+03  0.41389656311E+03  0.00000000000E+00 0.  1.
          3    1    3    3  501    0 -0.10674868211E+02 -0.93535386776E+01 -0.39959205034E+03  0.39984402984E+03  0.00000000000E+00 0.  1.
         -3    1    1    2    0  502  0.24843468962E+02  0.19346622187E+02 -0.18523845319E+03  0.18789564732E+03  0.00000000000E+00 0. -1.
<mgrwt>
<rscale>  1 0.30000000E+03</rscale>
<asrwt>0</asrwt>
<pdfrwt beam="1">  1       21 0.59499771E-02 0.30000000E+03</pdfrwt>
<pdfrwt beam="2">0</pdfrwt>
<totfact> 0.21378073E+04</totfact>
</mgrwt>
</event>
<event>
 6    1  0.1274196E-001  0.3000000E+03  0.7818608E-02  0.1093470E+00
         21   -1    0    0  501  502  0.00000000000E+00  0.00000000000E+00  0.15132428868E+01  0.15132428868E+01  0.00000000000E+00 0. -1.
         13   -1    0    0    0    0 -0.00000000000E+00 -0.00000000000E+00 -0.10000000000E+04  0.10000000000E+04  0.00000000000E+00 0.  1.
    9000005    2    1    2  501    0 -0.17572679497E+02 -0.33064926032E+02 -0.63270958714E+03  0.63382447984E+03  0.31561346218E+01 0.  0.
         13    1    3    3    0    0 -0.66408675700E+01 -0.94263324931E+01 -0.19761814098E+03  0.19795425358E+03  0.00000000000E+00 0.  1.
          1    1    3    3  501    0 -0.10931811927E+02 -0.23638593539E+02 -0.43509144616E+03  0.43587022626E+03  0.00000000000E+00 0.  1.
         -3    1    1    2    0  502  0.17572679497E+02  0.33064926032E+02 -0.36577716997E+03  0.36768876304E+03  0.00000000000E+00 0. -1.
<mgrwt>
<rscale>  1 0.30000000E+03</rscale>
<asrwt>0</asrwt>
<pdfrwt beam="1">  1       21 0.55027130E-02 0.30000000E+03</pdfrwt>
<pdfrwt beam="2">0</pdfrwt>
<totfact> 0.24453462E+04</totfact>
</mgrwt>
</event>
<event>
 6    1  0.1274196E-001  0.3000000E+03  0.7818608E-02  0.1093470E+00
         21   -1    0    0  501  502  0.00000000000E+00  0.00000000000E+00  0.17753390028E+01  0.17753390028E+01  0.00000000000E+00 0. -1.
         13   -1    0    0    0    0 -0.00000000000E+00 -0.00000000000E+00 -0.10000000000E+04  0.10000000000E+04  0.00000000000E+00 0.  1.
    9000005    2    1    2  501    0 -0.31177739030E+02  0.17018587075E+02 -0.76783022157E+03  0.76865888433E+03  0.33981754806E+01 0.  0.
         13    1    3    3    0    0 -0.17998276661E+02  0.10677484238E+02 -0.41925640450E+03  0.41977836932E+03  0.00000000000E+00 0.  1.
          3    1    3    3  501    0 -0.13179462369E+02  0.63411028374E+01 -0.34857381706E+03  0.34888051501E+03  0.00000000000E+00 0.  1.
         -1    1    1    2    0  502  0.31177739030E+02 -0.17018587075E+02 -0.23039443943E+03  0.23311645467E+03  0.00000000000E+00 0. -1.
<mgrwt>
<rscale>  1 0.30000000E+03</rscale>
<asrwt>0</asrwt>
<pdfrwt beam="1">  1       21 0.64557918E-02 0.30000000E+03</pdfrwt>
<pdfrwt beam="2">0</pdfrwt>
<totfact> 0.18568110E+04</totfact>
</mgrwt>
</event>
<event>
 6    1  0.1274196E-001  0.3000000E+03  0.7818608E-02  0.1093470E+00
         21   -1    0    0  501  502  0.00000000000E+00  0.00000000000E+00  0.25088181597E+01  0.25088181597E+01  0.00000000000E+00 0. -1.
         13   -1    0    0    0    0 -0.00000000000E+00 -0.00000000000E+00 -0.10000000000E+04  0.10000000000E+04  0.00000000000E+00 0.  1.
    9000005    2    1    2  501    0 -0.77905198991E+01 -0.45035474627E+02 -0.70303193086E+03  0.70452368990E+03  0.32935768432E+01 0.  0.
         13    1    3    3    0    0 -0.27381632360E+01 -0.21533088462E+02 -0.31325648842E+03  0.31400764159E+03  0.00000000000E+00 0.  1.
          3    1    3    3  501    0 -0.50523566630E+01 -0.23502386165E+02 -0.38977544244E+03  0.39051604831E+03  0.00000000000E+00 0.  1.
         -3    1    1    2    0  502  0.77905198991E+01  0.45035474627E+02 -0.29445925098E+03  0.29798512826E+03  0.00000000000E+00 0. -1.
<mgrwt>
<rscale>  1 0.30000000E+03</rscale>
<asrwt>0</asrwt>
<pdfrwt beam="1">  1       21 0.91229944E-02 0.30000000E+03</pdfrwt>
<pdfrwt beam="2">0</pdfrwt>
<totfact> 0.10131345E+04</totfact>
</mgrwt>
</event>
<event>
 6    1  0.1274196E-001  0.3000000E+03  0.7818608E-02  0.1093470E+00
         21   -1    0    0  501  502  0.00000000000E+00  0.00000000000E+00  0.12746842048E+01  0.12746842048E+01  0.00000000000E+00 0. -1.
         13   -1    0    0    0    0 -0.00000000000E+00 -0.00000000000E+00 -0.10000000000E+04  0.10000000000E+04  0.00000000000E+00 0.  1.
    9000005    2    1    2  501    0  0.26402150574E+02  0.20672794754E+02 -0.66913228156E+03  0.66998024385E+03  0.33285007551E+01 0.  0.
         13    1    3    3    0    0  0.21642847722E+02  0.17434941198E+02 -0.57620590670E+03  0.57687575521E+03  0.00000000000E+00 0.  1.
          3    1    3    3  501    0  0.47593028519E+01  0.32378535559E+01 -0.92926374863E+02  0.93104488637E+02  0.00000000000E+00 0.  1.
         -1    1    1    2    0  502 -0.26402150574E+02 -0.20672794754E+02 -0.32959303423E+03  0.33129444036E+03  0.00000000000E+00 0. -1.
<mgrwt>
<rscale>  1 0.30000000E+03</rscale>
<asrwt>0</asrwt>
<pdfrwt beam="1">  1       21 0.46352251E-02 0.30000000E+03</pdfrwt>
<pdfrwt beam="2">0</pdfrwt>
<totfact> 0.32768274E+04</totfact>
</mgrwt>
</event>
<event>
 6    1  0.1274196E-001  0.3000000E+03  0.7818608E-02  0.1093470E+00
         21   -1    0    0  501  502  0.00000000000E+00  0.00000000000E+00  0.96703413361E+00  0.96703413361E+00  0.00000000000E+00 0. -1.
         13   -1    0    0    0    0 -0.00000000000E+00 -0.00000000000E+00 -0.10000000000E+04  0.10000000000E+04  0.00000000000E+00 0.  1.
    9000005    2    1    2  501    0  0.29713976028E+02 -0.62040496288E+01 -0.60222933094E+03  0.60300405181E+03  0.35083985839E+01 0.  0.
         13    1    3    3    0    0  0.25674241965E+02 -0.57122203164E+01 -0.49613017139E+03  0.49682687440E+03  0.00000000000E+00 0.  1.
          3    1    3    3  501    0  0.40397340634E+01 -0.49182931243E+00 -0.10609915955E+03  0.10617717742E+03  0.00000000000E+00 0.  1.
         -1    1    1    2    0  502 -0.29713976028E+02  0.62040496288E+01 -0.39680363493E+03  0.39796298232E+03  0.00000000000E+00 0. -1.
<mgrwt>
<rscale>  1 0.30000000E+03</rscale>
<asrwt>0</asrwt>
<pdfrwt beam="1">  1       21 0.35164952E-02 0.30000000E+03</pdfrwt>
<pdfrwt beam="2">0</pdfrwt>
<totfact> 0.52204107E+04</totfact>
</mgrwt>
</event>
<event>
 6    1  0.1274196E-001  0.3000000E+03  0.7818608E-02  0.1093470E+00
         21   -1    0    0  501  502  0.00000000000E+00  0.00000000000E+00  0.11223023217E+01  0.11223023217E+01  0.00000000000E+00 0. -1.
         13   -1    0    0    0    0 -0.00000000000E+00 -0.00000000000E+00 -0.10000000000E+04  0.10000000000E+04  0.00000000000E+00 0.  1.
    9000005    2    1    2  501    0 -0.74556411843E+01  0.30459156868E+02 -0.64586814439E+03  0.64672268108E+03  0.11009971145E+02 0.  0.
         13    1    3    3    0    0 -0.42330745233E+01  0.20153376160E+02 -0.51432569674E+03  0.51473779715E+03  0.00000000000E+00 0.  1.
          1    1    3    3  501    0 -0.32225666610E+01  0.10305780707E+02 -0.13154244765E+03  0.13198488393E+03  0.00000000000E+00 0.  1.
         -3    1    1    2    0  502  0.74556411843E+01 -0.30459156868E+02 -0.35300955329E+03  0.35439962125E+03  0.00000000000E+00 0. -1.
<mgrwt>
<rscale>  1 0.30000000E+03</rscale>
<asrwt>0</asrwt>
<pdfrwt beam="1">  1       21 0.40811080E-02 0.30000000E+03</pdfrwt>
<pdfrwt beam="2">0</pdfrwt>
<totfact> 0.40648934E+04</totfact>
</mgrwt>
</event>
<event>
 6    1  0.1274196E-001  0.3000000E+03  0.7818608E-02  0.1093470E+00
         21   -1    0    0  501  502  0.00000000000E+00  0.00000000000E+00  0.13421610672E+01  0.13421610672E+01  0.00000000000E+00 0. -1.
         13   -1    0    0    0    0 -0.00000000000E+00 -0.00000000000E+00 -0.10000000000E+04  0.10000000000E+04  0.00000000000E+00 0.  1.
    9000005    2    1    2  501    0 -0.29866040285E+02 -0.16104110744E+02 -0.68650682331E+03  0.68735238528E+03  0.32187501402E+01 0.  0.
         13    1    3    3    0    0 -0.19541633763E+02 -0.88590362753E+01 -0.42254347966E+03  0.42308787524E+03  0.00000000000E+00 0.  1.
          1    1    3    3  501    0 -0.10324406523E+02 -0.72450744685E+01 -0.26396334365E+03  0.26426451004E+03  0.00000000000E+00 0.  1.
         -3    1    1    2    0  502  0.29866040285E+02  0.16104110744E+02 -0.31215101562E+03  0.31398977578E+03  0.00000000000E+00 0. -1.
<mgrwt>
<rscale>  1 0.30000000E+03</rscale>
<asrwt>0</asrwt>
<pdfrwt beam="1">  1       21 0.48805960E-02 0.30000000E+03</pdfrwt>
<pdfrwt beam="2">0</pdfrwt>
<totfact> 0.30015608E+04</totfact>
</mgrwt>
</event>
<event>
 6    1  0.1274196E-001  0.3000000E+03  0.7818608E-02  0.1093470E+00
         21   -1    0    0  501  502  0.00000000000E+00  0.00000000000E+00  0.31464763279E+01  0.31464763279E+01  0.00000000000E+00 0. -1.
         13   -1    0    0    0    0 -0.00000000000E+00 -0.00000000000E+00 -0.10000000000E+04  0.10000000000E+04  0.00000000000E+00 0.  1.
    9000005    2    1    2  501    0 -0.76798412891E+01  0.55483092174E+02 -0.48093403085E+03  0.48419534515E+03  0.31994926974E+01 0.  0.
         13    1    3    3    0    0 -0.55564721076E+01  0.28741000134E+02 -0.24808677312E+03  0.24980785910E+03  0.00000000000E+00 0.  1.
          1    1    3    3  501    0 -0.21233691816E+01  0.26742092040E+02 -0.23284725773E+03  0.23438748605E+03  0.00000000000E+00 0.  1.
         -1    1    1    2    0  502  0.76798412891E+01 -0.55483092174E+02 -0.51591949282E+03  0.51895113118E+03  0.00000000000E+00 0. -1.
<mgrwt>
<rscale>  1 0.30000000E+03</rscale>
<asrwt>0</asrwt>
<pdfrwt beam="1">  1       21 0.11441756E-01 0.30000000E+03</pdfrwt>
<pdfrwt beam="2">0</pdfrwt>
<totfact> 0.67552201E+03</totfact>
</mgrwt>
</event>
<event>
 6    1  0.1274196E-001  0.3000000E+03  0.7818608E-02  0.1093470E+00
         21   -1    0    0  501  502  0.00000000000E+00  0.00000000000E+00  0.12762411075E+01  0.12762411075E+01  0.00000000000E+00 0. -1.
         13   -1    0    0    0    0 -0.00000000000E+00 -0.00000000000E+00 -0.10000000000E+04  0.10000000000E+04  0.00000000000E+00 0.  1.
    9000005    2    1    2  501    0 -0.15119233021E+02  0.29368268759E+02 -0.68832011616E+03  0.68912001766E+03  0.32756691606E+01 0.  0.
         13    1    3    3    0    0 -0.56842631828E+01  0.10121720564E+02 -0.21146189019E+03  0.21178028963E+03  0.00000000000E+00 0.  1.
          3    1    3    3  501    0 -0.94349698379E+01  0.19246548196E+02 -0.47685822597E+03  0.47733972802E+03  0.00000000000E+00 0.  1.
         -3    1    1    2    0  502  0.15119233021E+02 -0.29368268759E+02 -0.31040364273E+03  0.31215622345E+03  0.00000000000E+00 0. -1.
<mgrwt>
<rscale>  1 0.30000000E+03</rscale>
<asrwt>0</asrwt>
<pdfrwt beam="1">  1       21 0.46408865E-02 0.30000000E+03</pdfrwt>
<pdfrwt beam="2">0</pdfrwt>
<totfact> 0.32700369E+04</totfact>
</mgrwt>
</event>
<event>
 6    1  0.1274196E-001  0.3000000E+03  0.7818608E-02  0.1093470E+00
         21   -1    0    0  501  502  0.00000000000E+00  0.00000000000E+00  0.14913326262E+01  0.14913326262E+01  0.00000000000E+00 0. -1.
         13   -1    0    0    0    0 -0.00000000000E+00 -0.00000000000E+00 -0.10000000000E+04  0.10000000000E+04  0.00000000000E+00 0.  1.
    9000005    2    1    2  501    0 -0.38081608964E+02  0.50829341653E+01 -0.54166071996E+03  0.54303076484E+03  0.31671519313E+01 0.  0.
         13    1    3    3    0    0 -0.17327536026E+02  0.38453327674E+01 -0.24341582443E+03  0.24406206930E+03  0.00000000000E+00 0.  1.
          1    1    3    3  501    0 -0.20754072938E+02  0.12376013979E+01 -0.29824489553E+03  0.29896869553E+03  0.00000000000E+00 0.  1.
         -3    1    1    2    0  502  0.38081608964E+02 -0.50829341653E+01 -0.45684794741E+03  0.45846056779E+03  0.00000000000E+00 0. -1.
<mgrwt>
<rscale>  1 0.30000000E+03</rscale>
<asrwt>0</asrwt>
<pdfrwt beam="1">  1       21 0.54230392E-02 0.30000000E+03</pdfrwt>
<pdfrwt beam="2">0</pdfrwt>
<totfact> 0.25072403E+04</totfact>
</mgrwt>
</event>
<event>
 6    1  0.1274196E-001  0.3000000E+03  0.7818608E-02  0.1093470E+00
         21   -1    0    0  501  502  0.00000000000E+00  0.00000000000E+00  0.13469031962E+01  0.13469031962E+01  0.00000000000E+00 0. -1.
         13   -1    0    0    0    0 -0.00000000000E+00 -0.00000000000E+00 -0.10000000000E+04  0.10000000000E+04  0.00000000000E+00 0.  1.
    9000005    2    1    2  501    0 -0.34824814417E+02  0.91110373740E+01 -0.59246933463E+03  0.59357119603E+03  0.33276986627E+01 0.  0.
         13    1    3    3    0    0 -0.34273785121E+02  0.92201957475E+01 -0.57613245208E+03  0.57722465877E+03  0.00000000000E+00 0.  1.
          1    1    3    3  501    0 -0.55102929613E+00 -0.10915837355E+00 -0.16336882556E+02  0.16346537262E+02  0.00000000000E+00 0.  1.
         -1    1    1    2    0  502  0.34824814417E+02 -0.91110373740E+01 -0.40618376217E+03  0.40777570716E+03  0.00000000000E+00 0. -1.
<mgrwt>
<rscale>  1 0.30000000E+03</rscale>
<asrwt>0</asrwt>
<pdfrwt beam="1">  1       21 0.48978401E-02 0.30000000E+03</pdfrwt>
<pdfrwt beam="2">0</pdfrwt>
<totfact> 0.29835868E+04</totfact>
</mgrwt>
</event>
<event>
 6    1  0.1274196E-001  0.3000000E+03  0.7818608E-02  0.1093470E+00
         21   -1    0    0  501  502  0.00000000000E+00  0.00000000000E+00  0.30457455661E+01  0.30457455661E+01  0.00000000000E+00 0. -1.
         13   -1    0    0    0    0 -0.00000000000E+00 -0.00000000000E+00 -0.10000000000E+04  0.10000000000E+04  0.00000000000E+00 0.  1.
    9000005    2    1    2  501    0 -0.25479419981E+02  0.47392606955E+02 -0.60873467302E+03  0.61111500752E+03  0.28965904107E+01 0.  0.
         13    1    3    3    0    0 -0.26034710692E+01  0.49944061111E+01 -0.74456001735E+02  0.74668724031E+02  0.00000000000E+00 0.  1.
          3    1    3    3  501    0 -0.22875948911E+02  0.42398200844E+02 -0.53427867129E+03  0.53644628349E+03  0.00000000000E+00 0.  1.
         -1    1    1    2    0  502  0.25479419981E+02 -0.47392606955E+02 -0.38821958141E+03  0.39193073805E+03  0.00000000000E+00 0. -1.
<mgrwt>
<rscale>  1 0.30000000E+03</rscale>
<asrwt>0</asrwt>
<pdfrwt beam="1">  1       21 0.11075462E-01 0.30000000E+03</pdfrwt>
<pdfrwt beam="2">0</pdfrwt>
<totfact> 0.71633418E+03</totfact>
</mgrwt>
</event>
<event>
 6    1  0.1274196E-001  0.3000000E+03  0.7818608E-02  0.1093470E+00
         21   -1    0    0  501  502  0.00000000000E+00  0.00000000000E+00  0.55433428121E+01  0.55433428121E+01  0.00000000000E+00 0. -1.
         13   -1    0    0    0    0 -0.00000000000E+00 -0.00000000000E+00 -0.10000000000E+04  0.10000000000E+04  0.00000000000E+00 0.  1.
    9000005    2    1    2  501    0  0.28442573084E+02  0.17254469441E+02 -0.94667629506E+03  0.94732255886E+03  0.10831722387E+02 0.  0.
         13    1    3    3    0    0  0.14382191639E+02  0.26564460774E+01 -0.43116082949E+03  0.43140881427E+03  0.00000000000E+00 0.  1.
          3    1    3    3  501    0  0.14060381445E+02  0.14598023364E+02 -0.51551546557E+03  0.51591374459E+03  0.00000000000E+00 0.  1.
         -3    1    1    2    0  502 -0.28442573084E+02 -0.17254469441E+02 -0.47780362127E+02  0.58220783955E+02  0.00000000000E+00 0. -1.
<mgrwt>
<rscale>  1 0.30000000E+03</rscale>
<asrwt>0</asrwt>
<pdfrwt beam="1">  1       21 0.20157653E-01 0.30000000E+03</pdfrwt>
<pdfrwt beam="2">0</pdfrwt>
<totfact> 0.23635128E+03</totfact>
</mgrwt>
</event>
<event>
 6    1  0.1274196E-001  0.3000000E+03  0.7818608E-02  0.1093470E+00
         21   -1    0    0  501  502  0.00000000000E+00  0.00000000000E+00  0.47725896195E+01  0.47725896195E+01  0.00000000000E+00 0. -1.
         13   -1    0    0    0    0 -0.00000000000E+00 -0.00000000000E+00 -0.10000000000E+04  0.10000000000E+04  0.00000000000E+00 0.  1.
    9000005    2    1    2  501    0  0.65511288874E+02  0.94104474611E+01 -0.64085442739E+03  0.64427224764E+03  0.34708049043E+01 0.  0.
         13    1    3    3    0    0  0.40825566032E+02  0.66744899622E+01 -0.38590845994E+03  0.38811933102E+03  0.00000000000E+00 0.  1.
          3    1    3    3  501    0  0.24685722842E+02  0.27359574989E+01 -0.25494596745E+03  0.25615291662E+03  0.00000000000E+00 0.  1.
         -3    1    1    2    0  502 -0.65511288874E+02 -0.94104474611E+01 -0.35437298299E+03  0.36050034198E+03  0.00000000000E+00 0. -1.
<mgrwt>
<rscale>  1 0.30000000E+03</rscale>
<asrwt>0</asrwt>
<pdfrwt beam="1">  1       21 0.17354908E-01 0.30000000E+03</pdfrwt>
<pdfrwt beam="2">0</pdfrwt>
<totfact> 0.31376011E+03</totfact>
</mgrwt>
</event>
<event>
 6    1  0.1274196E-001  0.3000000E+03  0.7818608E-02  0.1093470E+00
         21   -1    0    0  501  502  0.00000000000E+00  0.00000000000E+00  0.19636051356E+01  0.19636051356E+01  0.00000000000E+00 0. -1.
         13   -1    0    0    0    0 -0.00000000000E+00 -0.00000000000E+00 -0.10000000000E+04  0.10000000000E+04  0.00000000000E+00 0.  1.
    9000005    2    1    2  501    0  0.24059693818E+02  0.20426895796E+02 -0.85013292869E+03  0.85073013580E+03  0.44317705996E+01 0.  0.
         13    1    3    3    0    0  0.14767769214E+02  0.14358890830E+02 -0.50849976799E+03  0.50891677002E+03  0.00000000000E+00 0.  1.
          1    1    3    3  501    0  0.92919246045E+01  0.60680049653E+01 -0.34163316069E+03  0.34181336579E+03  0.00000000000E+00 0.  1.
         -1    1    1    2    0  502 -0.24059693818E+02 -0.20426895796E+02 -0.14790346618E+03  0.15123346933E+03  0.00000000000E+00 0. -1.
<mgrwt>
<rscale>  1 0.30000000E+03</rscale>
<asrwt>0</asrwt>
<pdfrwt beam="1">  1       21 0.71403974E-02 0.30000000E+03</pdfrwt>
<pdfrwt beam="2">0</pdfrwt>
<totfact> 0.15586733E+04</totfact>
</mgrwt>
</event>
<event>
 6    1  0.1274196E-001  0.3000000E+03  0.7818608E-02  0.1093470E+00
         21   -1    0    0  501  502  0.00000000000E+00  0.00000000000E+00  0.14517935144E+01  0.14517935144E+01  0.00000000000E+00 0. -1.
         13   -1    0    0    0    0 -0.00000000000E+00 -0.00000000000E+00 -0.10000000000E+04  0.10000000000E+04  0.00000000000E+00 0.  1.
    9000005    2    1    2  501    0 -0.25256770299E+02 -0.18276528958E+02 -0.78647289120E+03  0.78709723837E+03  0.32431626727E+01 0.  0.
         13    1    3    3    0    0 -0.49584003613E+01 -0.21836413301E+01 -0.12514411588E+03  0.12526134186E+03  0.00000000000E+00 0.  1.
          3    1    3    3  501    0 -0.20298369937E+02 -0.16092887628E+02 -0.66132877532E+03  0.66183589652E+03  0.00000000000E+00 0.  1.
         -1    1    1    2    0  502  0.25256770299E+02  0.18276528958E+02 -0.21207531528E+03  0.21435455514E+03  0.00000000000E+00 0. -1.
<mgrwt>
<rscale>  1 0.30000000E+03</rscale>
<asrwt>0</asrwt>
<pdfrwt beam="1">  1       21 0.52792603E-02 0.30000000E+03</pdfrwt>
<pdfrwt beam="2">0</pdfrwt>
<totfact> 0.26252298E+04</totfact>
</mgrwt>
</event>
<event>
 6    1  0.1274196E-001  0.3000000E+03  0.7818608E-02  0.1093470E+00
         21   -1    0    0  501  502  0.00000000000E+00  0.00000000000E+00  0.24923679534E+01  0.24923679534E+01  0.00000000000E+00 0. -1.
         13   -1    0    0    0    0 -0.00000000000E+00 -0.00000000000E+00 -0.10000000000E+04  0.10000000000E+04  0.00000000000E+00 0.  1.
    9000005    2    1    2  501    0 -0.38667053503E+02 -0.16210345532E+02 -0.77034426554E+03  0.77149212681E+03  0.34493390467E+01 0.  0.
         13    1    3    3    0    0 -0.18886414489E+02 -0.94686672633E+01 -0.36959619384E+03  0.37019953919E+03  0.00000000000E+00 0.  1.
          3    1    3    3  501    0 -0.19780639014E+02 -0.67416782688E+01 -0.40074807170E+03  0.40129258762E+03  0.00000000000E+00 0.  1.
         -3    1    1    2    0  502  0.38667053503E+02  0.16210345532E+02 -0.22716336650E+03  0.23100024115E+03  0.00000000000E+00 0. -1.
<mgrwt>
<rscale>  1 0.30000000E+03</rscale>
<asrwt>0</asrwt>
<pdfrwt beam="1">  1       21 0.90631753E-02 0.30000000E+03</pdfrwt>
<pdfrwt beam="2">0</pdfrwt>
<totfact> 0.10250230E+04</totfact>
</mgrwt>
</event>
<event>
 6    1  0.1274196E-001  0.3000000E+03  0.7818608E-02  0.1093470E+00
         21   -1    0    0  501  502  0.00000000000E+00  0.00000000000E+00  0.13929712718E+01  0.13929712718E+01  0.00000000000E+00 0. -1.
         13   -1    0    0    0    0 -0.00000000000E+00 -0.00000000000E+00 -0.10000000000E+04  0.10000000000E+04  0.00000000000E+00 0.  1.
    9000005    2    1    2  501    0  0.14866306133E+02  0.31845315106E+02 -0.66454865927E+03  0.66549101332E+03  0.42704937654E+01 0.  0.
         13    1    3    3    0    0 -0.81752434111E-01  0.31868056586E+00 -0.22485722196E+01  0.22725135402E+01  0.00000000000E+00 0.  1.
          3    1    3    3  501    0  0.14948058567E+02  0.31526634540E+02 -0.66230008705E+03  0.66321849978E+03  0.00000000000E+00 0.  1.
         -3    1    1    2    0  502 -0.14866306133E+02 -0.31845315106E+02 -0.33405836946E+03  0.33590195796E+03  0.00000000000E+00 0. -1.
<mgrwt>
<rscale>  1 0.30000000E+03</rscale>
<asrwt>0</asrwt>
<pdfrwt beam="1">  1       21 0.50653608E-02 0.30000000E+03</pdfrwt>
<pdfrwt beam="2">0</pdfrwt>
<totfact> 0.28173724E+04</totfact>
</mgrwt>
</event>
<event>
 6    1  0.1274196E-001  0.3000000E+03  0.7818608E-02  0.1093470E+00
         21   -1    0    0  501  502  0.00000000000E+00  0.00000000000E+00  0.22749466190E+01  0.22749466190E+01  0.00000000000E+00 0. -1.
         13   -1    0    0    0    0 -0.00000000000E+00 -0.00000000000E+00 -0.10000000000E+04  0.10000000000E+04  0.00000000000E+00 0.  1.
    9000005    2    1    2  501    0  0.23301439818E+02  0.33969138381E+02 -0.74989572862E+03  0.75104550235E+03  0.53743210423E+01 0.  0.
         13    1    3    3    0    0  0.10266375632E+02  0.17657509769E+02 -0.33083293822E+03  0.33146284729E+03  0.00000000000E+00 0.  1.
          1    1    3    3  501    0  0.13035064186E+02  0.16311628612E+02 -0.41906279041E+03  0.41958265506E+03  0.00000000000E+00 0.  1.
         -1    1    1    2    0  502 -0.23301439818E+02 -0.33969138381E+02 -0.24782932476E+03  0.25122944427E+03  0.00000000000E+00 0. -1.
<mgrwt>
<rscale>  1 0.30000000E+03</rscale>
<asrwt>0</asrwt>
<pdfrwt beam="1">  1       21 0.82725506E-02 0.30000000E+03</pdfrwt>
<pdfrwt beam="2">0</pdfrwt>
<totfact> 0.12043185E+04</totfact>
</mgrwt>
</event>
<event>
 6    1  0.1274196E-001  0.3000000E+03  0.7818608E-02  0.1093470E+00
         21   -1    0    0  501  502  0.00000000000E+00  0.00000000000E+00  0.40160344290E+01  0.40160344290E+01  0.00000000000E+00 0. -1.
         13   -1    0    0    0    0 -0.00000000000E+00 -0.00000000000E+00 -0.10000000000E+04  0.10000000000E+04  0.00000000000E+00 0.  1.
    9000005    2    1    2  501    0 -0.57779279191E+02  0.23238739410E+02 -0.58805167278E+03  0.59135728968E+03  0.44933383109E+01 0.  0.
         13    1    3    3    0    0 -0.25215411155E+02  0.77571885645E+01 -0.24677490376E+03  0.24818107112E+03  0.00000000000E+00 0.  1.
          3    1    3    3  501    0 -0.32563868037E+02  0.15481550845E+02 -0.34127676902E+03  0.34317621857E+03  0.00000000000E+00 0.  1.
         -3    1    1    2    0  502  0.57779279191E+02 -0.23238739410E+02 -0.40793229279E+03  0.41265874474E+03  0.00000000000E+00 0. -1.
<mgrwt>
<rscale>  1 0.30000000E+03</rscale>
<asrwt>0</asrwt>
<pdfrwt beam="1">  1       21 0.14603792E-01 0.30000000E+03</pdfrwt>
<pdfrwt beam="2">0</pdfrwt>
<totfact> 0.43268759E+03</totfact>
</mgrwt>
</event>
<event>
 6    1  0.1274196E-001  0.3000000E+03  0.7818608E-02  0.1093470E+00
         21   -1    0    0  501  502  0.00000000000E+00  0.00000000000E+00  0.17161863539E+01  0.17161863539E+01  0.00000000000E+00 0. -1.
         13   -1    0    0    0    0 -0.00000000000E+00 -0.00000000000E+00 -0.10000000000E+04  0.10000000000E+04  0.00000000000E+00 0.  1.
    9000005    2    1    2  501    0 -0.30964632313E+02  0.38464008791E+01 -0.82826355633E+03  0.82885644219E+03  0.29798932980E+01 0.  0.
         13    1    3    3    0    0 -0.33909364350E+01 -0.45387752459E+00 -0.99157034520E+02  0.99216036756E+02  0.00000000000E+00 0.  1.
          1    1    3    3  501    0 -0.27573695878E+02  0.43002784037E+01 -0.72910652181E+03  0.72964040543E+03  0.00000000000E+00 0.  1.
         -1    1    1    2    0  502  0.30964632313E+02 -0.38464008791E+01 -0.17002025732E+03  0.17285974417E+03  0.00000000000E+00 0. -1.
<mgrwt>
<rscale>  1 0.30000000E+03</rscale>
<asrwt>0</asrwt>
<pdfrwt beam="1">  1       21 0.62406908E-02 0.30000000E+03</pdfrwt>
<pdfrwt beam="2">0</pdfrwt>
<totfact> 0.19688605E+04</totfact>
</mgrwt>
</event>
<event>
 6    1  0.1274196E-001  0.3000000E+03  0.7818608E-02  0.1093470E+00
         21   -1    0    0  501  502  0.00000000000E+00  0.00000000000E+00  0.20121370532E+01  0.20121370532E+01  0.00000000000E+00 0. -1.
         13   -1    0    0    0    0 -0.00000000000E+00 -0.00000000000E+00 -0.10000000000E+04  0.10000000000E+04  0.00000000000E+00 0.  1.
    9000005    2    1    2  501    0 -0.78454646041E+00 -0.34365173680E+02 -0.82051201954E+03  0.82123809116E+03  0.32322576460E+01 0.  0.
         13    1    3    3    0    0  0.29901636747E+00 -0.98140953049E+01 -0.26803014486E+03  0.26820992605E+03  0.00000000000E+00 0.  1.
          3    1    3    3  501    0 -0.10835628279E+01 -0.24551078375E+02 -0.55248187468E+03  0.55302816511E+03  0.00000000000E+00 0.  1.
         -1    1    1    2    0  502  0.78454646041E+00  0.34365173680E+02 -0.17747584340E+03  0.18077404589E+03  0.00000000000E+00 0. -1.
<mgrwt>
<rscale>  1 0.30000000E+03</rscale>
<asrwt>0</asrwt>
<pdfrwt beam="1">  1       21 0.73168774E-02 0.30000000E+03</pdfrwt>
<pdfrwt beam="2">0</pdfrwt>
<totfact> 0.14936552E+04</totfact>
</mgrwt>
</event>
<event>
 6    1  0.1274196E-001  0.3000000E+03  0.7818608E-02  0.1093470E+00
         21   -1    0    0  501  502  0.00000000000E+00  0.00000000000E+00  0.97801215519E+00  0.97801215519E+00  0.00000000000E+00 0. -1.
         13   -1    0    0    0    0 -0.00000000000E+00 -0.00000000000E+00 -0.10000000000E+04  0.10000000000E+04  0.00000000000E+00 0.  1.
    9000005    2    1    2  501    0  0.28053602619E+02 -0.13415699438E+02 -0.53339588889E+03  0.53431469707E+03  0.37464138889E+01 0.  0.
         13    1    3    3    0    0  0.25950794786E+02 -0.13358642901E+02 -0.49117881384E+03  0.49204524615E+03  0.00000000000E+00 0.  1.
          3    1    3    3  501    0  0.21028078331E+01 -0.57056537455E-01 -0.42217075047E+02  0.42269450928E+02  0.00000000000E+00 0.  1.
         -3    1    1    2    0  502 -0.28053602619E+02  0.13415699438E+02 -0.46562609896E+03  0.46666331508E+03  0.00000000000E+00 0. -1.
<mgrwt>
<rscale>  1 0.30000000E+03</rscale>
<asrwt>0</asrwt>
<pdfrwt beam="1">  1       21 0.35564153E-02 0.30000000E+03</pdfrwt>
<pdfrwt beam="2">0</pdfrwt>
<totfact> 0.51225877E+04</totfact>
</mgrwt>
</event>
<event>
 6    1  0.1274196E-001  0.3000000E+03  0.7818608E-02  0.1093470E+00
         21   -1    0    0  501  502  0.00000000000E+00  0.00000000000E+00  0.37223097810E+01  0.37223097810E+01  0.00000000000E+00 0. -1.
         13   -1    0    0    0    0 -0.00000000000E+00 -0.00000000000E+00 -0.10000000000E+04  0.10000000000E+04  0.00000000000E+00 0.  1.
    9000005    2    1    2  501    0 -0.22908124793E+02  0.22246054799E+02 -0.92554828502E+03  0.92611871517E+03  0.60479387272E+01 0.  0.
         13    1    3    3    0    0 -0.17265331610E+02  0.15127590486E+02 -0.58719393762E+03  0.58764245596E+03  0.00000000000E+00 0.  1.
          3    1    3    3  501    0 -0.56427931826E+01  0.71184643129E+01 -0.33835434740E+03  0.33847625921E+03  0.00000000000E+00 0.  1.
         -3    1    1    2    0  502  0.22908124793E+02 -0.22246054799E+02 -0.70729405204E+02  0.77603594608E+02  0.00000000000E+00 0. -1.
<mgrwt>
<rscale>  1 0.30000000E+03</rscale>
<asrwt>0</asrwt>
<pdfrwt beam="1">  1       21 0.13535700E-01 0.30000000E+03</pdfrwt>
<pdfrwt beam="2">0</pdfrwt>
<totfact> 0.49751761E+03</totfact>
</mgrwt>
</event>
<event>
 6    1  0.1274196E-001  0.3000000E+03  0.7818608E-02  0.1093470E+00
         21   -1    0    0  501  502  0.00000000000E+00  0.00000000000E+00  0.21053343954E+01  0.21053343954E+01  0.00000000000E+00 0. -1.
         13   -1    0    0    0    0 -0.00000000000E+00 -0.00000000000E+00 -0.10000000000E+04  0.10000000000E+04  0.00000000000E+00 0.  1.
    9000005    2    1    2  501    0  0.76453846443E+01 -0.43864951126E+02 -0.61680438467E+03  0.61842266856E+03  0.40450204778E+01 0.  0.
         13    1    3    3    0    0  0.37825164319E+01 -0.16740115206E+02 -0.26257702452E+03  0.26313728868E+03  0.00000000000E+00 0.  1.
          3    1    3    3  501    0  0.38628682124E+01 -0.27124835920E+02 -0.35422736015E+03  0.35528537988E+03  0.00000000000E+00 0.  1.
         -1    1    1    2    0  502 -0.76453846443E+01  0.43864951126E+02 -0.38109028093E+03  0.38368266584E+03  0.00000000000E+00 0. -1.
<mgrwt>
<rscale>  1 0.30000000E+03</rscale>
<asrwt>0</asrwt>
<pdfrwt beam="1">  1       21 0.76557776E-02 0.30000000E+03</pdfrwt>
<pdfrwt beam="2">0</pdfrwt>
<totfact> 0.13798525E+04</totfact>
</mgrwt>
</event>
<event>
 6    1  0.1274196E-001  0.3000000E+03  0.7818608E-02  0.1093470E+00
         21   -1    0    0  501  502  0.00000000000E+00  0.00000000000E+00  0.10424316293E+01  0.10424316293E+01  0.00000000000E+00 0. -1.
         13   -1    0    0    0    0 -0.00000000000E+00 -0.00000000000E+00 -0.10000000000E+04  0.10000000000E+04  0.00000000000E+00 0.  1.
    9000005    2    1    2  501    0  0.31589987199E+02 -0.47605819832E+01 -0.56379393467E+03  0.56470772234E+03  0.32589064906E+01 0.  0.
         13    1    3    3    0    0  0.17752477787E+02 -0.21632591412E+01 -0.34216361515E+03  0.34263066076E+03  0.00000000000E+00 0.  1.
          1    1    3    3  501    0  0.13837509412E+02 -0.25973228420E+01 -0.22163031951E+03  0.22207706158E+03  0.00000000000E+00 0.  1.
         -1    1    1    2    0  502 -0.31589987199E+02  0.47605819832E+01 -0.43516363370E+03  0.43633470929E+03  0.00000000000E+00 0. -1.
<mgrwt>
<rscale>  1 0.30000000E+03</rscale>
<asrwt>0</asrwt>
<pdfrwt beam="1">  1       21 0.37906685E-02 0.30000000E+03</pdfrwt>
<pdfrwt beam="2">0</pdfrwt>
<totfact> 0.46025809E+04</totfact>
</mgrwt>
</event>
<event>
 6    1  0.1274196E-001  0.3000000E+03  0.7818608E-02  0.1093470E+00
         21   -1    0    0  501  502  0.00000000000E+00  0.00000000000E+00  0.14829354837E+01  0.14829354837E+01  0.00000000000E+00 0. -1.
         13   -1    0    0    0    0 -0.00000000000E+00 -0.00000000000E+00 -0.10000000000E+04  0.10000000000E+04  0.00000000000E+00 0.  1.
    9000005    2    1    2  501    0 -0.27614665325E+02  0.24518291823E+02 -0.63911027235E+03  0.64018394762E+03  0.31353140177E+01 0.  0.
         13    1    3    3    0    0 -0.11692073168E+02  0.12470439872E+02 -0.29546982215E+03  0.29596390362E+03  0.00000000000E+00 0.  1.
          3    1    3    3  501    0 -0.15922592158E+02  0.12047851951E+02 -0.34364045019E+03  0.34422004399E+03  0.00000000000E+00 0.  1.
         -1    1    1    2    0  502  0.27614665325E+02 -0.24518291823E+02 -0.35940679217E+03  0.36129898787E+03  0.00000000000E+00 0. -1.
<mgrwt>
<rscale>  1 0.30000000E+03</rscale>
<asrwt>0</asrwt>
<pdfrwt beam="1">  1       21 0.53925040E-02 0.30000000E+03</pdfrwt>
<pdfrwt beam="2">0</pdfrwt>
<totfact> 0.25316037E+04</totfact>
</mgrwt>
</event>
<event>
 6    1  0.1274196E-001  0.3000000E+03  0.7818608E-02  0.1093470E+00
         21   -1    0    0  501  502  0.00000000000E+00  0.00000000000E+00  0.33162195102E+01  0.33162195102E+01  0.00000000000E+00 0. -1.
         13   -1    0    0    0    0 -0.00000000000E+00 -0.00000000000E+00 -0.10000000000E+04  0.10000000000E+04  0.00000000000E+00 0.  1.
    9000005    2    1    2  501    0  0.48695155402E+02 -0.22712948915E+02 -0.67820759652E+03  0.68033916775E+03  0.29568545070E+01 0.  0.
         13    1    3    3    0    0  0.28555993059E+02 -0.12266823631E+02 -0.40591978014E+03  0.40710783290E+03  0.00000000000E+00 0.  1.
          3    1    3    3  501    0  0.20139162343E+02 -0.10446125285E+02 -0.27228781638E+03  0.27323133484E+03  0.00000000000E+00 0.  1.
         -3    1    1    2    0  502 -0.48695155402E+02  0.22712948915E+02 -0.31847618397E+03  0.32297705176E+03  0.00000000000E+00 0. -1.
<mgrwt>
<rscale>  1 0.30000000E+03</rscale>
<asrwt>0</asrwt>
<pdfrwt beam="1">  1       21 0.12059005E-01 0.30000000E+03</pdfrwt>
<pdfrwt beam="2">0</pdfrwt>
<totfact> 0.61421802E+03</totfact>
</mgrwt>
</event>
<event>
 6    1  0.1274196E-001  0.3000000E+03  0.7818608E-02  0.1093470E+00
         21   -1    0    0  501  502  0.00000000000E+00  0.00000000000E+00  0.15899765547E+01  0.15899765547E+01  0.00000000000E+00 0. -1.
         13   -1    0    0    0    0 -0.00000000000E+00 -0.00000000000E+00 -0.10000000000E+04  0.10000000000E+04  0.00000000000E+00 0.  1.
    9000005    2    1    2  501    0 -0.13615043929E+02  0.33265611057E+02 -0.28757795414E+03  0.28984971421E+03  0.44504848939E+01 0.  0.
         13    1    3    3    0    0 -0.46583854052E+01  0.17154515422E+02 -0.13789106882E+03  0.13903209994E+03  0.00000000000E+00 0.  1.
          1    1    3    3  501    0 -0.89566585233E+01  0.16111095636E+02 -0.14968688532E+03  0.15081761426E+03  0.00000000000E+00 0.  1.
         -1    1    1    2    0  502  0.13615043929E+02 -0.33265611057E+02 -0.71083206930E+03  0.71174026235E+03  0.00000000000E+00 0. -1.
<mgrwt>
<rscale>  1 0.30000000E+03</rscale>
<asrwt>0</asrwt>
<pdfrwt beam="1">  1       21 0.57817451E-02 0.30000000E+03</pdfrwt>
<pdfrwt beam="2">0</pdfrwt>
<totfact> 0.22461163E+04</totfact>
</mgrwt>
</event>
<event>
 6    1  0.1274196E-001  0.3000000E+03  0.7818608E-02  0.1093470E+00
         21   -1    0    0  501  502  0.00000000000E+00  0.00000000000E+00  0.12972728539E+01  0.12972728539E+01  0.00000000000E+00 0. -1.
         13   -1    0    0    0    0 -0.00000000000E+00 -0.00000000000E+00 -0.10000000000E+04  0.10000000000E+04  0.00000000000E+00 0.  1.
    9000005    2    1    2  501    0 -0.79270770178E+01  0.33170474681E+02 -0.65826074901E+03  0.65915131070E+03  0.31808442861E+01 0.  0.
         13    1    3    3    0    0 -0.81153225636E+01  0.30406827623E+02 -0.60019848475E+03  0.60102300682E+03  0.00000000000E+00 0.  1.
          1    1    3    3  501    0  0.18824554579E+00  0.27636470584E+01 -0.58062264262E+02  0.58128303886E+02  0.00000000000E+00 0.  1.
         -3    1    1    2    0  502  0.79270770178E+01 -0.33170474681E+02 -0.34044197813E+03  0.34214596215E+03  0.00000000000E+00 0. -1.
<mgrwt>
<rscale>  1 0.30000000E+03</rscale>
<asrwt>0</asrwt>
<pdfrwt beam="1">  1       21 0.47173658E-02 0.30000000E+03</pdfrwt>
<pdfrwt beam="2">0</pdfrwt>
<totfact> 0.31804264E+04</totfact>
</mgrwt>
</event>
<event>
 6    1  0.1274196E-001  0.3000000E+03  0.7818608E-02  0.1093470E+00
         21   -1    0    0  501  502  0.00000000000E+00  0.00000000000E+00  0.36531446467E+01  0.36531446467E+01  0.00000000000E+00 0. -1.
         13   -1    0    0    0    0 -0.00000000000E+00 -0.00000000000E+00 -0.10000000000E+04  0.10000000000E+04  0.00000000000E+00 0.  1.
    9000005    2    1    2  501    0 -0.59893359932E+02 -0.77374664156E+01 -0.49494221674E+03  0.49862473498E+03  0.34271663074E+01 0.  0.
         13    1    3    3    0    0 -0.74584073107E+01 -0.14561021955E+01 -0.71218752181E+02  0.71623032158E+02  0.00000000000E+00 0.  1.
          3    1    3    3  501    0 -0.52434952622E+02 -0.62813642201E+01 -0.42372346456E+03  0.42700170282E+03  0.00000000000E+00 0.  1.
         -1    1    1    2    0  502  0.59893359932E+02  0.77374664156E+01 -0.50140463861E+03  0.50502840967E+03  0.00000000000E+00 0. -1.
<mgrwt>
<rscale>  1 0.30000000E+03</rscale>
<asrwt>0</asrwt>
<pdfrwt beam="1">  1       21 0.13284190E-01 0.30000000E+03</pdfrwt>
<pdfrwt beam="2">0</pdfrwt>
<totfact> 0.51489508E+03</totfact>
</mgrwt>
</event>
<event>
 6    1  0.1274196E-001  0.3000000E+03  0.7818608E-02  0.1093470E+00
         21   -1    0    0  501  502  0.00000000000E+00  0.00000000000E+00  0.93813438475E+00  0.93813438475E+00  0.00000000000E+00 0. -1.
         13   -1    0    0    0    0 -0.00000000000E+00 -0.00000000000E+00 -0.10000000000E+04  0.10000000000E+04  0.00000000000E+00 0.  1.
    9000005    2    1    2  501    0  0.30288511370E+02  0.30438842431E+01 -0.54026553751E+03  0.54113303455E+03  0.33839188476E+01 0.  0.
         13    1    3    3    0    0  0.41260990993E+01  0.13335166036E+01 -0.64448698808E+02  0.64594409498E+02  0.00000000000E+00 0.  1.
          3    1    3    3  501    0  0.26162412270E+02  0.17103676396E+01 -0.47581683870E+03  0.47653862505E+03  0.00000000000E+00 0.  1.
         -1    1    1    2    0  502 -0.30288511370E+02 -0.30438842431E+01 -0.45879632810E+03  0.45980509983E+03  0.00000000000E+00 0. -1.
<mgrwt>
<rscale>  1 0.30000000E+03</rscale>
<asrwt>0</asrwt>
<pdfrwt beam="1">  1       21 0.34114050E-02 0.30000000E+03</pdfrwt>
<pdfrwt beam="2">0</pdfrwt>
<totfact> 0.54922766E+04</totfact>
</mgrwt>
</event>
<event>
 6    1  0.1274196E-001  0.3000000E+03  0.7818608E-02  0.1093470E+00
         21   -1    0    0  501  502  0.00000000000E+00  0.00000000000E+00  0.11276103425E+01  0.11276103425E+01  0.00000000000E+00 0. -1.
         13   -1    0    0    0    0 -0.00000000000E+00 -0.00000000000E+00 -0.10000000000E+04  0.10000000000E+04  0.00000000000E+00 0.  1.
    9000005    2    1    2  501    0  0.14568783141E+02 -0.28885310381E+02 -0.36815568326E+03  0.36958174952E+03  0.23349220065E+01 0.  0.
         13    1    3    3    0    0  0.40729534968E+01 -0.10328530903E+02 -0.12105449723E+03  0.12156257154E+03  0.00000000000E+00 0.  1.
          1    1    3    3  501    0  0.10495829644E+02 -0.18556779478E+02 -0.24710118604E+03  0.24801917798E+03  0.00000000000E+00 0.  1.
         -3    1    1    2    0  502 -0.14568783141E+02  0.28885310381E+02 -0.63071670639E+03  0.63154586082E+03  0.00000000000E+00 0. -1.
<mgrwt>
<rscale>  1 0.30000000E+03</rscale>
<asrwt>0</asrwt>
<pdfrwt beam="1">  1       21 0.41004099E-02 0.30000000E+03</pdfrwt>
<pdfrwt beam="2">0</pdfrwt>
<totfact> 0.40326837E+04</totfact>
</mgrwt>
</event>
<event>
 6    1  0.1274196E-001  0.3000000E+03  0.7818608E-02  0.1093470E+00
         21   -1    0    0  501  502  0.00000000000E+00  0.00000000000E+00  0.64857117388E+01  0.64857117388E+01  0.00000000000E+00 0. -1.
         13   -1    0    0    0    0 -0.00000000000E+00 -0.00000000000E+00 -0.10000000000E+04  0.10000000000E+04  0.00000000000E+00 0.  1.
    9000005    2    1    2  501    0  0.57719920781E+02  0.26052207774E+02 -0.80753574779E+03  0.81002114928E+03  0.31577750495E+01 0.  0.
         13    1    3    3    0    0  0.18955047825E+02  0.89599069454E+01 -0.28604604694E+03  0.28681337964E+03  0.00000000000E+00 0.  1.
          3    1    3    3  501    0  0.38764872956E+02  0.17092300828E+02 -0.52148970085E+03  0.52320776964E+03  0.00000000000E+00 0.  1.
         -3    1    1    2    0  502 -0.57719920781E+02 -0.26052207774E+02 -0.18597854047E+03  0.19646456246E+03  0.00000000000E+00 0. -1.
<mgrwt>
<rscale>  1 0.30000000E+03</rscale>
<asrwt>0</asrwt>
<pdfrwt beam="1">  1       21 0.23584456E-01 0.30000000E+03</pdfrwt>
<pdfrwt beam="2">0</pdfrwt>
<totfact> 0.17472132E+03</totfact>
</mgrwt>
</event>
<event>
 6    1  0.1274196E-001  0.3000000E+03  0.7818608E-02  0.1093470E+00
         21   -1    0    0  501  502  0.00000000000E+00  0.00000000000E+00  0.13183892021E+01  0.13183892021E+01  0.00000000000E+00 0. -1.
         13   -1    0    0    0    0 -0.00000000000E+00 -0.00000000000E+00 -0.10000000000E+04  0.10000000000E+04  0.00000000000E+00 0.  1.
    9000005    2    1    2  501    0  0.29906873229E+02  0.14917301160E+02 -0.69360106138E+03  0.69441272198E+03  0.31063095671E+01 0.  0.
         13    1    3    3    0    0  0.14265264210E+02  0.62541484291E+01 -0.35087757551E+03  0.35122312727E+03  0.00000000000E+00 0.  1.
          1    1    3    3  501    0  0.15641609020E+02  0.86631527311E+01 -0.34272348587E+03  0.34318959471E+03  0.00000000000E+00 0.  1.
         -1    1    1    2    0  502 -0.29906873229E+02 -0.14917301160E+02 -0.30508054942E+03  0.30690566722E+03  0.00000000000E+00 0. -1.
<mgrwt>
<rscale>  1 0.30000000E+03</rscale>
<asrwt>0</asrwt>
<pdfrwt beam="1">  1       21 0.47941527E-02 0.30000000E+03</pdfrwt>
<pdfrwt beam="2">0</pdfrwt>
<totfact> 0.30942653E+04</totfact>
</mgrwt>
</event>
<event>
 6    1  0.1274196E-001  0.3000000E+03  0.7818608E-02  0.1093470E+00
         21   -1    0    0  501  502  0.00000000000E+00  0.00000000000E+00  0.11480109318E+01  0.11480109318E+01  0.00000000000E+00 0. -1.
         13   -1    0    0    0    0 -0.00000000000E+00 -0.00000000000E+00 -0.10000000000E+04  0.10000000000E+04  0.00000000000E+00 0.  1.
    9000005    2    1    2  501    0  0.32940988138E+02 -0.48642658757E+01 -0.58672333958E+03  0.58767637525E+03  0.32365167237E+01 0.  0.
         13    1    3    3    0    0  0.25573170616E+02 -0.44735384611E+01 -0.43547242949E+03  0.43624561482E+03  0.00000000000E+00 0.  1.
          3    1    3    3  501    0  0.73678175216E+01 -0.39072741463E+00 -0.15125091009E+03  0.15143076044E+03  0.00000000000E+00 0.  1.
         -3    1    1    2    0  502 -0.32940988138E+02  0.48642658757E+01 -0.41212864949E+03  0.41347163568E+03  0.00000000000E+00 0. -1.
<mgrwt>
<rscale>  1 0.30000000E+03</rscale>
<asrwt>0</asrwt>
<pdfrwt beam="1">  1       21 0.41745940E-02 0.30000000E+03</pdfrwt>
<pdfrwt beam="2">0</pdfrwt>
<totfact> 0.39125201E+04</totfact>
</mgrwt>
</event>
<event>
 6    1  0.1274196E-001  0.3000000E+03  0.7818608E-02  0.1093470E+00
         21   -1    0    0  501  502  0.00000000000E+00  0.00000000000E+00  0.10258535769E+01  0.10258535769E+01  0.00000000000E+00 0. -1.
         13   -1    0    0    0    0 -0.00000000000E+00 -0.00000000000E+00 -0.10000000000E+04  0.10000000000E+04  0.00000000000E+00 0.  1.
    9000005    2    1    2  501    0  0.27776653605E+02 -0.12518185451E+02 -0.64881761945E+03  0.64954635086E+03  0.42321562387E+01 0.  0.
         13    1    3    3    0    0  0.53395798275E+01 -0.43284149395E+01 -0.14274780112E+03  0.14291319398E+03  0.00000000000E+00 0.  1.
          1    1    3    3  501    0  0.22437073777E+02 -0.81897705116E+01 -0.50606981833E+03  0.50663315688E+03  0.00000000000E+00 0.  1.
         -1    1    1    2    0  502 -0.27776653605E+02  0.12518185451E+02 -0.35015652697E+03  0.35147950272E+03  0.00000000000E+00 0. -1.
<mgrwt>
<rscale>  1 0.30000000E+03</rscale>
<asrwt>0</asrwt>
<pdfrwt beam="1">  1       21 0.37303845E-02 0.30000000E+03</pdfrwt>
<pdfrwt beam="2">0</pdfrwt>
<totfact> 0.47281817E+04</totfact>
</mgrwt>
</event>
<event>
 6    1  0.1274196E-001  0.3000000E+03  0.7818608E-02  0.1093470E+00
         21   -1    0    0  501  502  0.00000000000E+00  0.00000000000E+00  0.40611505086E+01  0.40611505086E+01  0.00000000000E+00 0. -1.
         13   -1    0    0    0    0 -0.00000000000E+00 -0.00000000000E+00 -0.10000000000E+04  0.10000000000E+04  0.00000000000E+00 0.  1.
    9000005    2    1    2  501    0  0.56207846634E+02  0.77208558207E+01 -0.72559413239E+03  0.72782719224E+03  0.51617015213E+01 0.  0.
         13    1    3    3    0    0  0.15442596014E+02  0.43190043971E+01 -0.19425522997E+03  0.19491593558E+03  0.00000000000E+00 0.  1.
          1    1    3    3  501    0  0.40765250620E+02  0.34018514237E+01 -0.53133890242E+03  0.53291125666E+03  0.00000000000E+00 0.  1.
         -1    1    1    2    0  502 -0.56207846634E+02 -0.77208558207E+01 -0.27034471710E+03  0.27623395827E+03  0.00000000000E+00 0. -1.
<mgrwt>
<rscale>  1 0.30000000E+03</rscale>
<asrwt>0</asrwt>
<pdfrwt beam="1">  1       21 0.14767851E-01 0.30000000E+03</pdfrwt>
<pdfrwt beam="2">0</pdfrwt>
<totfact> 0.42385419E+03</totfact>
</mgrwt>
</event>
<event>
 6    1  0.1274196E-001  0.3000000E+03  0.7818608E-02  0.1093470E+00
         21   -1    0    0  501  502  0.00000000000E+00  0.00000000000E+00  0.12805991505E+01  0.12805991505E+01  0.00000000000E+00 0. -1.
         13   -1    0    0    0    0 -0.00000000000E+00 -0.00000000000E+00 -0.10000000000E+04  0.10000000000E+04  0.00000000000E+00 0.  1.
    9000005    2    1    2  501    0 -0.23083647819E+02  0.19737698642E+02 -0.23810724141E+03  0.24006230679E+03  0.35243698527E+01 0.  0.
         13    1    3    3    0    0 -0.14228185442E+02  0.10303902511E+02 -0.14500676718E+03  0.14606701953E+03  0.00000000000E+00 0.  1.
          1    1    3    3  501    0 -0.88554623770E+01  0.94337961311E+01 -0.93100474233E+02  0.93995287253E+02  0.00000000000E+00 0.  1.
         -3    1    1    2    0  502  0.23083647819E+02 -0.19737698642E+02 -0.76061215944E+03  0.76121829236E+03  0.00000000000E+00 0. -1.
<mgrwt>
<rscale>  1 0.30000000E+03</rscale>
<asrwt>0</asrwt>
<pdfrwt beam="1">  1       21 0.46567340E-02 0.30000000E+03</pdfrwt>
<pdfrwt beam="2">0</pdfrwt>
<totfact> 0.32511460E+04</totfact>
</mgrwt>
</event>
<event>
 6    1  0.1274196E-001  0.3000000E+03  0.7818608E-02  0.1093470E+00
         21   -1    0    0  501  502  0.00000000000E+00  0.00000000000E+00  0.28890433264E+01  0.28890433264E+01  0.00000000000E+00 0. -1.
         13   -1    0    0    0    0 -0.00000000000E+00 -0.00000000000E+00 -0.10000000000E+04  0.10000000000E+04  0.00000000000E+00 0.  1.
    9000005    2    1    2  501    0  0.21251862216E+02 -0.46105790892E+02 -0.66223206187E+03  0.66418377353E+03  0.33757448720E+01 0.  0.
         13    1    3    3    0    0  0.13954947845E+02 -0.26900373468E+02 -0.40588178980E+03  0.40701154524E+03  0.00000000000E+00 0.  1.
          1    1    3    3  501    0  0.72969143705E+01 -0.19205417425E+02 -0.25635027207E+03  0.25717222830E+03  0.00000000000E+00 0.  1.
         -1    1    1    2    0  502 -0.21251862216E+02  0.46105790892E+02 -0.33487889480E+03  0.33870526979E+03  0.00000000000E+00 0. -1.
<mgrwt>
<rscale>  1 0.30000000E+03</rscale>
<asrwt>0</asrwt>
<pdfrwt beam="1">  1       21 0.10505634E-01 0.30000000E+03</pdfrwt>
<pdfrwt beam="2">0</pdfrwt>
<totfact> 0.78762910E+03</totfact>
</mgrwt>
</event>
<event>
 6    1  0.1274196E-001  0.3000000E+03  0.7818608E-02  0.1093470E+00
         21   -1    0    0  501  502  0.00000000000E+00  0.00000000000E+00  0.12930499339E+01  0.12930499339E+01  0.00000000000E+00 0. -1.
         13   -1    0    0    0    0 -0.00000000000E+00 -0.00000000000E+00 -0.10000000000E+04  0.10000000000E+04  0.00000000000E+00 0.  1.
    9000005    2    1    2  501    0 -0.25617290155E+02  0.21312757744E+02 -0.31567724130E+03  0.31745091738E+03  0.35334223681E+01 0.  0.
         13    1    3    3    0    0 -0.23944222921E+02  0.18584433021E+02 -0.28541351143E+03  0.28701843054E+03  0.00000000000E+00 0.  1.
          3    1    3    3  501    0 -0.16730672345E+01  0.27283247237E+01 -0.30263729867E+02  0.30432486840E+02  0.00000000000E+00 0.  1.
         -3    1    1    2    0  502  0.25617290155E+02 -0.21312757744E+02 -0.68302970877E+03  0.68384213255E+03  0.00000000000E+00 0. -1.
<mgrwt>
<rscale>  1 0.30000000E+03</rscale>
<asrwt>0</asrwt>
<pdfrwt beam="1">  1       21 0.47020097E-02 0.30000000E+03</pdfrwt>
<pdfrwt beam="2">0</pdfrwt>
<totfact> 0.31981079E+04</totfact>
</mgrwt>
</event>
<event>
 6    1  0.1274196E-001  0.3000000E+03  0.7818608E-02  0.1093470E+00
         21   -1    0    0  501  502  0.00000000000E+00  0.00000000000E+00  0.12901332032E+02  0.12901332032E+02  0.00000000000E+00 0. -1.
         13   -1    0    0    0    0 -0.00000000000E+00 -0.00000000000E+00 -0.10000000000E+04  0.10000000000E+04  0.00000000000E+00 0.  1.
    9000005    2    1    2  501    0 -0.47538014322E+01 -0.40237032063E+02 -0.96667820051E+03  0.96752939281E+03  0.21829420125E+01 0.  0.
         13    1    3    3    0    0 -0.20038914475E+01 -0.25078335083E+02 -0.58840998304E+03  0.58894757544E+03  0.00000000000E+00 0.  1.
          1    1    3    3  501    0 -0.27499099847E+01 -0.15158696980E+02 -0.37826821747E+03  0.37858181737E+03  0.00000000000E+00 0.  1.
         -3    1    1    2    0  502  0.47538014322E+01  0.40237032063E+02 -0.20420467455E+02  0.45371939218E+02  0.00000000000E+00 0. -1.
<mgrwt>
<rscale>  1 0.30000000E+03</rscale>
<asrwt>0</asrwt>
<pdfrwt beam="1">  1       21 0.46914034E-01 0.30000000E+03</pdfrwt>
<pdfrwt beam="2">0</pdfrwt>
<totfact> 0.43100373E+02</totfact>
</mgrwt>
</event>
<event>
 6    1  0.1274196E-001  0.3000000E+03  0.7818608E-02  0.1093470E+00
         21   -1    0    0  501  502  0.00000000000E+00  0.00000000000E+00  0.28537786463E+01  0.28537786463E+01  0.00000000000E+00 0. -1.
         13   -1    0    0    0    0 -0.00000000000E+00 -0.00000000000E+00 -0.10000000000E+04  0.10000000000E+04  0.00000000000E+00 0.  1.
    9000005    2    1    2  501    0 -0.11583672465E+02  0.30031911547E+02 -0.89857458666E+03  0.89915968843E+03  0.39699286179E+01 0.  0.
         13    1    3    3    0    0 -0.70802737053E+00  0.18718390488E+01 -0.88982139795E+02  0.89004641939E+02  0.00000000000E+00 0.  1.
          1    1    3    3  501    0 -0.10875645095E+02  0.28160072498E+02 -0.80959244686E+03  0.81015504649E+03  0.00000000000E+00 0.  1.
         -3    1    1    2    0  502  0.11583672465E+02 -0.30031911547E+02 -0.98571634698E+02  0.10369409022E+03  0.00000000000E+00 0. -1.
<mgrwt>
<rscale>  1 0.30000000E+03</rscale>
<asrwt>0</asrwt>
<pdfrwt beam="1">  1       21 0.10377399E-01 0.30000000E+03</pdfrwt>
<pdfrwt beam="2">0</pdfrwt>
<totfact> 0.80515421E+03</totfact>
</mgrwt>
</event>
<event>
 6    1  0.1274196E-001  0.3000000E+03  0.7818608E-02  0.1093470E+00
         21   -1    0    0  501  502  0.00000000000E+00  0.00000000000E+00  0.16333191935E+01  0.16333191935E+01  0.00000000000E+00 0. -1.
         13   -1    0    0    0    0 -0.00000000000E+00 -0.00000000000E+00 -0.10000000000E+04  0.10000000000E+04  0.00000000000E+00 0.  1.
    9000005    2    1    2  501    0  0.27801420395E+02  0.16129544507E+02 -0.80224448812E+03  0.80289480846E+03  0.32823103250E+01 0.  0.
         13    1    3    3    0    0  0.25747940058E+02  0.14814053610E+02 -0.75963190586E+03  0.76021249990E+03  0.00000000000E+00 0.  1.
          3    1    3    3  501    0  0.20534803367E+01  0.13154908968E+01 -0.42612582260E+02  0.42682308568E+02  0.00000000000E+00 0.  1.
         -3    1    1    2    0  502 -0.27801420395E+02 -0.16129544507E+02 -0.19612219269E+03  0.19873851073E+03  0.00000000000E+00 0. -1.
<mgrwt>
<rscale>  1 0.30000000E+03</rscale>
<asrwt>0</asrwt>
<pdfrwt beam="1">  1       21 0.59393550E-02 0.30000000E+03</pdfrwt>
<pdfrwt beam="2">0</pdfrwt>
<totfact> 0.21444030E+04</totfact>
</mgrwt>
</event>
<event>
 6    1  0.1274196E-001  0.3000000E+03  0.7818608E-02  0.1093470E+00
         21   -1    0    0  501  502  0.00000000000E+00  0.00000000000E+00  0.22508874146E+01  0.22508874146E+01  0.00000000000E+00 0. -1.
         13   -1    0    0    0    0 -0.00000000000E+00 -0.00000000000E+00 -0.10000000000E+04  0.10000000000E+04  0.00000000000E+00 0.  1.
    9000005    2    1    2  501    0 -0.58383688292E+01 -0.34585563460E+02 -0.83603469013E+03  0.83677641149E+03  0.32422191497E+01 0.  0.
         13    1    3    3    0    0 -0.47140400109E+01 -0.19131912741E+02 -0.45204024440E+03  0.45246948496E+03  0.00000000000E+00 0.  1.
          1    1    3    3  501    0 -0.11243288183E+01 -0.15453650719E+02 -0.38399444573E+03  0.38430692654E+03  0.00000000000E+00 0.  1.
         -1    1    1    2    0  502  0.58383688292E+01  0.34585563460E+02 -0.16171442246E+03  0.16547447592E+03  0.00000000000E+00 0. -1.
<mgrwt>
<rscale>  1 0.30000000E+03</rscale>
<asrwt>0</asrwt>
<pdfrwt beam="1">  1       21 0.81850624E-02 0.30000000E+03</pdfrwt>
<pdfrwt beam="2">0</pdfrwt>
<totfact> 0.12270593E+04</totfact>
</mgrwt>
</event>
<event>
 6    1  0.1274196E-001  0.3000000E+03  0.7818608E-02  0.1093470E+00
         21   -1    0    0  501  502  0.00000000000E+00  0.00000000000E+00  0.26338479637E+01  0.26338479637E+01  0.00000000000E+00 0. -1.
         13   -1    0    0    0    0 -0.00000000000E+00 -0.00000000000E+00 -0.10000000000E+04  0.10000000000E+04  0.00000000000E+00 0.  1.
    9000005    2    1    2  501    0  0.45181421889E+02 -0.44783188488E+01 -0.27135521148E+03  0.27520460602E+03  0.65198278401E+01 0.  0.
         13    1    3    3    0    0  0.12617159689E+02 -0.40469785811E+01 -0.72711882858E+02  0.73909327308E+02  0.00000000000E+00 0.  1.
          1    1    3    3  501    0  0.32564262200E+02 -0.43134026774E+00 -0.19864332862E+03  0.20129527872E+03  0.00000000000E+00 0.  1.
         -1    1    1    2    0  502 -0.45181421889E+02  0.44783188488E+01 -0.72601094056E+03  0.72742924194E+03  0.00000000000E+00 0. -1.
<mgrwt>
<rscale>  1 0.30000000E+03</rscale>
<asrwt>0</asrwt>
<pdfrwt beam="1">  1       21 0.95776492E-02 0.30000000E+03</pdfrwt>
<pdfrwt beam="2">0</pdfrwt>
<totfact> 0.92919433E+03</totfact>
</mgrwt>
</event>
<event>
 6    1  0.1274196E-001  0.3000000E+03  0.7818608E-02  0.1093470E+00
         21   -1    0    0  501  502  0.00000000000E+00  0.00000000000E+00  0.47356508831E+01  0.47356508831E+01  0.00000000000E+00 0. -1.
         13   -1    0    0    0    0 -0.00000000000E+00 -0.00000000000E+00 -0.10000000000E+04  0.10000000000E+04  0.00000000000E+00 0.  1.
    9000005    2    1    2  501    0  0.79723509507E+01  0.62393794219E+02 -0.70096182004E+03  0.70378628212E+03  0.33337385143E+01 0.  0.
         13    1    3    3    0    0  0.73390807590E+01  0.60661748893E+02 -0.68430272929E+03  0.68702542544E+03  0.00000000000E+00 0.  1.
          1    1    3    3  501    0  0.63327019167E+00  0.17320453259E+01 -0.16659090749E+02  0.16760856683E+02  0.00000000000E+00 0.  1.
         -3    1    1    2    0  502 -0.79723509507E+01 -0.62393794219E+02 -0.29430252908E+03  0.30094936876E+03  0.00000000000E+00 0. -1.
<mgrwt>
<rscale>  1 0.30000000E+03</rscale>
<asrwt>0</asrwt>
<pdfrwt beam="1">  1       21 0.17220585E-01 0.30000000E+03</pdfrwt>
<pdfrwt beam="2">0</pdfrwt>
<totfact> 0.31836659E+03</totfact>
</mgrwt>
</event>
<event>
 6    1  0.1274196E-001  0.3000000E+03  0.7818608E-02  0.1093470E+00
         21   -1    0    0  501  502  0.00000000000E+00  0.00000000000E+00  0.15493956658E+01  0.15493956658E+01  0.00000000000E+00 0. -1.
         13   -1    0    0    0    0 -0.00000000000E+00 -0.00000000000E+00 -0.10000000000E+04  0.10000000000E+04  0.00000000000E+00 0.  1.
    9000005    2    1    2  501    0  0.23834708087E+02 -0.22658509695E+02 -0.77377187798E+03  0.77447665083E+03  0.31084009974E+01 0.  0.
         13    1    3    3    0    0  0.92981762698E+01 -0.71249759827E+01 -0.25589945871E+03  0.25616743418E+03  0.00000000000E+00 0.  1.
          3    1    3    3  501    0  0.14536531817E+02 -0.15533533712E+02 -0.51787241927E+03  0.51830921665E+03  0.00000000000E+00 0.  1.
         -1    1    1    2    0  502 -0.23834708087E+02  0.22658509695E+02 -0.22467872635E+03  0.22707274484E+03  0.00000000000E+00 0. -1.
<mgrwt>
<rscale>  1 0.30000000E+03</rscale>
<asrwt>0</asrwt>
<pdfrwt beam="1">  1       21 0.56341779E-02 0.30000000E+03</pdfrwt>
<pdfrwt beam="2">0</pdfrwt>
<totfact> 0.23482380E+04</totfact>
</mgrwt>
</event>
<event>
 6    1  0.1274196E-001  0.3000000E+03  0.7818608E-02  0.1093470E+00
         21   -1    0    0  501  502  0.00000000000E+00  0.00000000000E+00  0.17632727900E+01  0.17632727900E+01  0.00000000000E+00 0. -1.
         13   -1    0    0    0    0 -0.00000000000E+00 -0.00000000000E+00 -0.10000000000E+04  0.10000000000E+04  0.00000000000E+00 0.  1.
    9000005    2    1    2  501    0  0.34989625597E+02  0.11260219682E+02 -0.74065961164E+03  0.74157673026E+03  0.28844594680E+01 0.  0.
         13    1    3    3    0    0  0.95788619887E+01  0.39057270968E+01 -0.22962795973E+03  0.22986084745E+03  0.00000000000E+00 0.  1.
          3    1    3    3  501    0  0.25410763608E+02  0.73544925856E+01 -0.51103165191E+03  0.51171588281E+03  0.00000000000E+00 0.  1.
         -3    1    1    2    0  502 -0.34989625597E+02 -0.11260219682E+02 -0.25757711557E+03  0.26018654253E+03  0.00000000000E+00 0. -1.
<mgrwt>
<rscale>  1 0.30000000E+03</rscale>
<asrwt>0</asrwt>
<pdfrwt beam="1">  1       21 0.64119146E-02 0.30000000E+03</pdfrwt>
<pdfrwt beam="2">0</pdfrwt>
<totfact> 0.18788525E+04</totfact>
</mgrwt>
</event>
<event>
 6    1  0.1274196E-001  0.3000000E+03  0.7818608E-02  0.1093470E+00
         21   -1    0    0  501  502  0.00000000000E+00  0.00000000000E+00  0.10491894171E+01  0.10491894171E+01  0.00000000000E+00 0. -1.
         13   -1    0    0    0    0 -0.00000000000E+00 -0.00000000000E+00 -0.10000000000E+04  0.10000000000E+04  0.00000000000E+00 0.  1.
    9000005    2    1    2  501    0 -0.18963442486E+02  0.23477429786E+02 -0.67884098213E+03  0.67951986862E+03  0.33720868198E+01 0.  0.
         13    1    3    3    0    0 -0.37874178050E+01  0.48862638437E+01 -0.17192814686E+03  0.17203926235E+03  0.00000000000E+00 0.  1.
          3    1    3    3  501    0 -0.15176024681E+02  0.18591165942E+02 -0.50691283527E+03  0.50748060627E+03  0.00000000000E+00 0.  1.
         -1    1    1    2    0  502  0.18963442486E+02 -0.23477429786E+02 -0.32010982845E+03  0.32152932080E+03  0.00000000000E+00 0. -1.
<mgrwt>
<rscale>  1 0.30000000E+03</rscale>
<asrwt>0</asrwt>
<pdfrwt beam="1">  1       21 0.38152423E-02 0.30000000E+03</pdfrwt>
<pdfrwt beam="2">0</pdfrwt>
<totfact> 0.45528807E+04</totfact>
</mgrwt>
</event>
<event>
 6    1  0.1274196E-001  0.3000000E+03  0.7818608E-02  0.1093470E+00
         21   -1    0    0  501  502  0.00000000000E+00  0.00000000000E+00  0.16150748608E+01  0.16150748608E+01  0.00000000000E+00 0. -1.
         13   -1    0    0    0    0 -0.00000000000E+00 -0.00000000000E+00 -0.10000000000E+04  0.10000000000E+04  0.00000000000E+00 0.  1.
    9000005    2    1    2  501    0 -0.37560929658E+02  0.24055148597E+01 -0.67254649765E+03  0.67361005849E+03  0.38870880394E+01 0.  0.
         13    1    3    3    0    0 -0.23464484041E+02  0.28130207493E+01 -0.39667758511E+03  0.39738092761E+03  0.00000000000E+00 0.  1.
          3    1    3    3  501    0 -0.14096445617E+02 -0.40750588963E+00 -0.27586891254E+03  0.27622913088E+03  0.00000000000E+00 0.  1.
         -1    1    1    2    0  502  0.37560929658E+02 -0.24055148597E+01 -0.32583842749E+03  0.32800501637E+03  0.00000000000E+00 0. -1.
<mgrwt>
<rscale>  1 0.30000000E+03</rscale>
<asrwt>0</asrwt>
<pdfrwt beam="1">  1       21 0.58730119E-02 0.30000000E+03</pdfrwt>
<pdfrwt beam="2">0</pdfrwt>
<totfact> 0.21863259E+04</totfact>
</mgrwt>
</event>
<event>
 6    1  0.1274196E-001  0.3000000E+03  0.7818608E-02  0.1093470E+00
         21   -1    0    0  501  502  0.00000000000E+00  0.00000000000E+00  0.12803233374E+01  0.12803233374E+01  0.00000000000E+00 0. -1.
         13   -1    0    0    0    0 -0.00000000000E+00 -0.00000000000E+00 -0.10000000000E+04  0.10000000000E+04  0.00000000000E+00 0.  1.
    9000005    2    1    2  501    0 -0.28233251150E+02 -0.16459553218E+02 -0.70262820483E+03  0.70339075814E+03  0.20324981745E+01 0.  0.
         13    1    3    3    0    0 -0.20098723547E+02 -0.12564878573E+02 -0.52029165797E+03  0.52083130111E+03  0.00000000000E+00 0.  1.
          3    1    3    3  501    0 -0.81345276027E+01 -0.38946746453E+01 -0.18233654686E+03  0.18255945703E+03  0.00000000000E+00 0.  1.
         -1    1    1    2    0  502  0.28233251150E+02  0.16459553218E+02 -0.29609147183E+03  0.29788956520E+03  0.00000000000E+00 0. -1.
<mgrwt>
<rscale>  1 0.30000000E+03</rscale>
<asrwt>0</asrwt>
<pdfrwt beam="1">  1       21 0.46557310E-02 0.30000000E+03</pdfrwt>
<pdfrwt beam="2">0</pdfrwt>
<totfact> 0.32523365E+04</totfact>
</mgrwt>
</event>
<event>
 6    1  0.1274196E-001  0.3000000E+03  0.7818608E-02  0.1093470E+00
         21   -1    0    0  501  502  0.00000000000E+00  0.00000000000E+00  0.64735257493E+01  0.64735257493E+01  0.00000000000E+00 0. -1.
         13   -1    0    0    0    0 -0.00000000000E+00 -0.00000000000E+00 -0.10000000000E+04  0.10000000000E+04  0.00000000000E+00 0.  1.
    9000005    2    1    2  501    0 -0.53616774869E+01 -0.75154531434E+02 -0.67283028068E+03  0.67704523347E+03  0.35651633351E+01 0.  0.
         13    1    3    3    0    0 -0.46563556147E+01 -0.46209740366E+02 -0.42408511920E+03  0.42662068642E+03  0.00000000000E+00 0.  1.
          3    1    3    3  501    0 -0.70532187227E+00 -0.28944791068E+02 -0.24874516148E+03  0.25042454706E+03  0.00000000000E+00 0.  1.
         -1    1    1    2    0  502  0.53616774869E+01  0.75154531434E+02 -0.32069619357E+03  0.32942829227E+03  0.00000000000E+00 0. -1.
<mgrwt>
<rscale>  1 0.30000000E+03</rscale>
<asrwt>0</asrwt>
<pdfrwt beam="1">  1       21 0.23540143E-01 0.30000000E+03</pdfrwt>
<pdfrwt beam="2">0</pdfrwt>
<totfact> 0.17536020E+03</totfact>
</mgrwt>
</event>
<event>
 6    1  0.1274196E-001  0.3000000E+03  0.7818608E-02  0.1093470E+00
         21   -1    0    0  501  502  0.00000000000E+00  0.00000000000E+00  0.23931354314E+01  0.23931354314E+01  0.00000000000E+00 0. -1.
         13   -1    0    0    0    0 -0.00000000000E+00 -0.00000000000E+00 -0.10000000000E+04  0.10000000000E+04  0.00000000000E+00 0.  1.
    9000005    2    1    2  501    0  0.33851460089E+02  0.47564797355E+01 -0.85721090656E+03  0.85789548675E+03  0.23627121530E+01 0.  0.
         13    1    3    3    0    0  0.20784720211E+02  0.18433822992E+01 -0.53306814703E+03  0.53347638376E+03  0.00000000000E+00 0.  1.
          3    1    3    3  501    0  0.13066739878E+02  0.29130974363E+01 -0.32414275954E+03  0.32441910299E+03  0.00000000000E+00 0.  1.
         -1    1    1    2    0  502 -0.33851460089E+02 -0.47564797355E+01 -0.14039595801E+03  0.14449764868E+03  0.00000000000E+00 0. -1.
<mgrwt>
<rscale>  1 0.30000000E+03</rscale>
<asrwt>0</asrwt>
<pdfrwt beam="1">  1       21 0.87023290E-02 0.30000000E+03</pdfrwt>
<pdfrwt beam="2">0</pdfrwt>
<totfact> 0.11014327E+04</totfact>
</mgrwt>
</event>
<event>
 6    1  0.1274196E-001  0.3000000E+03  0.7818608E-02  0.1093470E+00
         21   -1    0    0  501  502  0.00000000000E+00  0.00000000000E+00  0.49938460326E+01  0.49938460326E+01  0.00000000000E+00 0. -1.
         13   -1    0    0    0    0 -0.00000000000E+00 -0.00000000000E+00 -0.10000000000E+04  0.10000000000E+04  0.00000000000E+00 0.  1.
    9000005    2    1    2  501    0  0.34146007609E+02  0.33774263534E+02 -0.86562164478E+03  0.86698296990E+03  0.72102339947E+01 0.  0.
         13    1    3    3    0    0  0.10759702498E+02  0.12708581930E+02 -0.35728027552E+03  0.35766810666E+03  0.00000000000E+00 0.  1.
          1    1    3    3  501    0  0.23386305111E+02  0.21065681604E+02 -0.50834136926E+03  0.50931486324E+03  0.00000000000E+00 0.  1.
         -1    1    1    2    0  502 -0.34146007609E+02 -0.33774263534E+02 -0.12938450919E+03  0.13801087613E+03  0.00000000000E+00 0. -1.
<mgrwt>
<rscale>  1 0.30000000E+03</rscale>
<asrwt>0</asrwt>
<pdfrwt beam="1">  1       21 0.18159478E-01 0.30000000E+03</pdfrwt>
<pdfrwt beam="2">0</pdfrwt>
<totfact> 0.28812616E+03</totfact>
</mgrwt>
</event>
<event>
 6    1  0.1274196E-001  0.3000000E+03  0.7818608E-02  0.1093470E+00
         21   -1    0    0  501  502  0.00000000000E+00  0.00000000000E+00  0.26950682825E+01  0.26950682825E+01  0.00000000000E+00 0. -1.
         13   -1    0    0    0    0 -0.00000000000E+00 -0.00000000000E+00 -0.10000000000E+04  0.10000000000E+04  0.00000000000E+00 0.  1.
    9000005    2    1    2  501    0 -0.31384229721E+02  0.29811271108E+01 -0.89684380879E+03  0.89740359563E+03  0.32463958747E+01 0.  0.
         13    1    3    3    0    0 -0.19344326834E+02  0.33392612408E+01 -0.54161169310E+03  0.54196732351E+03  0.00000000000E+00 0.  1.
          3    1    3    3  501    0 -0.12039902887E+02 -0.35813413007E+00 -0.35523211569E+03  0.35543627212E+03  0.00000000000E+00 0.  1.
         -1    1    1    2    0  502  0.31384229721E+02 -0.29811271108E+01 -0.10046112293E+03  0.10529147266E+03  0.00000000000E+00 0. -1.
<mgrwt>
<rscale>  1 0.30000000E+03</rscale>
<asrwt>0</asrwt>
<pdfrwt beam="1">  1       21 0.98002690E-02 0.30000000E+03</pdfrwt>
<pdfrwt beam="2">0</pdfrwt>
<totfact> 0.89188122E+03</totfact>
</mgrwt>
</event>
<event>
 6    1  0.1274196E-001  0.3000000E+03  0.7818608E-02  0.1093470E+00
         21   -1    0    0  501  502  0.00000000000E+00  0.00000000000E+00  0.28342247152E+01  0.28342247152E+01  0.00000000000E+00 0. -1.
         13   -1    0    0    0    0 -0.00000000000E+00 -0.00000000000E+00 -0.10000000000E+04  0.10000000000E+04  0.00000000000E+00 0.  1.
    9000005    2    1    2  501    0 -0.27177286836E+02  0.38517806602E+02 -0.73107483936E+03  0.73259985879E+03  0.31473814395E+01 0.  0.
         13    1    3    3    0    0 -0.11240289775E+02  0.14880661659E+02 -0.26745967759E+03  0.26810904002E+03  0.00000000000E+00 0.  1.
          1    1    3    3  501    0 -0.15936997061E+02  0.23637144943E+02 -0.46361516177E+03  0.46449081877E+03  0.00000000000E+00 0.  1.
         -1    1    1    2    0  502  0.27177286836E+02 -0.38517806602E+02 -0.26609093592E+03  0.27023436592E+03  0.00000000000E+00 0. -1.
<mgrwt>
<rscale>  1 0.30000000E+03</rscale>
<asrwt>0</asrwt>
<pdfrwt beam="1">  1       21 0.10306293E-01 0.30000000E+03</pdfrwt>
<pdfrwt beam="2">0</pdfrwt>
<totfact> 0.81512834E+03</totfact>
</mgrwt>
</event>
<event>
 6    1  0.1274196E-001  0.3000000E+03  0.7818608E-02  0.1093470E+00
         21   -1    0    0  501  502  0.00000000000E+00  0.00000000000E+00  0.23160547998E+01  0.23160547998E+01  0.00000000000E+00 0. -1.
         13   -1    0    0    0    0 -0.00000000000E+00 -0.00000000000E+00 -0.10000000000E+04  0.10000000000E+04  0.00000000000E+00 0.  1.
    9000005    2    1    2  501    0 -0.40225519604E+02  0.38244074847E+01 -0.77041181151E+03  0.77147987637E+03  0.37578996625E+01 0.  0.
         13    1    3    3    0    0 -0.80673286445E-01  0.25889666465E+00 -0.40899818631E+01  0.40989617347E+01  0.00000000000E+00 0.  1.
          3    1    3    3  501    0 -0.40144846317E+02  0.35655108201E+01 -0.76632182964E+03  0.76738091463E+03  0.00000000000E+00 0.  1.
         -1    1    1    2    0  502  0.40225519604E+02 -0.38244074847E+01 -0.22727213369E+03  0.23083617843E+03  0.00000000000E+00 0. -1.
<mgrwt>
<rscale>  1 0.30000000E+03</rscale>
<asrwt>0</asrwt>
<pdfrwt beam="1">  1       21 0.84220352E-02 0.30000000E+03</pdfrwt>
<pdfrwt beam="2">0</pdfrwt>
<totfact> 0.11669280E+04</totfact>
</mgrwt>
</event>
<event>
 6    1  0.1274196E-001  0.3000000E+03  0.7818608E-02  0.1093470E+00
         21   -1    0    0  501  502  0.00000000000E+00  0.00000000000E+00  0.19433832521E+01  0.19433832521E+01  0.00000000000E+00 0. -1.
         13   -1    0    0    0    0 -0.00000000000E+00 -0.00000000000E+00 -0.10000000000E+04  0.10000000000E+04  0.00000000000E+00 0.  1.
    9000005    2    1    2  501    0  0.32515369084E+02  0.26734175135E+02 -0.35790835824E+03  0.36041259037E+03  0.51843081899E+01 0.  0.
         13    1    3    3    0    0  0.29723176920E+02  0.25406053413E+02 -0.33977362241E+03  0.34201615354E+03  0.00000000000E+00 0.  1.
          1    1    3    3  501    0  0.27921921647E+01  0.13281217227E+01 -0.18134735825E+02  0.18396436824E+02  0.00000000000E+00 0.  1.
         -1    1    1    2    0  502 -0.32515369084E+02 -0.26734175135E+02 -0.64014825851E+03  0.64153079288E+03  0.00000000000E+00 0. -1.
<mgrwt>
<rscale>  1 0.30000000E+03</rscale>
<asrwt>0</asrwt>
<pdfrwt beam="1">  1       21 0.70668631E-02 0.30000000E+03</pdfrwt>
<pdfrwt beam="2">0</pdfrwt>
<totfact> 0.15870430E+04</totfact>
</mgrwt>
</event>
<event>
 6    1  0.1274196E-001  0.3000000E+03  0.7818608E-02  0.1093470E+00
         21   -1    0    0  501  502  0.00000000000E+00  0.00000000000E+00  0.27562311648E+01  0.27562311648E+01  0.00000000000E+00 0. -1.
         13   -1    0    0    0    0 -0.00000000000E+00 -0.00000000000E+00 -0.10000000000E+04  0.10000000000E+04  0.00000000000E+00 0.  1.
    9000005    2    1    2  501    0  0.17311247772E+02 -0.28699900999E+02 -0.88437270048E+03  0.88501396310E+03  0.33582607725E+01 0.  0.
         13    1    3    3    0    0  0.13537367189E+02 -0.19816140630E+02 -0.64820353115E+03  0.64864763743E+03  0.00000000000E+00 0.  1.
          3    1    3    3  501    0  0.37738805833E+01 -0.88837603692E+01 -0.23616916933E+03  0.23636632568E+03  0.00000000000E+00 0.  1.
         -3    1    1    2    0  502 -0.17311247772E+02  0.28699900999E+02 -0.11287106835E+03  0.11774226806E+03  0.00000000000E+00 0. -1.
<mgrwt>
<rscale>  1 0.30000000E+03</rscale>
<asrwt>0</asrwt>
<pdfrwt beam="1">  1       21 0.10022680E-01 0.30000000E+03</pdfrwt>
<pdfrwt beam="2">0</pdfrwt>
<totfact> 0.85684405E+03</totfact>
</mgrwt>
</event>
<event>
 6    1  0.1274196E-001  0.3000000E+03  0.7818608E-02  0.1093470E+00
         21   -1    0    0  501  502  0.00000000000E+00  0.00000000000E+00  0.11570792009E+01  0.11570792009E+01  0.00000000000E+00 0. -1.
         13   -1    0    0    0    0 -0.00000000000E+00 -0.00000000000E+00 -0.10000000000E+04  0.10000000000E+04  0.00000000000E+00 0.  1.
    9000005    2    1    2  501    0  0.31117838020E+02 -0.38473041555E+01 -0.30874990700E+03  0.31035212172E+03  0.29686341121E+01 0.  0.
         13    1    3    3    0    0  0.70693369374E+01 -0.79506941195E+00 -0.58545286561E+02  0.58975912359E+02  0.00000000000E+00 0.  1.
          1    1    3    3  501    0  0.24048501082E+02 -0.30522347435E+01 -0.25020462044E+03  0.25137620936E+03  0.00000000000E+00 0.  1.
         -1    1    1    2    0  502 -0.31117838020E+02  0.38473041555E+01 -0.69009301380E+03  0.69080495748E+03  0.00000000000E+00 0. -1.
<mgrwt>
<rscale>  1 0.30000000E+03</rscale>
<asrwt>0</asrwt>
<pdfrwt beam="1">  1       21 0.42075696E-02 0.30000000E+03</pdfrwt>
<pdfrwt beam="2">0</pdfrwt>
<totfact> 0.38608876E+04</totfact>
</mgrwt>
</event>
<event>
 6    1  0.1274196E-001  0.3000000E+03  0.7818608E-02  0.1093470E+00
         21   -1    0    0  501  502  0.00000000000E+00  0.00000000000E+00  0.36313350442E+01  0.36313350442E+01  0.00000000000E+00 0. -1.
         13   -1    0    0    0    0 -0.00000000000E+00 -0.00000000000E+00 -0.10000000000E+04  0.10000000000E+04  0.00000000000E+00 0.  1.
    9000005    2    1    2  501    0 -0.12081440145E+02 -0.46421868778E+02 -0.80151547442E+03  0.80296066714E+03  0.42221008235E+01 0.  0.
         13    1    3    3    0    0 -0.65899887866E+01 -0.17444300472E+02 -0.31953981705E+03  0.32008346763E+03  0.00000000000E+00 0.  1.
          1    1    3    3  501    0 -0.54914513587E+01 -0.28977568305E+02 -0.48197565738E+03  0.48287719951E+03  0.00000000000E+00 0.  1.
         -1    1    1    2    0  502  0.12081440145E+02  0.46421868778E+02 -0.19485319053E+03  0.20067066790E+03  0.00000000000E+00 0. -1.
<mgrwt>
<rscale>  1 0.30000000E+03</rscale>
<asrwt>0</asrwt>
<pdfrwt beam="1">  1       21 0.13204883E-01 0.30000000E+03</pdfrwt>
<pdfrwt beam="2">0</pdfrwt>
<totfact> 0.52056420E+03</totfact>
</mgrwt>
</event>
<event>
 6    1  0.1274196E-001  0.3000000E+03  0.7818608E-02  0.1093470E+00
         21   -1    0    0  501  502  0.00000000000E+00  0.00000000000E+00  0.12931160031E+01  0.12931160031E+01  0.00000000000E+00 0. -1.
         13   -1    0    0    0    0 -0.00000000000E+00 -0.00000000000E+00 -0.10000000000E+04  0.10000000000E+04  0.00000000000E+00 0.  1.
    9000005    2    1    2  501    0  0.21249033818E+02  0.28182650281E+02 -0.59100480221E+03  0.59206607547E+03  0.31270217052E+01 0.  0.
         13    1    3    3    0    0  0.80444750434E+01  0.82407777955E+01 -0.19089782209E+03  0.19124487569E+03  0.00000000000E+00 0.  1.
          3    1    3    3  501    0  0.13204558775E+02  0.19941872486E+02 -0.40010698012E+03  0.40082119978E+03  0.00000000000E+00 0.  1.
         -1    1    1    2    0  502 -0.21249033818E+02 -0.28182650281E+02 -0.40770208178E+03  0.40922704054E+03  0.00000000000E+00 0. -1.
<mgrwt>
<rscale>  1 0.30000000E+03</rscale>
<asrwt>0</asrwt>
<pdfrwt beam="1">  1       21 0.47022499E-02 0.30000000E+03</pdfrwt>
<pdfrwt beam="2">0</pdfrwt>
<totfact> 0.31978301E+04</totfact>
</mgrwt>
</event>
<event>
 6    1  0.1274196E-001  0.3000000E+03  0.7818608E-02  0.1093470E+00
         21   -1    0    0  501  502  0.00000000000E+00  0.00000000000E+00  0.19025757022E+01  0.19025757022E+01  0.00000000000E+00 0. -1.
         13   -1    0    0    0    0 -0.00000000000E+00 -0.00000000000E+00 -0.10000000000E+04  0.10000000000E+04  0.00000000000E+00 0.  1.
    9000005    2    1    2  501    0 -0.28407185367E+02  0.30493092028E+02 -0.35321961827E+03  0.35567956346E+03  0.26563681138E+01 0.  0.
         13    1    3    3    0    0 -0.11624711177E+02  0.12493428057E+02 -0.15589285017E+03  0.15682410653E+03  0.00000000000E+00 0.  1.
          3    1    3    3  501    0 -0.16782474191E+02  0.17999663970E+02 -0.19732676810E+03  0.19885545693E+03  0.00000000000E+00 0.  1.
         -1    1    1    2    0  502  0.28407185367E+02 -0.30493092028E+02 -0.64487780603E+03  0.64622301224E+03  0.00000000000E+00 0. -1.
<mgrwt>
<rscale>  1 0.30000000E+03</rscale>
<asrwt>0</asrwt>
<pdfrwt beam="1">  1       21 0.69184717E-02 0.30000000E+03</pdfrwt>
<pdfrwt beam="2">0</pdfrwt>
<totfact> 0.16467480E+04</totfact>
</mgrwt>
</event>
<event>
 6    1  0.1274196E-001  0.3000000E+03  0.7818608E-02  0.1093470E+00
         21   -1    0    0  501  502  0.00000000000E+00  0.00000000000E+00  0.14191276474E+01  0.14191276474E+01  0.00000000000E+00 0. -1.
         13   -1    0    0    0    0 -0.00000000000E+00 -0.00000000000E+00 -0.10000000000E+04  0.10000000000E+04  0.00000000000E+00 0.  1.
    9000005    2    1    2  501    0 -0.29159712805E+02 -0.17659047458E+02 -0.69721515955E+03  0.69813143640E+03  0.10788557761E+02 0.  0.
         13    1    3    3    0    0 -0.21825829262E+02 -0.96495008733E+01 -0.39414264952E+03  0.39486441706E+03  0.00000000000E+00 0.  1.
          3    1    3    3  501    0 -0.73338835428E+01 -0.80095465845E+01 -0.30307251003E+03  0.30326701934E+03  0.00000000000E+00 0.  1.
         -3    1    1    2    0  502  0.29159712805E+02  0.17659047458E+02 -0.30136571281E+03  0.30328769125E+03  0.00000000000E+00 0. -1.
<mgrwt>
<rscale>  1 0.30000000E+03</rscale>
<asrwt>0</asrwt>
<pdfrwt beam="1">  1       21 0.51604751E-02 0.30000000E+03</pdfrwt>
<pdfrwt beam="2">0</pdfrwt>
<totfact> 0.27293252E+04</totfact>
</mgrwt>
</event>
<event>
 6    1  0.1274196E-001  0.3000000E+03  0.7818608E-02  0.1093470E+00
         21   -1    0    0  501  502  0.00000000000E+00  0.00000000000E+00  0.93658922722E+00  0.93658922722E+00  0.00000000000E+00 0. -1.
         13   -1    0    0    0    0 -0.00000000000E+00 -0.00000000000E+00 -0.10000000000E+04  0.10000000000E+04  0.00000000000E+00 0.  1.
    9000005    2    1    2  501    0 -0.84221325938E+01  0.29303758453E+02 -0.51308206979E+03  0.51399972848E+03  0.35871931082E+01 0.  0.
         13    1    3    3    0    0 -0.42476747010E+01  0.20774459858E+02 -0.35460682358E+03  0.35524022893E+03  0.00000000000E+00 0.  1.
          1    1    3    3  501    0 -0.41744578928E+01  0.85292985946E+01 -0.15847524621E+03  0.15875949955E+03  0.00000000000E+00 0.  1.
         -1    1    1    2    0  502  0.84221325938E+01 -0.29303758453E+02 -0.48598134098E+03  0.48693686075E+03  0.00000000000E+00 0. -1.
<mgrwt>
<rscale>  1 0.30000000E+03</rscale>
<asrwt>0</asrwt>
<pdfrwt beam="1">  1       21 0.34057862E-02 0.30000000E+03</pdfrwt>
<pdfrwt beam="2">0</pdfrwt>
<totfact> 0.55074295E+04</totfact>
</mgrwt>
</event>
<event>
 6    1  0.1274196E-001  0.3000000E+03  0.7818608E-02  0.1093470E+00
         21   -1    0    0  501  502  0.00000000000E+00  0.00000000000E+00  0.16158874452E+02  0.16158874452E+02  0.00000000000E+00 0. -1.
         13   -1    0    0    0    0 -0.00000000000E+00 -0.00000000000E+00 -0.10000000000E+04  0.10000000000E+04  0.00000000000E+00 0.  1.
    9000005    2    1    2  501    0 -0.10893996734E+03  0.64617263901E+02 -0.53193279838E+03  0.54683548547E+03  0.57653190279E+01 0.  0.
         13    1    3    3    0    0 -0.54565422334E+02  0.32764269015E+02 -0.25494079176E+03  0.26276546566E+03  0.00000000000E+00 0.  1.
          3    1    3    3  501    0 -0.54374545004E+02  0.31852994887E+02 -0.27699200662E+03  0.28407001981E+03  0.00000000000E+00 0.  1.
         -3    1    1    2    0  502  0.10893996734E+03 -0.64617263901E+02 -0.45190832717E+03  0.46932338898E+03  0.00000000000E+00 0. -1.
<mgrwt>
<rscale>  1 0.30000000E+03</rscale>
<asrwt>0</asrwt>
<pdfrwt beam="1">  1       21 0.58759667E-01 0.30000000E+03</pdfrwt>
<pdfrwt beam="2">0</pdfrwt>
<totfact> 0.26315978E+02</totfact>
</mgrwt>
</event>
<event>
 6    1  0.1274196E-001  0.3000000E+03  0.7818608E-02  0.1093470E+00
         21   -1    0    0  501  502  0.00000000000E+00  0.00000000000E+00  0.40110326140E+01  0.40110326140E+01  0.00000000000E+00 0. -1.
         13   -1    0    0    0    0 -0.00000000000E+00 -0.00000000000E+00 -0.10000000000E+04  0.10000000000E+04  0.00000000000E+00 0.  1.
    9000005    2    1    2  501    0 -0.31183129459E+02  0.24555542830E+02 -0.88906133860E+03  0.88995455518E+03  0.36992227704E+01 0.  0.
         13    1    3    3    0    0 -0.17639114165E+01  0.10678267397E+01 -0.31564179238E+02  0.31631456627E+02  0.00000000000E+00 0.  1.
          1    1    3    3  501    0 -0.29419218042E+02  0.23487716090E+02 -0.85749715936E+03  0.85832309855E+03  0.00000000000E+00 0.  1.
         -1    1    1    2    0  502  0.31183129459E+02 -0.24555542830E+02 -0.10692762879E+03  0.11405647744E+03  0.00000000000E+00 0. -1.
<mgrwt>
<rscale>  1 0.30000000E+03</rscale>
<asrwt>0</asrwt>
<pdfrwt beam="1">  1       21 0.14585604E-01 0.30000000E+03</pdfrwt>
<pdfrwt beam="2">0</pdfrwt>
<totfact> 0.43368367E+03</totfact>
</mgrwt>
</event>
<event>
 6    1  0.1274196E-001  0.3000000E+03  0.7818608E-02  0.1093470E+00
         21   -1    0    0  501  502  0.00000000000E+00  0.00000000000E+00  0.10315746918E+01  0.10315746918E+01  0.00000000000E+00 0. -1.
         13   -1    0    0    0    0 -0.00000000000E+00 -0.00000000000E+00 -0.10000000000E+04  0.10000000000E+04  0.00000000000E+00 0.  1.
    9000005    2    1    2  501    0 -0.19749818632E+02 -0.24784416510E+02 -0.57485966735E+03  0.57574042593E+03  0.30130163284E+01 0.  0.
         13    1    3    3    0    0 -0.95040314495E+01 -0.13623626517E+02 -0.28122200767E+03  0.28171217122E+03  0.00000000000E+00 0.  1.
          3    1    3    3  501    0 -0.10245787182E+02 -0.11160789993E+02 -0.29363765968E+03  0.29402825471E+03  0.00000000000E+00 0.  1.
         -1    1    1    2    0  502  0.19749818632E+02  0.24784416510E+02 -0.42410875796E+03  0.42529114876E+03  0.00000000000E+00 0. -1.
<mgrwt>
<rscale>  1 0.30000000E+03</rscale>
<asrwt>0</asrwt>
<pdfrwt beam="1">  1       21 0.37511886E-02 0.30000000E+03</pdfrwt>
<pdfrwt beam="2">0</pdfrwt>
<totfact> 0.46842338E+04</totfact>
</mgrwt>
</event>
<event>
 6    1  0.1274196E-001  0.3000000E+03  0.7818608E-02  0.1093470E+00
         21   -1    0    0  501  502  0.00000000000E+00  0.00000000000E+00  0.18863612916E+01  0.18863612916E+01  0.00000000000E+00 0. -1.
         13   -1    0    0    0    0 -0.00000000000E+00 -0.00000000000E+00 -0.10000000000E+04  0.10000000000E+04  0.00000000000E+00 0.  1.
    9000005    2    1    2  501    0  0.33608827607E+02 -0.26688082639E+02 -0.57177402283E+03  0.57339216633E+03  0.33520408361E+01 0.  0.
         13    1    3    3    0    0  0.14912801900E+02 -0.13979391283E+02 -0.27148039535E+03  0.27224882020E+03  0.00000000000E+00 0.  1.
          1    1    3    3  501    0  0.18696025708E+02 -0.12708691357E+02 -0.30029362748E+03  0.30114334613E+03  0.00000000000E+00 0.  1.
         -1    1    1    2    0  502 -0.33608827607E+02  0.26688082639E+02 -0.42633961588E+03  0.42849419496E+03  0.00000000000E+00 0. -1.
<mgrwt>
<rscale>  1 0.30000000E+03</rscale>
<asrwt>0</asrwt>
<pdfrwt beam="1">  1       21 0.68595101E-02 0.30000000E+03</pdfrwt>
<pdfrwt beam="2">0</pdfrwt>
<totfact> 0.16714292E+04</totfact>
</mgrwt>
</event>
<event>
 6    1  0.1274196E-001  0.3000000E+03  0.7818608E-02  0.1093470E+00
         21   -1    0    0  501  502  0.00000000000E+00  0.00000000000E+00  0.42952914726E+01  0.42952914726E+01  0.00000000000E+00 0. -1.
         13   -1    0    0    0    0 -0.00000000000E+00 -0.00000000000E+00 -0.10000000000E+04  0.10000000000E+04  0.00000000000E+00 0.  1.
    9000005    2    1    2  501    0  0.49293328977E+02  0.28007749838E+02 -0.74946631827E+03  0.75161444304E+03  0.32003779069E+01 0.  0.
         13    1    3    3    0    0  0.21654340654E+02  0.14132064328E+02 -0.34279317119E+03  0.34376704893E+03  0.00000000000E+00 0.  1.
          3    1    3    3  501    0  0.27638988323E+02  0.13875685510E+02 -0.40667314708E+03  0.40784739411E+03  0.00000000000E+00 0.  1.
         -1    1    1    2    0  502 -0.49293328977E+02 -0.28007749838E+02 -0.24623839025E+03  0.25268084844E+03  0.00000000000E+00 0. -1.
<mgrwt>
<rscale>  1 0.30000000E+03</rscale>
<asrwt>0</asrwt>
<pdfrwt beam="1">  1       21 0.15619275E-01 0.30000000E+03</pdfrwt>
<pdfrwt beam="2">0</pdfrwt>
<totfact> 0.38202177E+03</totfact>
</mgrwt>
</event>
<event>
 6    1  0.1274196E-001  0.3000000E+03  0.7818608E-02  0.1093470E+00
         21   -1    0    0  501  502  0.00000000000E+00  0.00000000000E+00  0.33335572575E+01  0.33335572575E+01  0.00000000000E+00 0. -1.
         13   -1    0    0    0    0 -0.00000000000E+00 -0.00000000000E+00 -0.10000000000E+04  0.10000000000E+04  0.00000000000E+00 0.  1.
    9000005    2    1    2  501    0 -0.13584166196E+01  0.50169373230E+02 -0.74583030946E+03  0.74752586178E+03  0.36403588508E+01 0.  0.
         13    1    3    3    0    0  0.11387427309E+01  0.24904696056E+02 -0.36704491957E+03  0.36789062722E+03  0.00000000000E+00 0.  1.
          3    1    3    3  501    0 -0.24971593506E+01  0.25264677175E+02 -0.37878538990E+03  0.37963523456E+03  0.00000000000E+00 0.  1.
         -3    1    1    2    0  502  0.13584166196E+01 -0.50169373230E+02 -0.25083613328E+03  0.25580769547E+03  0.00000000000E+00 0. -1.
<mgrwt>
<rscale>  1 0.30000000E+03</rscale>
<asrwt>0</asrwt>
<pdfrwt beam="1">  1       21 0.12122052E-01 0.30000000E+03</pdfrwt>
<pdfrwt beam="2">0</pdfrwt>
<totfact> 0.60842738E+03</totfact>
</mgrwt>
</event>
<event>
 6    1  0.1274196E-001  0.3000000E+03  0.7818608E-02  0.1093470E+00
         21   -1    0    0  501  502  0.00000000000E+00  0.00000000000E+00  0.10095550415E+01  0.10095550415E+01  0.00000000000E+00 0. -1.
         13   -1    0    0    0    0 -0.00000000000E+00 -0.00000000000E+00 -0.10000000000E+04  0.10000000000E+04  0.00000000000E+00 0.  1.
    9000005    2    1    2  501    0 -0.61329091845E+01  0.31136276311E+02 -0.50153451873E+03  0.50254242592E+03  0.22217316534E+01 0.  0.
         13    1    3    3    0    0 -0.53454296943E+01  0.28176307736E+02 -0.46215107500E+03  0.46304005665E+03  0.00000000000E+00 0.  1.
          1    1    3    3  501    0 -0.78747949027E+00  0.29599685745E+01 -0.39383443725E+02  0.39502369265E+02  0.00000000000E+00 0.  1.
         -1    1    1    2    0  502  0.61329091845E+01 -0.31136276311E+02 -0.49745592623E+03  0.49846712913E+03  0.00000000000E+00 0. -1.
<mgrwt>
<rscale>  1 0.30000000E+03</rscale>
<asrwt>0</asrwt>
<pdfrwt beam="1">  1       21 0.36711170E-02 0.30000000E+03</pdfrwt>
<pdfrwt beam="2">0</pdfrwt>
<totfact> 0.48570052E+04</totfact>
</mgrwt>
</event>
<event>
 6    1  0.1274196E-001  0.3000000E+03  0.7818608E-02  0.1093470E+00
         21   -1    0    0  501  502  0.00000000000E+00  0.00000000000E+00  0.12697394009E+01  0.12697394009E+01  0.00000000000E+00 0. -1.
         13   -1    0    0    0    0 -0.00000000000E+00 -0.00000000000E+00 -0.10000000000E+04  0.10000000000E+04  0.00000000000E+00 0.  1.
    9000005    2    1    2  501    0  0.19866245922E+01  0.33514079941E+02 -0.66513705987E+03  0.66599140160E+03  0.31777900678E+01 0.  0.
         13    1    3    3    0    0  0.60201478088E+00  0.26403405584E+02 -0.53864705480E+03  0.53929412373E+03  0.00000000000E+00 0.  1.
          1    1    3    3  501    0  0.13846098113E+01  0.71106743571E+01 -0.12649000507E+03  0.12669727786E+03  0.00000000000E+00 0.  1.
         -3    1    1    2    0  502 -0.19866245922E+01 -0.33514079941E+02 -0.33359320072E+03  0.33527833780E+03  0.00000000000E+00 0. -1.
<mgrwt>
<rscale>  1 0.30000000E+03</rscale>
<asrwt>0</asrwt>
<pdfrwt beam="1">  1       21 0.46172439E-02 0.30000000E+03</pdfrwt>
<pdfrwt beam="2">0</pdfrwt>
<totfact> 0.32985416E+04</totfact>
</mgrwt>
</event>
<event>
 6    1  0.1274196E-001  0.3000000E+03  0.7818608E-02  0.1093470E+00
         21   -1    0    0  501  502  0.00000000000E+00  0.00000000000E+00  0.16232317969E+01  0.16232317969E+01  0.00000000000E+00 0. -1.
         13   -1    0    0    0    0 -0.00000000000E+00 -0.00000000000E+00 -0.10000000000E+04  0.10000000000E+04  0.00000000000E+00 0.  1.
    9000005    2    1    2  501    0 -0.40901372946E+01 -0.32513011405E+02 -0.78991780190E+03  0.79060435642E+03  0.33599845523E+01 0.  0.
         13    1    3    3    0    0 -0.24931445376E+01 -0.22543682511E+02 -0.58145384214E+03  0.58189604221E+03  0.00000000000E+00 0.  1.
          3    1    3    3  501    0 -0.15969927570E+01 -0.99693288936E+01 -0.20846395976E+03  0.20870831421E+03  0.00000000000E+00 0.  1.
         -3    1    1    2    0  502  0.40901372946E+01  0.32513011405E+02 -0.20845896630E+03  0.21101887538E+03  0.00000000000E+00 0. -1.
<mgrwt>
<rscale>  1 0.30000000E+03</rscale>
<asrwt>0</asrwt>
<pdfrwt beam="1">  1       21 0.59026735E-02 0.30000000E+03</pdfrwt>
<pdfrwt beam="2">0</pdfrwt>
<totfact> 0.21674259E+04</totfact>
</mgrwt>
</event>
<event>
 6    1  0.1274196E-001  0.3000000E+03  0.7818608E-02  0.1093470E+00
         21   -1    0    0  501  502  0.00000000000E+00  0.00000000000E+00  0.11983543980E+01  0.11983543980E+01  0.00000000000E+00 0. -1.
         13   -1    0    0    0    0 -0.00000000000E+00 -0.00000000000E+00 -0.10000000000E+04  0.10000000000E+04  0.00000000000E+00 0.  1.
    9000005    2    1    2  501    0 -0.20460128831E+02 -0.25386491203E+02 -0.33995721011E+03  0.34154762789E+03  0.45592326302E+01 0.  0.
         13    1    3    3    0    0 -0.12309141969E+02 -0.17692977606E+02 -0.20715165985E+03  0.20826993689E+03  0.00000000000E+00 0.  1.
          1    1    3    3  501    0 -0.81509868620E+01 -0.76935135971E+01 -0.13280555026E+03  0.13327769100E+03  0.00000000000E+00 0.  1.
         -1    1    1    2    0  502  0.20460128831E+02  0.25386491203E+02 -0.65884443549E+03  0.65965072651E+03  0.00000000000E+00 0. -1.
<mgrwt>
<rscale>  1 0.30000000E+03</rscale>
<asrwt>0</asrwt>
<pdfrwt beam="1">  1       21 0.43576615E-02 0.30000000E+03</pdfrwt>
<pdfrwt beam="2">0</pdfrwt>
<totfact> 0.36387328E+04</totfact>
</mgrwt>
</event>
<event>
 6    1  0.1274196E-001  0.3000000E+03  0.7818608E-02  0.1093470E+00
         21   -1    0    0  501  502  0.00000000000E+00  0.00000000000E+00  0.35623113419E+01  0.35623113419E+01  0.00000000000E+00 0. -1.
         13   -1    0    0    0    0 -0.00000000000E+00 -0.00000000000E+00 -0.10000000000E+04  0.10000000000E+04  0.00000000000E+00 0.  1.
    9000005    2    1    2  501    0 -0.56267971593E+02  0.60149469051E+01 -0.65679543746E+03  0.65923815737E+03  0.35266476249E+01 0.  0.
         13    1    3    3    0    0 -0.43379591174E+02  0.55517284199E+01 -0.49322345511E+03  0.49515854762E+03  0.00000000000E+00 0.  1.
          3    1    3    3  501    0 -0.12888380419E+02  0.46321848525E+00 -0.16357198236E+03  0.16407960974E+03  0.00000000000E+00 0.  1.
         -1    1    1    2    0  502  0.56267971593E+02 -0.60149469051E+01 -0.33964225119E+03  0.34432415397E+03  0.00000000000E+00 0. -1.
<mgrwt>
<rscale>  1 0.30000000E+03</rscale>
<asrwt>0</asrwt>
<pdfrwt beam="1">  1       21 0.12953887E-01 0.30000000E+03</pdfrwt>
<pdfrwt beam="2">0</pdfrwt>
<totfact> 0.53913922E+03</totfact>
</mgrwt>
</event>
<event>
 6    1  0.1274196E-001  0.3000000E+03  0.7818608E-02  0.1093470E+00
         21   -1    0    0  501  502  0.00000000000E+00  0.00000000000E+00  0.14332575122E+01  0.14332575122E+01  0.00000000000E+00 0. -1.
         13   -1    0    0    0    0 -0.00000000000E+00 -0.00000000000E+00 -0.10000000000E+04  0.10000000000E+04  0.00000000000E+00 0.  1.
    9000005    2    1    2  501    0  0.64275195049E+01  0.35720107745E+02 -0.63899627091E+03  0.64003574350E+03  0.35042281574E+01 0.  0.
         13    1    3    3    0    0 -0.11184350283E+00  0.36053252339E+00 -0.29898611852E+01  0.30135962862E+01  0.00000000000E+00 0.  1.
          3    1    3    3  501    0  0.65393630078E+01  0.35359575221E+02 -0.63600640972E+03  0.63702214721E+03  0.00000000000E+00 0.  1.
         -1    1    1    2    0  502 -0.64275195049E+01 -0.35720107745E+02 -0.35957047158E+03  0.36139751401E+03  0.00000000000E+00 0. -1.
<mgrwt>
<rscale>  1 0.30000000E+03</rscale>
<asrwt>0</asrwt>
<pdfrwt beam="1">  1       21 0.52118565E-02 0.30000000E+03</pdfrwt>
<pdfrwt beam="2">0</pdfrwt>
<totfact> 0.26835264E+04</totfact>
</mgrwt>
</event>
<event>
 6    1  0.1274196E-001  0.3000000E+03  0.7818608E-02  0.1093470E+00
         21   -1    0    0  501  502  0.00000000000E+00  0.00000000000E+00  0.42788150761E+01  0.42788150761E+01  0.00000000000E+00 0. -1.
         13   -1    0    0    0    0 -0.00000000000E+00 -0.00000000000E+00 -0.10000000000E+04  0.10000000000E+04  0.00000000000E+00 0.  1.
    9000005    2    1    2  501    0  0.24108436559E+02 -0.18253404012E+02 -0.94284616330E+03  0.94336763890E+03  0.83193151037E+01 0.  0.
         13    1    3    3    0    0  0.23973445820E+00 -0.18344596926E+01 -0.26960682023E+02  0.27024083521E+02  0.00000000000E+00 0.  1.
          3    1    3    3  501    0  0.23868702101E+02 -0.16418944319E+02 -0.91588548128E+03  0.91634355538E+03  0.00000000000E+00 0.  1.
         -1    1    1    2    0  502 -0.24108436559E+02  0.18253404012E+02 -0.52875021622E+02  0.60911176174E+02  0.00000000000E+00 0. -1.
<mgrwt>
<rscale>  1 0.30000000E+03</rscale>
<asrwt>0</asrwt>
<pdfrwt beam="1">  1       21 0.15559360E-01 0.30000000E+03</pdfrwt>
<pdfrwt beam="2">0</pdfrwt>
<totfact> 0.38476250E+03</totfact>
</mgrwt>
</event>
<event>
 6    1  0.1274196E-001  0.3000000E+03  0.7818608E-02  0.1093470E+00
         21   -1    0    0  501  502  0.00000000000E+00  0.00000000000E+00  0.18846062958E+01  0.18846062958E+01  0.00000000000E+00 0. -1.
         13   -1    0    0    0    0 -0.00000000000E+00 -0.00000000000E+00 -0.10000000000E+04  0.10000000000E+04  0.00000000000E+00 0.  1.
    9000005    2    1    2  501    0 -0.17602701204E+02 -0.39459130603E+02 -0.53973558067E+03  0.54147290893E+03  0.33964661305E+01 0.  0.
         13    1    3    3    0    0 -0.23310756560E+01 -0.38554803232E+01 -0.68122393035E+02  0.68271217032E+02  0.00000000000E+00 0.  1.
          1    1    3    3  501    0 -0.15271625548E+02 -0.35603650279E+02 -0.47161318764E+03  0.47320169190E+03  0.00000000000E+00 0.  1.
         -3    1    1    2    0  502  0.17602701204E+02  0.39459130603E+02 -0.45837981303E+03  0.46041169737E+03  0.00000000000E+00 0. -1.
<mgrwt>
<rscale>  1 0.30000000E+03</rscale>
<asrwt>0</asrwt>
<pdfrwt beam="1">  1       21 0.68531283E-02 0.30000000E+03</pdfrwt>
<pdfrwt beam="2">0</pdfrwt>
<totfact> 0.16741346E+04</totfact>
</mgrwt>
</event>
<event>
 6    1  0.1274196E-001  0.3000000E+03  0.7818608E-02  0.1093470E+00
         21   -1    0    0  501  502  0.00000000000E+00  0.00000000000E+00  0.10276989119E+01  0.10276989119E+01  0.00000000000E+00 0. -1.
         13   -1    0    0    0    0 -0.00000000000E+00 -0.00000000000E+00 -0.10000000000E+04  0.10000000000E+04  0.00000000000E+00 0.  1.
    9000005    2    1    2  501    0  0.32136091978E+01  0.31186303449E+02 -0.58379191948E+03  0.58466528217E+03  0.61297726228E+01 0.  0.
         13    1    3    3    0    0 -0.44513602990E+00  0.15085733548E+02 -0.32167260434E+03  0.32202646147E+03  0.00000000000E+00 0.  1.
          1    1    3    3  501    0  0.36587452277E+01  0.16100569901E+02 -0.26211931514E+03  0.26263882070E+03  0.00000000000E+00 0.  1.
         -3    1    1    2    0  502 -0.32136091978E+01 -0.31186303449E+02 -0.41518038161E+03  0.41636241675E+03  0.00000000000E+00 0. -1.
<mgrwt>
<rscale>  1 0.30000000E+03</rscale>
<asrwt>0</asrwt>
<pdfrwt beam="1">  1       21 0.37370948E-02 0.30000000E+03</pdfrwt>
<pdfrwt beam="2">0</pdfrwt>
<totfact> 0.47139358E+04</totfact>
</mgrwt>
</event>
<event>
 6    1  0.1274196E-001  0.3000000E+03  0.7818608E-02  0.1093470E+00
         21   -1    0    0  501  502  0.00000000000E+00  0.00000000000E+00  0.13424405111E+02  0.13424405111E+02  0.00000000000E+00 0. -1.
         13   -1    0    0    0    0 -0.00000000000E+00 -0.00000000000E+00 -0.10000000000E+04  0.10000000000E+04  0.00000000000E+00 0.  1.
    9000005    2    1    2  501    0 -0.17392334973E+02  0.11433259059E+03 -0.50646450084E+03  0.51958121419E+03  0.91604008270E+01 0.  0.
         13    1    3    3    0    0 -0.86147229340E+01  0.33513210121E+02 -0.16189259701E+03  0.16554927264E+03  0.00000000000E+00 0.  1.
          1    1    3    3  501    0 -0.87776120390E+01  0.80819380470E+02 -0.34457190382E+03  0.35403194155E+03  0.00000000000E+00 0.  1.
         -3    1    1    2    0  502  0.17392334973E+02 -0.11433259059E+03 -0.48011109405E+03  0.49384319092E+03  0.00000000000E+00 0. -1.
<mgrwt>
<rscale>  1 0.30000000E+03</rscale>
<asrwt>0</asrwt>
<pdfrwt beam="1">  1       21 0.48816122E-01 0.30000000E+03</pdfrwt>
<pdfrwt beam="2">0</pdfrwt>
<totfact> 0.39570942E+02</totfact>
</mgrwt>
</event>
<event>
 6    1  0.1274196E-001  0.3000000E+03  0.7818608E-02  0.1093470E+00
         21   -1    0    0  501  502  0.00000000000E+00  0.00000000000E+00  0.18417795106E+01  0.18417795106E+01  0.00000000000E+00 0. -1.
         13   -1    0    0    0    0 -0.00000000000E+00 -0.00000000000E+00 -0.10000000000E+04  0.10000000000E+04  0.00000000000E+00 0.  1.
    9000005    2    1    2  501    0 -0.16224498336E+02 -0.39208299484E+02 -0.43002364109E+03  0.43212480995E+03  0.33157780838E+01 0.  0.
         13    1    3    3    0    0 -0.12807879721E+02 -0.30183726143E+02 -0.34537330339E+03  0.34692624259E+03  0.00000000000E+00 0.  1.
          3    1    3    3  501    0 -0.34166186152E+01 -0.90245733402E+01 -0.84650337696E+02  0.85198567352E+02  0.00000000000E+00 0.  1.
         -1    1    1    2    0  502  0.16224498336E+02  0.39208299484E+02 -0.56813457940E+03  0.56971696956E+03  0.00000000000E+00 0. -1.
<mgrwt>
<rscale>  1 0.30000000E+03</rscale>
<asrwt>0</asrwt>
<pdfrwt beam="1">  1       21 0.66973942E-02 0.30000000E+03</pdfrwt>
<pdfrwt beam="2">0</pdfrwt>
<totfact> 0.17422934E+04</totfact>
</mgrwt>
</event>
<event>
 6    1  0.1274196E-001  0.3000000E+03  0.7818608E-02  0.1093470E+00
         21   -1    0    0  501  502  0.00000000000E+00  0.00000000000E+00  0.22940094024E+01  0.22940094024E+01  0.00000000000E+00 0. -1.
         13   -1    0    0    0    0 -0.00000000000E+00 -0.00000000000E+00 -0.10000000000E+04  0.10000000000E+04  0.00000000000E+00 0.  1.
    9000005    2    1    2  501    0  0.36183143239E+02  0.22297251294E+02 -0.72903527969E+03  0.73028235860E+03  0.36738246158E+01 0.  0.
         13    1    3    3    0    0  0.12031311625E+02  0.91726861638E+01 -0.24326159972E+03  0.24373160757E+03  0.00000000000E+00 0.  1.
          1    1    3    3  501    0  0.24151831614E+02  0.13124565130E+02 -0.48577367997E+03  0.48655075103E+03  0.00000000000E+00 0.  1.
         -3    1    1    2    0  502 -0.36183143239E+02 -0.22297251294E+02 -0.26867071091E+03  0.27201165080E+03  0.00000000000E+00 0. -1.
<mgrwt>
<rscale>  1 0.30000000E+03</rscale>
<asrwt>0</asrwt>
<pdfrwt beam="1">  1       21 0.83418700E-02 0.30000000E+03</pdfrwt>
<pdfrwt beam="2">0</pdfrwt>
<totfact> 0.11867553E+04</totfact>
</mgrwt>
</event>
<event>
 6    1  0.1274196E-001  0.3000000E+03  0.7818608E-02  0.1093470E+00
         21   -1    0    0  501  502  0.00000000000E+00  0.00000000000E+00  0.34632569405E+01  0.34632569405E+01  0.00000000000E+00 0. -1.
         13   -1    0    0    0    0 -0.00000000000E+00 -0.00000000000E+00 -0.10000000000E+04  0.10000000000E+04  0.00000000000E+00 0.  1.
    9000005    2    1    2  501    0  0.57658742737E+00  0.47185153703E+02 -0.79780941343E+03  0.79921017196E+03  0.32043129493E+01 0.  0.
         13    1    3    3    0    0  0.11232958042E+01  0.30031128646E+02 -0.53012036815E+03  0.53097150132E+03  0.00000000000E+00 0.  1.
          3    1    3    3  501    0 -0.54670837682E+00  0.17154025057E+02 -0.26768904527E+03  0.26823867064E+03  0.00000000000E+00 0.  1.
         -3    1    1    2    0  502 -0.57658742737E+00 -0.47185153703E+02 -0.19872732963E+03  0.20425308498E+03  0.00000000000E+00 0. -1.
<mgrwt>
<rscale>  1 0.30000000E+03</rscale>
<asrwt>0</asrwt>
<pdfrwt beam="1">  1       21 0.12593688E-01 0.30000000E+03</pdfrwt>
<pdfrwt beam="2">0</pdfrwt>
<totfact> 0.56759533E+03</totfact>
</mgrwt>
</event>
<event>
 6    1  0.1274196E-001  0.3000000E+03  0.7818608E-02  0.1093470E+00
         21   -1    0    0  501  502  0.00000000000E+00  0.00000000000E+00  0.10372347875E+01  0.10372347875E+01  0.00000000000E+00 0. -1.
         13   -1    0    0    0    0 -0.00000000000E+00 -0.00000000000E+00 -0.10000000000E+04  0.10000000000E+04  0.00000000000E+00 0.  1.
    9000005    2    1    2  501    0 -0.27276525895E+02 -0.14552777344E+02 -0.63519126953E+03  0.63595437671E+03  0.37720249224E+01 0.  0.
         13    1    3    3    0    0 -0.23013996495E+02 -0.10883214665E+02 -0.53502593638E+03  0.53563125468E+03  0.00000000000E+00 0.  1.
          3    1    3    3  501    0 -0.42625293993E+01 -0.36695626800E+01 -0.10016533315E+03  0.10032312203E+03  0.00000000000E+00 0.  1.
         -1    1    1    2    0  502  0.27276525895E+02  0.14552777344E+02 -0.36377149568E+03  0.36508285808E+03  0.00000000000E+00 0. -1.
<mgrwt>
<rscale>  1 0.30000000E+03</rscale>
<asrwt>0</asrwt>
<pdfrwt beam="1">  1       21 0.37717708E-02 0.30000000E+03</pdfrwt>
<pdfrwt beam="2">0</pdfrwt>
<totfact> 0.46413837E+04</totfact>
</mgrwt>
</event>
<event>
 6    1  0.1274196E-001  0.3000000E+03  0.7818608E-02  0.1093470E+00
         21   -1    0    0  501  502  0.00000000000E+00  0.00000000000E+00  0.18947828937E+01  0.18947828937E+01  0.00000000000E+00 0. -1.
         13   -1    0    0    0    0 -0.00000000000E+00 -0.00000000000E+00 -0.10000000000E+04  0.10000000000E+04  0.00000000000E+00 0.  1.
    9000005    2    1    2  501    0  0.21694032135E+02 -0.22168105665E+02 -0.85021092913E+03  0.85078298205E+03  0.33170151580E+01 0.  0.
         13    1    3    3    0    0  0.18733116631E+02 -0.20156153712E+02 -0.72883610541E+03  0.72935537890E+03  0.00000000000E+00 0.  1.
          1    1    3    3  501    0  0.29609155047E+01 -0.20119519529E+01 -0.12137482373E+03  0.12142760315E+03  0.00000000000E+00 0.  1.
         -3    1    1    2    0  502 -0.21694032135E+02  0.22168105665E+02 -0.14789428797E+03  0.15111180084E+03  0.00000000000E+00 0. -1.
<mgrwt>
<rscale>  1 0.30000000E+03</rscale>
<asrwt>0</asrwt>
<pdfrwt beam="1">  1       21 0.68901341E-02 0.30000000E+03</pdfrwt>
<pdfrwt beam="2">0</pdfrwt>
<totfact> 0.16585399E+04</totfact>
</mgrwt>
</event>
<event>
 6    1  0.1274196E-001  0.3000000E+03  0.7818608E-02  0.1093470E+00
         21   -1    0    0  501  502  0.00000000000E+00  0.00000000000E+00  0.17376475168E+01  0.17376475168E+01  0.00000000000E+00 0. -1.
         13   -1    0    0    0    0 -0.00000000000E+00 -0.00000000000E+00 -0.10000000000E+04  0.10000000000E+04  0.00000000000E+00 0.  1.
    9000005    2    1    2  501    0  0.24867391754E+02 -0.29728865390E+02 -0.68225650964E+03  0.68336383371E+03  0.31609586977E+01 0.  0.
         13    1    3    3    0    0  0.24373499314E+02 -0.28403420813E+02 -0.66286842980E+03  0.66392422535E+03  0.00000000000E+00 0.  1.
          1    1    3    3  501    0  0.49389244070E+00 -0.13254445769E+01 -0.19388079843E+02  0.19439608356E+02  0.00000000000E+00 0.  1.
         -3    1    1    2    0  502 -0.24867391754E+02  0.29728865390E+02 -0.31600584284E+03  0.31837381381E+03  0.00000000000E+00 0. -1.
<mgrwt>
<rscale>  1 0.30000000E+03</rscale>
<asrwt>0</asrwt>
<pdfrwt beam="1">  1       21 0.63187316E-02 0.30000000E+03</pdfrwt>
<pdfrwt beam="2">0</pdfrwt>
<totfact> 0.19270265E+04</totfact>
</mgrwt>
</event>
<event>
 6    1  0.1274196E-001  0.3000000E+03  0.7818608E-02  0.1093470E+00
         21   -1    0    0  501  502  0.00000000000E+00  0.00000000000E+00  0.27200441573E+01  0.27200441573E+01  0.00000000000E+00 0. -1.
         13   -1    0    0    0    0 -0.00000000000E+00 -0.00000000000E+00 -0.10000000000E+04  0.10000000000E+04  0.00000000000E+00 0.  1.
    9000005    2    1    2  501    0 -0.20711259562E+02 -0.40530645520E+02 -0.74290629844E+03  0.74430633113E+03  0.32336980269E+01 0.  0.
         13    1    3    3    0    0 -0.11731208153E+02 -0.21404296604E+02 -0.37444403046E+03  0.37523872016E+03  0.00000000000E+00 0.  1.
          3    1    3    3  501    0 -0.89800514096E+01 -0.19126348916E+02 -0.36846226798E+03  0.36906761097E+03  0.00000000000E+00 0.  1.
         -1    1    1    2    0  502  0.20711259562E+02  0.40530645520E+02 -0.25437365740E+03  0.25841371303E+03  0.00000000000E+00 0. -1.
<mgrwt>
<rscale>  1 0.30000000E+03</rscale>
<asrwt>0</asrwt>
<pdfrwt beam="1">  1       21 0.98910905E-02 0.30000000E+03</pdfrwt>
<pdfrwt beam="2">0</pdfrwt>
<totfact> 0.87731398E+03</totfact>
</mgrwt>
</event>
<event>
 6    1  0.1274196E-001  0.3000000E+03  0.7818608E-02  0.1093470E+00
         21   -1    0    0  501  502  0.00000000000E+00  0.00000000000E+00  0.11022589585E+01  0.11022589585E+01  0.00000000000E+00 0. -1.
         13   -1    0    0    0    0 -0.00000000000E+00 -0.00000000000E+00 -0.10000000000E+04  0.10000000000E+04  0.00000000000E+00 0.  1.
    9000005    2    1    2  501    0  0.31391099648E+02  0.38742089098E+01 -0.64935041533E+03  0.65012684166E+03  0.29219399843E+01 0.  0.
         13    1    3    3    0    0  0.31445165586E+02  0.38503010036E+01 -0.64885360711E+03  0.64962652865E+03  0.00000000000E+00 0.  1.
          1    1    3    3  501    0 -0.54065938248E-01  0.23907906206E-01 -0.49680821305E+00  0.50031301624E+00  0.00000000000E+00 0.  1.
         -3    1    1    2    0  502 -0.31391099648E+02 -0.38742089098E+01 -0.34954732571E+03  0.35097541730E+03  0.00000000000E+00 0. -1.
<mgrwt>
<rscale>  1 0.30000000E+03</rscale>
<asrwt>0</asrwt>
<pdfrwt beam="1">  1       21 0.40082228E-02 0.30000000E+03</pdfrwt>
<pdfrwt beam="2">0</pdfrwt>
<totfact> 0.41902154E+04</totfact>
</mgrwt>
</event>
<event>
 6    1  0.1274196E-001  0.3000000E+03  0.7818608E-02  0.1093470E+00
         21   -1    0    0  501  502  0.00000000000E+00  0.00000000000E+00  0.14648202718E+02  0.14648202718E+02  0.00000000000E+00 0. -1.
         13   -1    0    0    0    0 -0.00000000000E+00 -0.00000000000E+00 -0.10000000000E+04  0.10000000000E+04  0.00000000000E+00 0.  1.
    9000005    2    1    2  501    0 -0.82962837012E+01 -0.12037856497E+03 -0.53099702038E+03  0.54454386269E+03  0.32179966724E+01 0.  0.
         13    1    3    3    0    0 -0.79298412918E+01 -0.10377212032E+03 -0.46141476047E+03  0.47300646562E+03  0.00000000000E+00 0.  1.
          1    1    3    3  501    0 -0.36644240945E+00 -0.16606444656E+02 -0.69582259915E+02  0.71537397066E+02  0.00000000000E+00 0.  1.
         -3    1    1    2    0  502  0.82962837012E+01  0.12037856497E+03 -0.45435477690E+03  0.47010434003E+03  0.00000000000E+00 0. -1.
<mgrwt>
<rscale>  1 0.30000000E+03</rscale>
<asrwt>0</asrwt>
<pdfrwt beam="1">  1       21 0.53266304E-01 0.30000000E+03</pdfrwt>
<pdfrwt beam="2">0</pdfrwt>
<totfact> 0.32723553E+02</totfact>
</mgrwt>
</event>
<event>
 6    1  0.1274196E-001  0.3000000E+03  0.7818608E-02  0.1093470E+00
         21   -1    0    0  501  502  0.00000000000E+00  0.00000000000E+00  0.10070863662E+01  0.10070863662E+01  0.00000000000E+00 0. -1.
         13   -1    0    0    0    0 -0.00000000000E+00 -0.00000000000E+00 -0.10000000000E+04  0.10000000000E+04  0.00000000000E+00 0.  1.
    9000005    2    1    2  501    0 -0.28151323763E+02 -0.11568533053E+02 -0.63788121857E+03  0.63861505514E+03  0.32267098741E+01 0.  0.
         13    1    3    3    0    0 -0.51832013582E+01 -0.28180641818E+01 -0.14820645738E+03  0.14832383851E+03  0.00000000000E+00 0.  1.
          1    1    3    3  501    0 -0.22968122405E+02 -0.87504688716E+01 -0.48967476120E+03  0.49029121663E+03  0.00000000000E+00 0.  1.
         -1    1    1    2    0  502  0.28151323763E+02  0.11568533053E+02 -0.36111169506E+03  0.36239203123E+03  0.00000000000E+00 0. -1.
<mgrwt>
<rscale>  1 0.30000000E+03</rscale>
<asrwt>0</asrwt>
<pdfrwt beam="1">  1       21 0.36621400E-02 0.30000000E+03</pdfrwt>
<pdfrwt beam="2">0</pdfrwt>
<totfact> 0.48769993E+04</totfact>
</mgrwt>
</event>
<event>
 6    1  0.1274196E-001  0.3000000E+03  0.7818608E-02  0.1093470E+00
         21   -1    0    0  501  502  0.00000000000E+00  0.00000000000E+00  0.25979206407E+01  0.25979206407E+01  0.00000000000E+00 0. -1.
         13   -1    0    0    0    0 -0.00000000000E+00 -0.00000000000E+00 -0.10000000000E+04  0.10000000000E+04  0.00000000000E+00 0.  1.
    9000005    2    1    2  501    0 -0.12103531967E+02 -0.41121242423E+02 -0.76984321634E+03  0.77103693904E+03  0.13898000340E+01 0.  0.
         13    1    3    3    0    0 -0.10695016443E+01 -0.34133570529E+01 -0.71394735708E+02  0.71484285874E+02  0.00000000000E+00 0.  1.
          3    1    3    3  501    0 -0.11034030323E+02 -0.37707885370E+02 -0.69844848064E+03  0.69955265316E+03  0.00000000000E+00 0.  1.
         -1    1    1    2    0  502  0.12103531967E+02  0.41121242423E+02 -0.22755886301E+03  0.23156098160E+03  0.00000000000E+00 0. -1.
<mgrwt>
<rscale>  1 0.30000000E+03</rscale>
<asrwt>0</asrwt>
<pdfrwt beam="1">  1       21 0.94470041E-02 0.30000000E+03</pdfrwt>
<pdfrwt beam="2">0</pdfrwt>
<totfact> 0.95221132E+03</totfact>
</mgrwt>
</event>
<event>
 6    1  0.1274196E-001  0.3000000E+03  0.7818608E-02  0.1093470E+00
         21   -1    0    0  501  502  0.00000000000E+00  0.00000000000E+00  0.27927429676E+01  0.27927429676E+01  0.00000000000E+00 0. -1.
         13   -1    0    0    0    0 -0.00000000000E+00 -0.00000000000E+00 -0.10000000000E+04  0.10000000000E+04  0.00000000000E+00 0.  1.
    9000005    2    1    2  501    0  0.26736335920E+02 -0.14787943155E+02 -0.90758486255E+03  0.90810542326E+03  0.34149813921E+01 0.  0.
         13    1    3    3    0    0  0.21648741300E+02 -0.11422971424E+02 -0.76141245488E+03  0.76180580118E+03  0.00000000000E+00 0.  1.
          3    1    3    3  501    0  0.50875946199E+01 -0.33649717311E+01 -0.14617240767E+03  0.14629962207E+03  0.00000000000E+00 0.  1.
         -3    1    1    2    0  502 -0.26736335920E+02  0.14787943155E+02 -0.89622394483E+02  0.94687319711E+02  0.00000000000E+00 0. -1.
<mgrwt>
<rscale>  1 0.30000000E+03</rscale>
<asrwt>0</asrwt>
<pdfrwt beam="1">  1       21 0.10155450E-01 0.30000000E+03</pdfrwt>
<pdfrwt beam="2">0</pdfrwt>
<totfact> 0.83691999E+03</totfact>
</mgrwt>
</event>
<event>
 6    1  0.1274196E-001  0.3000000E+03  0.7818608E-02  0.1093470E+00
         21   -1    0    0  501  502  0.00000000000E+00  0.00000000000E+00  0.25130947610E+01  0.25130947610E+01  0.00000000000E+00 0. -1.
         13   -1    0    0    0    0 -0.00000000000E+00 -0.00000000000E+00 -0.10000000000E+04  0.10000000000E+04  0.00000000000E+00 0.  1.
    9000005    2    1    2  501    0  0.24312320417E+02 -0.39599169112E+02 -0.31262692119E+03  0.31607855246E+03  0.32979313561E+01 0.  0.
         13    1    3    3    0    0  0.18662461346E+02 -0.31493994211E+02 -0.25410861024E+03  0.25673204890E+03  0.00000000000E+00 0.  1.
          3    1    3    3  501    0  0.56498590709E+01 -0.81051749014E+01 -0.58518310956E+02  0.59346503561E+02  0.00000000000E+00 0.  1.
         -1    1    1    2    0  502 -0.24312320417E+02  0.39599169112E+02 -0.68485998405E+03  0.68643454230E+03  0.00000000000E+00 0. -1.
<mgrwt>
<rscale>  1 0.30000000E+03</rscale>
<asrwt>0</asrwt>
<pdfrwt beam="1">  1       21 0.91385457E-02 0.30000000E+03</pdfrwt>
<pdfrwt beam="2">0</pdfrwt>
<totfact> 0.10100779E+04</totfact>
</mgrwt>
</event>
<event>
 6    1  0.1274196E-001  0.3000000E+03  0.7818608E-02  0.1093470E+00
         21   -1    0    0  501  502  0.00000000000E+00  0.00000000000E+00  0.62044797603E+01  0.62044797603E+01  0.00000000000E+00 0. -1.
         13   -1    0    0    0    0 -0.00000000000E+00 -0.00000000000E+00 -0.10000000000E+04  0.10000000000E+04  0.00000000000E+00 0.  1.
    9000005    2    1    2  501    0  0.44689615425E+02 -0.62582111735E+02 -0.38983011872E+03  0.39736304829E+03  0.40234627849E+01 0.  0.
         13    1    3    3    0    0  0.36183391190E+02 -0.48995897167E+02 -0.31518790341E+03  0.32101908073E+03  0.00000000000E+00 0.  1.
          3    1    3    3  501    0  0.85062242348E+01 -0.13586214568E+02 -0.74642215303E+02  0.76343967558E+02  0.00000000000E+00 0.  1.
         -3    1    1    2    0  502 -0.44689615425E+02  0.62582111735E+02 -0.60396540152E+03  0.60884143147E+03  0.00000000000E+00 0. -1.
<mgrwt>
<rscale>  1 0.30000000E+03</rscale>
<asrwt>0</asrwt>
<pdfrwt beam="1">  1       21 0.22561792E-01 0.30000000E+03</pdfrwt>
<pdfrwt beam="2">0</pdfrwt>
<totfact> 0.19037572E+03</totfact>
</mgrwt>
</event>
<event>
 6    1  0.1274196E-001  0.3000000E+03  0.7818608E-02  0.1093470E+00
         21   -1    0    0  501  502  0.00000000000E+00  0.00000000000E+00  0.11464406110E+01  0.11464406110E+01  0.00000000000E+00 0. -1.
         13   -1    0    0    0    0 -0.00000000000E+00 -0.00000000000E+00 -0.10000000000E+04  0.10000000000E+04  0.00000000000E+00 0.  1.
    9000005    2    1    2  501    0 -0.18872227731E+02  0.24251935748E+02 -0.70597494336E+03  0.70666010630E+03  0.48546700308E+01 0.  0.
         13    1    3    3    0    0 -0.12053727035E+02  0.16725087334E+02 -0.51934828161E+03  0.51975730730E+03  0.00000000000E+00 0.  1.
          3    1    3    3  501    0 -0.68185006958E+01  0.75268484138E+01 -0.18662666175E+03  0.18690279900E+03  0.00000000000E+00 0.  1.
         -1    1    1    2    0  502  0.18872227731E+02 -0.24251935748E+02 -0.29287861603E+03  0.29448633431E+03  0.00000000000E+00 0. -1.
<mgrwt>
<rscale>  1 0.30000000E+03</rscale>
<asrwt>0</asrwt>
<pdfrwt beam="1">  1       21 0.41688837E-02 0.30000000E+03</pdfrwt>
<pdfrwt beam="2">0</pdfrwt>
<totfact> 0.39215703E+04</totfact>
</mgrwt>
</event>
<event>
 6    1  0.1274196E-001  0.3000000E+03  0.7818608E-02  0.1093470E+00
         21   -1    0    0  501  502  0.00000000000E+00  0.00000000000E+00  0.97646390832E+00  0.97646390832E+00  0.00000000000E+00 0. -1.
         13   -1    0    0    0    0 -0.00000000000E+00 -0.00000000000E+00 -0.10000000000E+04  0.10000000000E+04  0.00000000000E+00 0.  1.
    9000005    2    1    2  501    0 -0.10962343506E+02 -0.29084219860E+02 -0.53596779937E+03  0.53687875854E+03  0.33547856454E+01 0.  0.
         13    1    3    3    0    0 -0.98823743470E+01 -0.22939898652E+02 -0.43998876680E+03  0.44069719217E+03  0.00000000000E+00 0.  1.
          3    1    3    3  501    0 -0.10799691592E+01 -0.61443212082E+01 -0.95979032569E+02  0.96181566370E+02  0.00000000000E+00 0.  1.
         -3    1    1    2    0  502  0.10962343506E+02  0.29084219860E+02 -0.46305573672E+03  0.46409770537E+03  0.00000000000E+00 0. -1.
<mgrwt>
<rscale>  1 0.30000000E+03</rscale>
<asrwt>0</asrwt>
<pdfrwt beam="1">  1       21 0.35507853E-02 0.30000000E+03</pdfrwt>
<pdfrwt beam="2">0</pdfrwt>
<totfact> 0.51362103E+04</totfact>
</mgrwt>
</event>
<event>
 6    1  0.1274196E-001  0.3000000E+03  0.7818608E-02  0.1093470E+00
         21   -1    0    0  501  502  0.00000000000E+00  0.00000000000E+00  0.11673001214E+01  0.11673001214E+01  0.00000000000E+00 0. -1.
         13   -1    0    0    0    0 -0.00000000000E+00 -0.00000000000E+00 -0.10000000000E+04  0.10000000000E+04  0.00000000000E+00 0.  1.
    9000005    2    1    2  501    0  0.22454177868E+02 -0.24959602273E+02 -0.57272674390E+03  0.57374074787E+03  0.59456486904E+01 0.  0.
         13    1    3    3    0    0  0.12521386477E+02 -0.17779527374E+02 -0.38623262025E+03  0.38684432742E+03  0.00000000000E+00 0.  1.
          3    1    3    3  501    0  0.99327913913E+01 -0.71800748997E+01 -0.18649412365E+03  0.18689642045E+03  0.00000000000E+00 0.  1.
         -3    1    1    2    0  502 -0.22454177868E+02  0.24959602273E+02 -0.42610595598E+03  0.42742655225E+03  0.00000000000E+00 0. -1.
<mgrwt>
<rscale>  1 0.30000000E+03</rscale>
<asrwt>0</asrwt>
<pdfrwt beam="1">  1       21 0.42447367E-02 0.30000000E+03</pdfrwt>
<pdfrwt beam="2">0</pdfrwt>
<totfact> 0.38039518E+04</totfact>
</mgrwt>
</event>
<event>
 6    1  0.1274196E-001  0.3000000E+03  0.7818608E-02  0.1093470E+00
         21   -1    0    0  501  502  0.00000000000E+00  0.00000000000E+00  0.12190405094E+01  0.12190405094E+01  0.00000000000E+00 0. -1.
         13   -1    0    0    0    0 -0.00000000000E+00 -0.00000000000E+00 -0.10000000000E+04  0.10000000000E+04  0.00000000000E+00 0.  1.
    9000005    2    1    2  501    0  0.38120396459E+01  0.32630099037E+02 -0.66673682802E+03  0.66755369881E+03  0.32692419725E+01 0.  0.
         13    1    3    3    0    0 -0.29407298014E+00  0.44906170840E+01 -0.76571878306E+02  0.76704006858E+02  0.00000000000E+00 0.  1.
          1    1    3    3  501    0  0.41061126261E+01  0.28139481953E+02 -0.59016494971E+03  0.59084969195E+03  0.00000000000E+00 0.  1.
         -3    1    1    2    0  502 -0.38120396459E+01 -0.32630099037E+02 -0.33204413147E+03  0.33366534170E+03  0.00000000000E+00 0. -1.
<mgrwt>
<rscale>  1 0.30000000E+03</rscale>
<asrwt>0</asrwt>
<pdfrwt beam="1">  1       21 0.44328839E-02 0.30000000E+03</pdfrwt>
<pdfrwt beam="2">0</pdfrwt>
<totfact> 0.35347617E+04</totfact>
</mgrwt>
</event>
<event>
 6    1  0.1274196E-001  0.3000000E+03  0.7818608E-02  0.1093470E+00
         21   -1    0    0  501  502  0.00000000000E+00  0.00000000000E+00  0.12331403643E+02  0.12331403643E+02  0.00000000000E+00 0. -1.
         13   -1    0    0    0    0 -0.00000000000E+00 -0.00000000000E+00 -0.10000000000E+04  0.10000000000E+04  0.00000000000E+00 0.  1.
    9000005    2    1    2  501    0  0.39094566789E+02  0.43793892612E+02 -0.92346081728E+03  0.92533181125E+03  0.35762656739E+01 0.  0.
         13    1    3    3    0    0  0.21437741870E+01  0.15183404841E+01 -0.34842464598E+02  0.34941357513E+02  0.00000000000E+00 0.  1.
          3    1    3    3  501    0  0.36950792602E+02  0.42275552128E+02 -0.88861835269E+03  0.89039045374E+03  0.00000000000E+00 0.  1.
         -1    1    1    2    0  502 -0.39094566789E+02 -0.43793892612E+02 -0.64207779073E+02  0.86999592390E+02  0.00000000000E+00 0. -1.
<mgrwt>
<rscale>  1 0.30000000E+03</rscale>
<asrwt>0</asrwt>
<pdfrwt beam="1">  1       21 0.44841562E-01 0.30000000E+03</pdfrwt>
<pdfrwt beam="2">0</pdfrwt>
<totfact> 0.47464175E+02</totfact>
</mgrwt>
</event>
<event>
 6    1  0.1274196E-001  0.3000000E+03  0.7818608E-02  0.1093470E+00
         21   -1    0    0  501  502  0.00000000000E+00  0.00000000000E+00  0.10910086253E+01  0.10910086253E+01  0.00000000000E+00 0. -1.
         13   -1    0    0    0    0 -0.00000000000E+00 -0.00000000000E+00 -0.10000000000E+04  0.10000000000E+04  0.00000000000E+00 0.  1.
    9000005    2    1    2  501    0 -0.61824695540E+01 -0.29892399739E+02 -0.68937420305E+03  0.69005473473E+03  0.26394333717E+01 0.  0.
         13    1    3    3    0    0 -0.82106232447E+00 -0.17614808349E+01 -0.34516087933E+02  0.34570757647E+02  0.00000000000E+00 0.  1.
          3    1    3    3  501    0 -0.53614072295E+01 -0.28130918904E+02 -0.65485811511E+03  0.65548397709E+03  0.00000000000E+00 0.  1.
         -3    1    1    2    0  502  0.61824695540E+01  0.29892399739E+02 -0.30953478833E+03  0.31103627389E+03  0.00000000000E+00 0. -1.
<mgrwt>
<rscale>  1 0.30000000E+03</rscale>
<asrwt>0</asrwt>
<pdfrwt beam="1">  1       21 0.39673125E-02 0.30000000E+03</pdfrwt>
<pdfrwt beam="2">0</pdfrwt>
<totfact> 0.42632256E+04</totfact>
</mgrwt>
</event>
<event>
 6    1  0.1274196E-001  0.3000000E+03  0.7818608E-02  0.1093470E+00
         21   -1    0    0  501  502  0.00000000000E+00  0.00000000000E+00  0.19686131136E+01  0.19686131136E+01  0.00000000000E+00 0. -1.
         13   -1    0    0    0    0 -0.00000000000E+00 -0.00000000000E+00 -0.10000000000E+04  0.10000000000E+04  0.00000000000E+00 0.  1.
    9000005    2    1    2  501    0 -0.33142454392E+02  0.96493858441E+01 -0.81332286197E+03  0.81406232767E+03  0.34442136011E+01 0.  0.
         13    1    3    3    0    0 -0.17803149492E+02  0.64214142095E+01 -0.47366268983E+03  0.47404064217E+03  0.00000000000E+00 0.  1.
          3    1    3    3  501    0 -0.15339304901E+02  0.32279716345E+01 -0.33966017214E+03  0.34002168550E+03  0.00000000000E+00 0.  1.
         -3    1    1    2    0  502  0.33142454392E+02 -0.96493858441E+01 -0.18470852492E+03  0.18790628544E+03  0.00000000000E+00 0. -1.
<mgrwt>
<rscale>  1 0.30000000E+03</rscale>
<asrwt>0</asrwt>
<pdfrwt beam="1">  1       21 0.71586082E-02 0.30000000E+03</pdfrwt>
<pdfrwt beam="2">0</pdfrwt>
<totfact> 0.15517668E+04</totfact>
</mgrwt>
</event>
<event>
 6    1  0.1274196E-001  0.3000000E+03  0.7818608E-02  0.1093470E+00
         21   -1    0    0  501  502  0.00000000000E+00  0.00000000000E+00  0.86435415087E+01  0.86435415087E+01  0.00000000000E+00 0. -1.
         13   -1    0    0    0    0 -0.00000000000E+00 -0.00000000000E+00 -0.10000000000E+04  0.10000000000E+04  0.00000000000E+00 0.  1.
    9000005    2    1    2  501    0 -0.54436505201E+02 -0.16915464329E+02 -0.89404803118E+03  0.89586767504E+03  0.27464693336E+01 0.  0.
         13    1    3    3    0    0 -0.54376550458E+02 -0.16978849950E+02 -0.89150870356E+03  0.89332684898E+03  0.00000000000E+00 0.  1.
          1    1    3    3  501    0 -0.59954742590E-01  0.63385621412E-01 -0.25393276153E+01  0.25408260558E+01  0.00000000000E+00 0.  1.
         -1    1    1    2    0  502  0.54436505201E+02  0.16915464329E+02 -0.97308427313E+02  0.11277586647E+03  0.00000000000E+00 0. -1.
<mgrwt>
<rscale>  1 0.30000000E+03</rscale>
<asrwt>0</asrwt>
<pdfrwt beam="1">  1       21 0.31431126E-01 0.30000000E+03</pdfrwt>
<pdfrwt beam="2">0</pdfrwt>
<totfact> 0.99017175E+02</totfact>
</mgrwt>
</event>
<event>
 6    1  0.1274196E-001  0.3000000E+03  0.7818608E-02  0.1093470E+00
         21   -1    0    0  501  502  0.00000000000E+00  0.00000000000E+00  0.16801991969E+01  0.16801991969E+01  0.00000000000E+00 0. -1.
         13   -1    0    0    0    0 -0.00000000000E+00 -0.00000000000E+00 -0.10000000000E+04  0.10000000000E+04  0.00000000000E+00 0.  1.
    9000005    2    1    2  501    0 -0.30193597526E+02 -0.36457345486E+01 -0.83468406194E+03  0.83524222353E+03  0.26728249045E+01 0.  0.
         13    1    3    3    0    0 -0.22943642520E+02 -0.37293008572E+01 -0.61871750302E+03  0.61915399293E+03  0.00000000000E+00 0.  1.
          3    1    3    3  501    0 -0.72499550068E+01  0.83566308626E-01 -0.21596655892E+03  0.21608823060E+03  0.00000000000E+00 0.  1.
         -3    1    1    2    0  502  0.30193597526E+02  0.36457345486E+01 -0.16363573886E+03  0.16643797567E+03  0.00000000000E+00 0. -1.
<mgrwt>
<rscale>  1 0.30000000E+03</rscale>
<asrwt>0</asrwt>
<pdfrwt beam="1">  1       21 0.61098281E-02 0.30000000E+03</pdfrwt>
<pdfrwt beam="2">0</pdfrwt>
<totfact> 0.20422436E+04</totfact>
</mgrwt>
</event>
<event>
 6    1  0.1274196E-001  0.3000000E+03  0.7818608E-02  0.1093470E+00
         21   -1    0    0  501  502  0.00000000000E+00  0.00000000000E+00  0.26468822373E+01  0.26468822373E+01  0.00000000000E+00 0. -1.
         13   -1    0    0    0    0 -0.00000000000E+00 -0.00000000000E+00 -0.10000000000E+04  0.10000000000E+04  0.00000000000E+00 0.  1.
    9000005    2    1    2  501    0  0.23754367277E+02 -0.27462887071E+02 -0.85360655619E+03  0.85438510667E+03  0.33582130117E+01 0.  0.
         13    1    3    3    0    0  0.10330706844E+02 -0.99229281648E+01 -0.35884013466E+03  0.35912592534E+03  0.00000000000E+00 0.  1.
          3    1    3    3  501    0  0.13423660433E+02 -0.17539958906E+02 -0.49476642153E+03  0.49525918133E+03  0.00000000000E+00 0.  1.
         -3    1    1    2    0  502 -0.23754367277E+02  0.27462887071E+02 -0.14374656157E+03  0.14826177557E+03  0.00000000000E+00 0. -1.
<mgrwt>
<rscale>  1 0.30000000E+03</rscale>
<asrwt>0</asrwt>
<pdfrwt beam="1">  1       21 0.96250466E-02 0.30000000E+03</pdfrwt>
<pdfrwt beam="2">0</pdfrwt>
<totfact> 0.92105225E+03</totfact>
</mgrwt>
</event>
<event>
 6    1  0.1274196E-001  0.3000000E+03  0.7818608E-02  0.1093470E+00
         21   -1    0    0  501  502  0.00000000000E+00  0.00000000000E+00  0.20212758438E+01  0.20212758438E+01  0.00000000000E+00 0. -1.
         13   -1    0    0    0    0 -0.00000000000E+00 -0.00000000000E+00 -0.10000000000E+04  0.10000000000E+04  0.00000000000E+00 0.  1.
    9000005    2    1    2  501    0 -0.27952868890E+02  0.27368979240E+02 -0.74521574712E+03  0.74624882528E+03  0.32211150408E+01 0.  0.
         13    1    3    3    0    0 -0.12854919470E+02  0.13940824424E+02 -0.38529377722E+03  0.38576014608E+03  0.00000000000E+00 0.  1.
          1    1    3    3  501    0 -0.15097949420E+02  0.13428154817E+02 -0.35992196989E+03  0.36048867920E+03  0.00000000000E+00 0.  1.
         -3    1    1    2    0  502  0.27952868890E+02 -0.27368979240E+02 -0.25276297704E+03  0.25577245056E+03  0.00000000000E+00 0. -1.
<mgrwt>
<rscale>  1 0.30000000E+03</rscale>
<asrwt>0</asrwt>
<pdfrwt beam="1">  1       21 0.73501095E-02 0.30000000E+03</pdfrwt>
<pdfrwt beam="2">0</pdfrwt>
<totfact> 0.14818736E+04</totfact>
</mgrwt>
</event>
<event>
 6    1  0.1274196E-001  0.3000000E+03  0.7818608E-02  0.1093470E+00
         21   -1    0    0  501  502  0.00000000000E+00  0.00000000000E+00  0.11794456120E+01  0.11794456120E+01  0.00000000000E+00 0. -1.
         13   -1    0    0    0    0 -0.00000000000E+00 -0.00000000000E+00 -0.10000000000E+04  0.10000000000E+04  0.00000000000E+00 0.  1.
    9000005    2    1    2  501    0  0.24058310216E+02  0.24032179386E+02 -0.48044353106E+03  0.48168826547E+03  0.64226639705E+01 0.  0.
         13    1    3    3    0    0  0.32022176261E+01  0.33368289653E+01 -0.10255291198E+03  0.10265713994E+03  0.00000000000E+00 0.  1.
          1    1    3    3  501    0  0.20856092590E+02  0.20695350421E+02 -0.37789061908E+03  0.37903112553E+03  0.00000000000E+00 0.  1.
         -3    1    1    2    0  502 -0.24058310216E+02 -0.24032179386E+02 -0.51837702333E+03  0.51949118015E+03  0.00000000000E+00 0. -1.
<mgrwt>
<rscale>  1 0.30000000E+03</rscale>
<asrwt>0</asrwt>
<pdfrwt beam="1">  1       21 0.42889022E-02 0.30000000E+03</pdfrwt>
<pdfrwt beam="2">0</pdfrwt>
<totfact> 0.37379740E+04</totfact>
</mgrwt>
</event>
<event>
 6    1  0.1274196E-001  0.3000000E+03  0.7818608E-02  0.1093470E+00
         21   -1    0    0  501  502  0.00000000000E+00  0.00000000000E+00  0.15539306445E+01  0.15539306445E+01  0.00000000000E+00 0. -1.
         13   -1    0    0    0    0 -0.00000000000E+00 -0.00000000000E+00 -0.10000000000E+04  0.10000000000E+04  0.00000000000E+00 0.  1.
    9000005    2    1    2  501    0 -0.29547421274E+01 -0.35491747896E+02 -0.28698339715E+03  0.28920041685E+03  0.30026984911E+01 0.  0.
         13    1    3    3    0    0 -0.14006723872E+01 -0.88212388519E+01 -0.81340787146E+02  0.81829699936E+02  0.00000000000E+00 0.  1.
          3    1    3    3  501    0 -0.15540697402E+01 -0.26670509044E+02 -0.20564261000E+03  0.20737071692E+03  0.00000000000E+00 0.  1.
         -1    1    1    2    0  502  0.29547421274E+01  0.35491747896E+02 -0.71146267221E+03  0.71235351379E+03  0.00000000000E+00 0. -1.
<mgrwt>
<rscale>  1 0.30000000E+03</rscale>
<asrwt>0</asrwt>
<pdfrwt beam="1">  1       21 0.56506688E-02 0.30000000E+03</pdfrwt>
<pdfrwt beam="2">0</pdfrwt>
<totfact> 0.23364762E+04</totfact>
</mgrwt>
</event>
<event>
 6    1  0.1274196E-001  0.3000000E+03  0.7818608E-02  0.1093470E+00
         21   -1    0    0  501  502  0.00000000000E+00  0.00000000000E+00  0.12582653847E+01  0.12582653847E+01  0.00000000000E+00 0. -1.
         13   -1    0    0    0    0 -0.00000000000E+00 -0.00000000000E+00 -0.10000000000E+04  0.10000000000E+04  0.00000000000E+00 0.  1.
    9000005    2    1    2  501    0  0.54470509333E+01 -0.33239988781E+02 -0.36160262249E+03  0.36322941383E+03  0.66770697643E+01 0.  0.
         13    1    3    3    0    0  0.53130401660E+01 -0.33220982897E+02 -0.34720479332E+03  0.34883094846E+03  0.00000000000E+00 0.  1.
          1    1    3    3  501    0  0.13401076727E+00 -0.19005884383E-01 -0.14397829176E+02  0.14398465373E+02  0.00000000000E+00 0.  1.
         -1    1    1    2    0  502 -0.54470509333E+01  0.33239988781E+02 -0.63713911212E+03  0.63802885155E+03  0.00000000000E+00 0. -1.
<mgrwt>
<rscale>  1 0.30000000E+03</rscale>
<asrwt>0</asrwt>
<pdfrwt beam="1">  1       21 0.45755201E-02 0.30000000E+03</pdfrwt>
<pdfrwt beam="2">0</pdfrwt>
<totfact> 0.33498064E+04</totfact>
</mgrwt>
</event>
<event>
 6    1  0.1274196E-001  0.3000000E+03  0.7818608E-02  0.1093470E+00
         21   -1    0    0  501  502  0.00000000000E+00  0.00000000000E+00  0.26490253048E+01  0.26490253048E+01  0.00000000000E+00 0. -1.
         13   -1    0    0    0    0 -0.00000000000E+00 -0.00000000000E+00 -0.10000000000E+04  0.10000000000E+04  0.00000000000E+00 0.  1.
    9000005    2    1    2  501    0  0.25964601868E+02 -0.39464325845E+02 -0.69691672663E+03  0.69852350685E+03  0.32514922209E+01 0.  0.
         13    1    3    3    0    0  0.23389465140E+02 -0.36157280740E+02 -0.64669693246E+03  0.64812910634E+03  0.00000000000E+00 0.  1.
          3    1    3    3  501    0  0.25751367275E+01 -0.33070451051E+01 -0.50219794171E+02  0.50394400513E+02  0.00000000000E+00 0.  1.
         -1    1    1    2    0  502 -0.25964601868E+02  0.39464325845E+02 -0.30043424806E+03  0.30412551845E+03  0.00000000000E+00 0. -1.
<mgrwt>
<rscale>  1 0.30000000E+03</rscale>
<asrwt>0</asrwt>
<pdfrwt beam="1">  1       21 0.96328396E-02 0.30000000E+03</pdfrwt>
<pdfrwt beam="2">0</pdfrwt>
<totfact> 0.91972401E+03</totfact>
</mgrwt>
</event>
<event>
 6    1  0.1274196E-001  0.3000000E+03  0.7818608E-02  0.1093470E+00
         21   -1    0    0  501  502  0.00000000000E+00  0.00000000000E+00  0.32769718020E+01  0.32769718020E+01  0.00000000000E+00 0. -1.
         13   -1    0    0    0    0 -0.00000000000E+00 -0.00000000000E+00 -0.10000000000E+04  0.10000000000E+04  0.00000000000E+00 0.  1.
    9000005    2    1    2  501    0  0.38685458216E+02 -0.41271708583E+02 -0.43930406177E+03  0.44299505817E+03  0.75262388379E+01 0.  0.
         13    1    3    3    0    0 -0.22885344298E+00 -0.98562863751E+00 -0.58232674284E+01  0.59105229255E+01  0.00000000000E+00 0.  1.
          3    1    3    3  501    0  0.38914311658E+02 -0.40286079945E+02 -0.43348079434E+03  0.43708453525E+03  0.00000000000E+00 0.  1.
         -3    1    1    2    0  502 -0.38685458216E+02  0.41271708583E+02 -0.55741896643E+03  0.56028191363E+03  0.00000000000E+00 0. -1.
<mgrwt>
<rscale>  1 0.30000000E+03</rscale>
<asrwt>0</asrwt>
<pdfrwt beam="1">  1       21 0.11916286E-01 0.30000000E+03</pdfrwt>
<pdfrwt beam="2">0</pdfrwt>
<totfact> 0.62763277E+03</totfact>
</mgrwt>
</event>
<event>
 6    1  0.1274196E-001  0.3000000E+03  0.7818608E-02  0.1093470E+00
         21   -1    0    0  501  502  0.00000000000E+00  0.00000000000E+00  0.34861626860E+01  0.34861626860E+01  0.00000000000E+00 0. -1.
         13   -1    0    0    0    0 -0.00000000000E+00 -0.00000000000E+00 -0.10000000000E+04  0.10000000000E+04  0.00000000000E+00 0.  1.
    9000005    2    1    2  501    0 -0.34297599501E+02  0.39485285141E+02 -0.73057095611E+03  0.73244921107E+03  0.35372054504E+01 0.  0.
         13    1    3    3    0    0 -0.24940061478E+02  0.28277793898E+02 -0.50410752617E+03  0.50551561621E+03  0.00000000000E+00 0.  1.
          1    1    3    3  501    0 -0.93575380230E+01  0.11207491243E+02 -0.22646342993E+03  0.22693359486E+03  0.00000000000E+00 0.  1.
         -1    1    1    2    0  502  0.34297599501E+02 -0.39485285141E+02 -0.26594288121E+03  0.27103695161E+03  0.00000000000E+00 0. -1.
<mgrwt>
<rscale>  1 0.30000000E+03</rscale>
<asrwt>0</asrwt>
<pdfrwt beam="1">  1       21 0.12676982E-01 0.30000000E+03</pdfrwt>
<pdfrwt beam="2">0</pdfrwt>
<totfact> 0.56081651E+03</totfact>
</mgrwt>
</event>
<event>
 6    1  0.1274196E-001  0.3000000E+03  0.7818608E-02  0.1093470E+00
         21   -1    0    0  501  502  0.00000000000E+00  0.00000000000E+00  0.32466151898E+01  0.32466151898E+01  0.00000000000E+00 0. -1.
         13   -1    0    0    0    0 -0.00000000000E+00 -0.00000000000E+00 -0.10000000000E+04  0.10000000000E+04  0.00000000000E+00 0.  1.
    9000005    2    1    2  501    0 -0.48177245421E+02 -0.15950823544E+02 -0.27173946729E+03  0.27645871192E+03  0.34066938217E+01 0.  0.
         13    1    3    3    0    0 -0.70070807380E+01 -0.33572619472E+01 -0.45655295290E+02  0.46311730439E+02  0.00000000000E+00 0.  1.
          1    1    3    3  501    0 -0.41170164683E+02 -0.12593561597E+02 -0.22608417200E+03  0.23014698148E+03  0.00000000000E+00 0.  1.
         -1    1    1    2    0  502  0.48177245421E+02  0.15950823544E+02 -0.72501391752E+03  0.72678790327E+03  0.00000000000E+00 0. -1.
<mgrwt>
<rscale>  1 0.30000000E+03</rscale>
<asrwt>0</asrwt>
<pdfrwt beam="1">  1       21 0.11805898E-01 0.30000000E+03</pdfrwt>
<pdfrwt beam="2">0</pdfrwt>
<totfact> 0.63830990E+03</totfact>
</mgrwt>
</event>
<event>
 6    1  0.1274196E-001  0.3000000E+03  0.7818608E-02  0.1093470E+00
         21   -1    0    0  501  502  0.00000000000E+00  0.00000000000E+00  0.91975667862E+00  0.91975667862E+00  0.00000000000E+00 0. -1.
         13   -1    0    0    0    0 -0.00000000000E+00 -0.00000000000E+00 -0.10000000000E+04  0.10000000000E+04  0.00000000000E+00 0.  1.
    9000005    2    1    2  501    0 -0.18514366294E+02  0.23859608559E+02 -0.51731087449E+03  0.51820473990E+03  0.36808842510E+01 0.  0.
         13    1    3    3    0    0 -0.18013161601E+01  0.10600689880E+01 -0.27961584613E+02  0.28039591656E+02  0.00000000000E+00 0.  1.
          1    1    3    3  501    0 -0.16713050134E+02  0.22799539571E+02 -0.48934928988E+03  0.49016514825E+03  0.00000000000E+00 0.  1.
         -1    1    1    2    0  502  0.18514366294E+02 -0.23859608559E+02 -0.48176936883E+03  0.48271501677E+03  0.00000000000E+00 0. -1.
<mgrwt>
<rscale>  1 0.30000000E+03</rscale>
<asrwt>0</asrwt>
<pdfrwt beam="1">  1       21 0.33445768E-02 0.30000000E+03</pdfrwt>
<pdfrwt beam="2">0</pdfrwt>
<totfact> 0.56768148E+04</totfact>
</mgrwt>
</event>
<event>
 6    1  0.1274196E-001  0.3000000E+03  0.7818608E-02  0.1093470E+00
         21   -1    0    0  501  502  0.00000000000E+00  0.00000000000E+00  0.19491153316E+01  0.19491153316E+01  0.00000000000E+00 0. -1.
         13   -1    0    0    0    0 -0.00000000000E+00 -0.00000000000E+00 -0.10000000000E+04  0.10000000000E+04  0.00000000000E+00 0.  1.
    9000005    2    1    2  501    0  0.43687688867E+02  0.47240982014E+00 -0.56492006735E+03  0.56662034045E+03  0.38846346854E+01 0.  0.
         13    1    3    3    0    0  0.24490860245E+02  0.19555462709E+01 -0.30468380776E+03  0.30567278111E+03  0.00000000000E+00 0.  1.
          3    1    3    3  501    0  0.19196828622E+02 -0.14831364507E+01 -0.26023625959E+03  0.26094755935E+03  0.00000000000E+00 0.  1.
         -1    1    1    2    0  502 -0.43687688867E+02 -0.47240982014E+00 -0.43313081731E+03  0.43532877488E+03  0.00000000000E+00 0. -1.
<mgrwt>
<rscale>  1 0.30000000E+03</rscale>
<asrwt>0</asrwt>
<pdfrwt beam="1">  1       21 0.70877071E-02 0.30000000E+03</pdfrwt>
<pdfrwt beam="2">0</pdfrwt>
<totfact> 0.15789219E+04</totfact>
</mgrwt>
</event>
<event>
 6    1  0.1274196E-001  0.3000000E+03  0.7818608E-02  0.1093470E+00
         21   -1    0    0  501  502  0.00000000000E+00  0.00000000000E+00  0.10743139456E+01  0.10743139456E+01  0.00000000000E+00 0. -1.
         13   -1    0    0    0    0 -0.00000000000E+00 -0.00000000000E+00 -0.10000000000E+04  0.10000000000E+04  0.00000000000E+00 0.  1.
    9000005    2    1    2  501    0  0.23612171053E+02 -0.21294281278E+02 -0.57117847112E+03  0.57214697637E+03  0.98150730734E+01 0.  0.
         13    1    3    3    0    0  0.17346325895E+02 -0.14406432858E+02 -0.31860276888E+03  0.31939969422E+03  0.00000000000E+00 0.  1.
          3    1    3    3  501    0  0.62658451587E+01 -0.68878484199E+01 -0.25257570224E+03  0.25274728214E+03  0.00000000000E+00 0.  1.
         -1    1    1    2    0  502 -0.23612171053E+02  0.21294281278E+02 -0.42774721494E+03  0.42892733758E+03  0.00000000000E+00 0. -1.
<mgrwt>
<rscale>  1 0.30000000E+03</rscale>
<asrwt>0</asrwt>
<pdfrwt beam="1">  1       21 0.39066044E-02 0.30000000E+03</pdfrwt>
<pdfrwt beam="2">0</pdfrwt>
<totfact> 0.43752967E+04</totfact>
</mgrwt>
</event>
<event>
 6    1  0.1274196E-001  0.3000000E+03  0.7818608E-02  0.1093470E+00
         21   -1    0    0  501  502  0.00000000000E+00  0.00000000000E+00  0.11216708542E+01  0.11216708542E+01  0.00000000000E+00 0. -1.
         13   -1    0    0    0    0 -0.00000000000E+00 -0.00000000000E+00 -0.10000000000E+04  0.10000000000E+04  0.00000000000E+00 0.  1.
    9000005    2    1    2  501    0 -0.14985638369E+02  0.28980146755E+02 -0.39924920904E+03  0.40060564281E+03  0.45312102205E+01 0.  0.
         13    1    3    3    0    0 -0.73905797975E+01  0.13407784150E+02 -0.16046340064E+03  0.16119209748E+03  0.00000000000E+00 0.  1.
          1    1    3    3  501    0 -0.75950585719E+01  0.15572362606E+02 -0.23878580840E+03  0.23941354533E+03  0.00000000000E+00 0.  1.
         -1    1    1    2    0  502  0.14985638369E+02 -0.28980146755E+02 -0.59962912010E+03  0.60051602804E+03  0.00000000000E+00 0. -1.
<mgrwt>
<rscale>  1 0.30000000E+03</rscale>
<asrwt>0</asrwt>
<pdfrwt beam="1">  1       21 0.40788117E-02 0.30000000E+03</pdfrwt>
<pdfrwt beam="2">0</pdfrwt>
<totfact> 0.40687519E+04</totfact>
</mgrwt>
</event>
<event>
 6    1  0.1274196E-001  0.3000000E+03  0.7818608E-02  0.1093470E+00
         21   -1    0    0  501  502  0.00000000000E+00  0.00000000000E+00  0.26926117853E+01  0.26926117853E+01  0.00000000000E+00 0. -1.
         13   -1    0    0    0    0 -0.00000000000E+00 -0.00000000000E+00 -0.10000000000E+04  0.10000000000E+04  0.00000000000E+00 0.  1.
    9000005    2    1    2  501    0 -0.30901329505E+02 -0.29634571445E+02 -0.78152386778E+03  0.78270254910E+03  0.32595191107E+01 0.  0.
         13    1    3    3    0    0 -0.12610918761E+02 -0.13542985239E+02 -0.35997849059E+03  0.36045382702E+03  0.00000000000E+00 0.  1.
          3    1    3    3  501    0 -0.18290410744E+02 -0.16091586206E+02 -0.42154537719E+03  0.42224872208E+03  0.00000000000E+00 0.  1.
         -1    1    1    2    0  502  0.30901329505E+02  0.29634571445E+02 -0.21578352043E+03  0.21999006269E+03  0.00000000000E+00 0. -1.
<mgrwt>
<rscale>  1 0.30000000E+03</rscale>
<asrwt>0</asrwt>
<pdfrwt beam="1">  1       21 0.97913362E-02 0.30000000E+03</pdfrwt>
<pdfrwt beam="2">0</pdfrwt>
<totfact> 0.89333393E+03</totfact>
</mgrwt>
</event>
<event>
 6    1  0.1274196E-001  0.3000000E+03  0.7818608E-02  0.1093470E+00
         21   -1    0    0  501  502  0.00000000000E+00  0.00000000000E+00  0.32817258013E+01  0.32817258013E+01  0.00000000000E+00 0. -1.
         13   -1    0    0    0    0 -0.00000000000E+00 -0.00000000000E+00 -0.10000000000E+04  0.10000000000E+04  0.00000000000E+00 0.  1.
    9000005    2    1    2  501    0  0.86184135080E+01 -0.38696200392E+02 -0.86025117127E+03  0.86117281279E+03  0.38552350020E+01 0.  0.
         13    1    3    3    0    0  0.67028047353E+01 -0.21865309985E+02 -0.47992152405E+03  0.48046611599E+03  0.00000000000E+00 0.  1.
          3    1    3    3  501    0  0.19156087727E+01 -0.16830890407E+02 -0.38032964723E+03  0.38070669680E+03  0.00000000000E+00 0.  1.
         -1    1    1    2    0  502 -0.86184135080E+01  0.38696200392E+02 -0.13646710293E+03  0.14210891301E+03  0.00000000000E+00 0. -1.
<mgrwt>
<rscale>  1 0.30000000E+03</rscale>
<asrwt>0</asrwt>
<pdfrwt beam="1">  1       21 0.11933574E-01 0.30000000E+03</pdfrwt>
<pdfrwt beam="2">0</pdfrwt>
<totfact> 0.62598479E+03</totfact>
</mgrwt>
</event>
<event>
 6    1  0.1274196E-001  0.3000000E+03  0.7818608E-02  0.1093470E+00
         21   -1    0    0  501  502  0.00000000000E+00  0.00000000000E+00  0.21558804033E+01  0.21558804033E+01  0.00000000000E+00 0. -1.
         13   -1    0    0    0    0 -0.00000000000E+00 -0.00000000000E+00 -0.10000000000E+04  0.10000000000E+04  0.00000000000E+00 0.  1.
    9000005    2    1    2  501    0 -0.40991864829E+02  0.20948175769E+02 -0.46515792317E+03  0.46748425883E+03  0.71049079943E+01 0.  0.
         13    1    3    3    0    0 -0.12613557854E+02  0.99661443679E+01 -0.17360415213E+03  0.17434685977E+03  0.00000000000E+00 0.  1.
          3    1    3    3  501    0 -0.28378306975E+02  0.10982031401E+02 -0.29155377104E+03  0.29313739906E+03  0.00000000000E+00 0.  1.
         -3    1    1    2    0  502  0.40991864829E+02 -0.20948175769E+02 -0.53268619643E+03  0.53467162157E+03  0.00000000000E+00 0. -1.
<mgrwt>
<rscale>  1 0.30000000E+03</rscale>
<asrwt>0</asrwt>
<pdfrwt beam="1">  1       21 0.78395816E-02 0.30000000E+03</pdfrwt>
<pdfrwt beam="2">0</pdfrwt>
<totfact> 0.13236268E+04</totfact>
</mgrwt>
</event>
<event>
 6    1  0.1274196E-001  0.3000000E+03  0.7818608E-02  0.1093470E+00
         21   -1    0    0  501  502  0.00000000000E+00  0.00000000000E+00  0.16235536607E+01  0.16235536607E+01  0.00000000000E+00 0. -1.
         13   -1    0    0    0    0 -0.00000000000E+00 -0.00000000000E+00 -0.10000000000E+04  0.10000000000E+04  0.00000000000E+00 0.  1.
    9000005    2    1    2  501    0 -0.18481665134E+02 -0.25739049198E+02 -0.80805465784E+03  0.80868197240E+03  0.31830545840E+01 0.  0.
         13    1    3    3    0    0 -0.63042939138E+01 -0.87313688576E+01 -0.23762396199E+03  0.23786787979E+03  0.00000000000E+00 0.  1.
          1    1    3    3  501    0 -0.12177371220E+02 -0.17007680341E+02 -0.57043069584E+03  0.57081409261E+03  0.00000000000E+00 0.  1.
         -3    1    1    2    0  502  0.18481665134E+02  0.25739049198E+02 -0.19032178850E+03  0.19294158126E+03  0.00000000000E+00 0. -1.
<mgrwt>
<rscale>  1 0.30000000E+03</rscale>
<asrwt>0</asrwt>
<pdfrwt beam="1">  1       21 0.59038439E-02 0.30000000E+03</pdfrwt>
<pdfrwt beam="2">0</pdfrwt>
<totfact> 0.21666853E+04</totfact>
</mgrwt>
</event>
<event>
 6    1  0.1274196E-001  0.3000000E+03  0.7818608E-02  0.1093470E+00
         21   -1    0    0  501  502  0.00000000000E+00  0.00000000000E+00  0.17095626123E+01  0.17095626123E+01  0.00000000000E+00 0. -1.
         13   -1    0    0    0    0 -0.00000000000E+00 -0.00000000000E+00 -0.10000000000E+04  0.10000000000E+04  0.00000000000E+00 0.  1.
    9000005    2    1    2  501    0  0.30791498121E+02  0.18907405412E+02 -0.74169830027E+03  0.74258578685E+03  0.34169970181E+01 0.  0.
         13    1    3    3    0    0  0.24666028712E+02  0.14096324571E+02 -0.60315429199E+03  0.60382300328E+03  0.00000000000E+00 0.  1.
          3    1    3    3  501    0  0.61254694094E+01  0.48110808405E+01 -0.13854400828E+03  0.13876278357E+03  0.00000000000E+00 0.  1.
         -3    1    1    2    0  502 -0.30791498121E+02 -0.18907405412E+02 -0.25659213712E+03  0.25912377576E+03  0.00000000000E+00 0. -1.
<mgrwt>
<rscale>  1 0.30000000E+03</rscale>
<asrwt>0</asrwt>
<pdfrwt beam="1">  1       21 0.62166044E-02 0.30000000E+03</pdfrwt>
<pdfrwt beam="2">0</pdfrwt>
<totfact> 0.19820568E+04</totfact>
</mgrwt>
</event>
<event>
 6    1  0.1274196E-001  0.3000000E+03  0.7818608E-02  0.1093470E+00
         21   -1    0    0  501  502  0.00000000000E+00  0.00000000000E+00  0.10613857181E+01  0.10613857181E+01  0.00000000000E+00 0. -1.
         13   -1    0    0    0    0 -0.00000000000E+00 -0.00000000000E+00 -0.10000000000E+04  0.10000000000E+04  0.00000000000E+00 0.  1.
    9000005    2    1    2  501    0 -0.50267834791E+01 -0.31145652719E+02 -0.61408620125E+03  0.61491801849E+03  0.51948692359E+01 0.  0.
         13    1    3    3    0    0 -0.86393324160E+00 -0.89992451157E+00 -0.41169153558E+02  0.41188049838E+02  0.00000000000E+00 0.  1.
          3    1    3    3  501    0 -0.41628502375E+01 -0.30245728207E+02 -0.57291704769E+03  0.57372996865E+03  0.00000000000E+00 0.  1.
         -1    1    1    2    0  502  0.50267834791E+01  0.31145652719E+02 -0.38485241304E+03  0.38614336723E+03  0.00000000000E+00 0. -1.
<mgrwt>
<rscale>  1 0.30000000E+03</rscale>
<asrwt>0</asrwt>
<pdfrwt beam="1">  1       21 0.38595926E-02 0.30000000E+03</pdfrwt>
<pdfrwt beam="2">0</pdfrwt>
<totfact> 0.44652903E+04</totfact>
</mgrwt>
</event>
<event>
 6    1  0.1274196E-001  0.3000000E+03  0.7818608E-02  0.1093470E+00
         21   -1    0    0  501  502  0.00000000000E+00  0.00000000000E+00  0.31183647330E+01  0.31183647330E+01  0.00000000000E+00 0. -1.
         13   -1    0    0    0    0 -0.00000000000E+00 -0.00000000000E+00 -0.10000000000E+04  0.10000000000E+04  0.00000000000E+00 0.  1.
    9000005    2    1    2  501    0 -0.32534663044E+02 -0.25795937323E+01 -0.90531994326E+03  0.90591393044E+03  0.32697241548E+01 0.  0.
         13    1    3    3    0    0 -0.17344653863E+02  0.15557261072E+00 -0.49500165341E+03  0.49530545939E+03  0.00000000000E+00 0.  1.
          1    1    3    3  501    0 -0.15190009181E+02 -0.27351663430E+01 -0.41031828985E+03  0.41060847106E+03  0.00000000000E+00 0.  1.
         -1    1    1    2    0  502  0.32534663044E+02  0.25795937323E+01 -0.91561692005E+02  0.97204434292E+02  0.00000000000E+00 0. -1.
<mgrwt>
<rscale>  1 0.30000000E+03</rscale>
<asrwt>0</asrwt>
<pdfrwt beam="1">  1       21 0.11339532E-01 0.30000000E+03</pdfrwt>
<pdfrwt beam="2">0</pdfrwt>
<totfact> 0.68655305E+03</totfact>
</mgrwt>
</event>
<event>
 6    1  0.1274196E-001  0.3000000E+03  0.7818608E-02  0.1093470E+00
         21   -1    0    0  501  502  0.00000000000E+00  0.00000000000E+00  0.99145245456E+01  0.99145245456E+01  0.00000000000E+00 0. -1.
         13   -1    0    0    0    0 -0.00000000000E+00 -0.00000000000E+00 -0.10000000000E+04  0.10000000000E+04  0.00000000000E+00 0.  1.
    9000005    2    1    2  501    0 -0.82076474298E+02 -0.27357498382E+02 -0.74485373981E+03  0.74986917365E+03  0.34210441731E+01 0.  0.
         13    1    3    3    0    0 -0.47451650377E+02 -0.15901887805E+02 -0.41615653208E+03  0.41915485009E+03  0.00000000000E+00 0.  1.
          3    1    3    3  501    0 -0.34624823921E+02 -0.11455610577E+02 -0.32869720772E+03  0.33071432356E+03  0.00000000000E+00 0.  1.
         -3    1    1    2    0  502  0.82076474298E+02  0.27357498382E+02 -0.24523173565E+03  0.26004535089E+03  0.00000000000E+00 0. -1.
<mgrwt>
<rscale>  1 0.30000000E+03</rscale>
<asrwt>0</asrwt>
<pdfrwt beam="1">  1       21 0.36052893E-01 0.30000000E+03</pdfrwt>
<pdfrwt beam="2">0</pdfrwt>
<totfact> 0.74889796E+02</totfact>
</mgrwt>
</event>
<event>
 6    1  0.1274196E-001  0.3000000E+03  0.7818608E-02  0.1093470E+00
         21   -1    0    0  501  502  0.00000000000E+00  0.00000000000E+00  0.22297129986E+01  0.22297129986E+01  0.00000000000E+00 0. -1.
         13   -1    0    0    0    0 -0.00000000000E+00 -0.00000000000E+00 -0.10000000000E+04  0.10000000000E+04  0.00000000000E+00 0.  1.
    9000005    2    1    2  501    0 -0.29852800185E+02  0.33232501628E+02 -0.66001205910E+03  0.66153012486E+03  0.32556251898E+01 0.  0.
         13    1    3    3    0    0 -0.25774512219E+02  0.30203697274E+02 -0.58798684748E+03  0.58932598926E+03  0.00000000000E+00 0.  1.
          1    1    3    3  501    0 -0.40782879664E+01  0.30288043547E+01 -0.72025211620E+02  0.72204135598E+02  0.00000000000E+00 0.  1.
         -3    1    1    2    0  502  0.29852800185E+02 -0.33232501628E+02 -0.33775822790E+03  0.34069958814E+03  0.00000000000E+00 0. -1.
<mgrwt>
<rscale>  1 0.30000000E+03</rscale>
<asrwt>0</asrwt>
<pdfrwt beam="1">  1       21 0.81080644E-02 0.30000000E+03</pdfrwt>
<pdfrwt beam="2">0</pdfrwt>
<totfact> 0.12476226E+04</totfact>
</mgrwt>
</event>
<event>
 6    1  0.1274196E-001  0.3000000E+03  0.7818608E-02  0.1093470E+00
         21   -1    0    0  501  502  0.00000000000E+00  0.00000000000E+00  0.18597459833E+01  0.18597459833E+01  0.00000000000E+00 0. -1.
         13   -1    0    0    0    0 -0.00000000000E+00 -0.00000000000E+00 -0.10000000000E+04  0.10000000000E+04  0.00000000000E+00 0.  1.
    9000005    2    1    2  501    0 -0.36769475422E+02  0.20403566376E+02 -0.39354967371E+03  0.39580853557E+03  0.38407436647E+01 0.  0.
         13    1    3    3    0    0 -0.21493875175E+02  0.13985203423E+02 -0.24398385667E+03  0.24532772958E+03  0.00000000000E+00 0.  1.
          1    1    3    3  501    0 -0.15275600247E+02  0.64183629532E+01 -0.14956581704E+03  0.15048080599E+03  0.00000000000E+00 0.  1.
         -1    1    1    2    0  502  0.36769475422E+02 -0.20403566376E+02 -0.60459058031E+03  0.60605121041E+03  0.00000000000E+00 0. -1.
<mgrwt>
<rscale>  1 0.30000000E+03</rscale>
<asrwt>0</asrwt>
<pdfrwt beam="1">  1       21 0.67627269E-02 0.30000000E+03</pdfrwt>
<pdfrwt beam="2">0</pdfrwt>
<totfact> 0.17131901E+04</totfact>
</mgrwt>
</event>
<event>
 6    1  0.1274196E-001  0.3000000E+03  0.7818608E-02  0.1093470E+00
         21   -1    0    0  501  502  0.00000000000E+00  0.00000000000E+00  0.24189458262E+02  0.24189458262E+02  0.00000000000E+00 0. -1.
         13   -1    0    0    0    0 -0.00000000000E+00 -0.00000000000E+00 -0.10000000000E+04  0.10000000000E+04  0.00000000000E+00 0.  1.
    9000005    2    1    2  501    0 -0.36227471058E+02  0.96037437645E+01 -0.98490448289E+03  0.98562313462E+03  0.33854871345E+01 0.  0.
         13    1    3    3    0    0 -0.52361852917E+01  0.22834406005E+01 -0.12880685759E+03  0.12893346462E+03  0.00000000000E+00 0.  1.
          3    1    3    3  501    0 -0.30991285767E+02  0.73203031640E+01 -0.85609762530E+03  0.85668967000E+03  0.00000000000E+00 0.  1.
         -1    1    1    2    0  502  0.36227471058E+02 -0.96037437645E+01  0.90939411537E+01  0.38566323642E+02  0.00000000000E+00 0. -1.
<mgrwt>
<rscale>  1 0.30000000E+03</rscale>
<asrwt>0</asrwt>
<pdfrwt beam="1">  1       21 0.87961852E-01 0.30000000E+03</pdfrwt>
<pdfrwt beam="2">0</pdfrwt>
<totfact> 0.10192891E+02</totfact>
</mgrwt>
</event>
<event>
 6    1  0.1274196E-001  0.3000000E+03  0.7818608E-02  0.1093470E+00
         21   -1    0    0  501  502  0.00000000000E+00  0.00000000000E+00  0.15073463230E+01  0.15073463230E+01  0.00000000000E+00 0. -1.
         13   -1    0    0    0    0 -0.00000000000E+00 -0.00000000000E+00 -0.10000000000E+04  0.10000000000E+04  0.00000000000E+00 0.  1.
    9000005    2    1    2  501    0  0.69471827482E+01 -0.33573137507E+02 -0.73334797471E+03  0.73415529435E+03  0.30537352507E+01 0.  0.
         13    1    3    3    0    0  0.50237595684E+01 -0.22634217422E+02 -0.52451918689E+03  0.52503135465E+03  0.00000000000E+00 0.  1.
          3    1    3    3  501    0  0.19234231798E+01 -0.10938920085E+02 -0.20882878782E+03  0.20912393970E+03  0.00000000000E+00 0.  1.
         -1    1    1    2    0  502 -0.69471827482E+01  0.33573137507E+02 -0.26514467897E+03  0.26735205197E+03  0.00000000000E+00 0. -1.
<mgrwt>
<rscale>  1 0.30000000E+03</rscale>
<asrwt>0</asrwt>
<pdfrwt beam="1">  1       21 0.54812709E-02 0.30000000E+03</pdfrwt>
<pdfrwt beam="2">0</pdfrwt>
<totfact> 0.24617698E+04</totfact>
</mgrwt>
</event>
<event>
 6    1  0.1274196E-001  0.3000000E+03  0.7818608E-02  0.1093470E+00
         21   -1    0    0  501  502  0.00000000000E+00  0.00000000000E+00  0.10968620934E+01  0.10968620934E+01  0.00000000000E+00 0. -1.
         13   -1    0    0    0    0 -0.00000000000E+00 -0.00000000000E+00 -0.10000000000E+04  0.10000000000E+04  0.00000000000E+00 0.  1.
    9000005    2    1    2  501    0  0.27901068778E+02  0.16517595843E+02 -0.59078997803E+03  0.59169772692E+03  0.47012016907E+01 0.  0.
         13    1    3    3    0    0  0.42847175010E+01  0.44212540505E+01 -0.12742427933E+03  0.12757293308E+03  0.00000000000E+00 0.  1.
          3    1    3    3  501    0  0.23616351277E+02  0.12096341792E+02 -0.46336569870E+03  0.46412479384E+03  0.00000000000E+00 0.  1.
         -3    1    1    2    0  502 -0.27901068778E+02 -0.16517595843E+02 -0.40811315988E+03  0.40939913517E+03  0.00000000000E+00 0. -1.
<mgrwt>
<rscale>  1 0.30000000E+03</rscale>
<asrwt>0</asrwt>
<pdfrwt beam="1">  1       21 0.39885978E-02 0.30000000E+03</pdfrwt>
<pdfrwt beam="2">0</pdfrwt>
<totfact> 0.42249928E+04</totfact>
</mgrwt>
</event>
<event>
 6    1  0.1274196E-001  0.3000000E+03  0.7818608E-02  0.1093470E+00
         21   -1    0    0  501  502  0.00000000000E+00  0.00000000000E+00  0.26143972861E+01  0.26143972861E+01  0.00000000000E+00 0. -1.
         13   -1    0    0    0    0 -0.00000000000E+00 -0.00000000000E+00 -0.10000000000E+04  0.10000000000E+04  0.00000000000E+00 0.  1.
    9000005    2    1    2  501    0  0.32832864727E+02  0.22768418050E+01 -0.88211798311E+03  0.88274027521E+03  0.38828255541E+01 0.  0.
         13    1    3    3    0    0  0.12616793451E+02  0.18308598512E+00 -0.29229844034E+03  0.29257066705E+03  0.00000000000E+00 0.  1.
          3    1    3    3  501    0  0.20216071275E+02  0.20937558199E+01 -0.58981954277E+03  0.59016960815E+03  0.00000000000E+00 0.  1.
         -1    1    1    2    0  502 -0.32832864727E+02 -0.22768418050E+01 -0.11526761960E+03  0.11987412208E+03  0.00000000000E+00 0. -1.
<mgrwt>
<rscale>  1 0.30000000E+03</rscale>
<asrwt>0</asrwt>
<pdfrwt beam="1">  1       21 0.95069193E-02 0.30000000E+03</pdfrwt>
<pdfrwt beam="2">0</pdfrwt>
<totfact> 0.94155038E+03</totfact>
</mgrwt>
</event>
<event>
 6    1  0.1274196E-001  0.3000000E+03  0.7818608E-02  0.1093470E+00
         21   -1    0    0  501  502  0.00000000000E+00  0.00000000000E+00  0.23214716484E+01  0.23214716484E+01  0.00000000000E+00 0. -1.
         13   -1    0    0    0    0 -0.00000000000E+00 -0.00000000000E+00 -0.10000000000E+04  0.10000000000E+04  0.00000000000E+00 0.  1.
    9000005    2    1    2  501    0  0.33611807293E+02  0.17524610461E+02 -0.80786189933E+03  0.80875696505E+03  0.31803407885E+01 0.  0.
         13    1    3    3    0    0  0.31974688623E+02  0.17350823044E+02 -0.76816302238E+03  0.76902396628E+03  0.00000000000E+00 0.  1.
          1    1    3    3  501    0  0.16371186697E+01  0.17378741653E+00 -0.39698876956E+02  0.39732998769E+02  0.00000000000E+00 0.  1.
         -3    1    1    2    0  502 -0.33611807293E+02 -0.17524610461E+02 -0.18981662902E+03  0.19356450660E+03  0.00000000000E+00 0. -1.
<mgrwt>
<rscale>  1 0.30000000E+03</rscale>
<asrwt>0</asrwt>
<pdfrwt beam="1">  1       21 0.84417329E-02 0.30000000E+03</pdfrwt>
<pdfrwt beam="2">0</pdfrwt>
<totfact> 0.11621336E+04</totfact>
</mgrwt>
</event>
<event>
 6    1  0.1274196E-001  0.3000000E+03  0.7818608E-02  0.1093470E+00
         21   -1    0    0  501  502  0.00000000000E+00  0.00000000000E+00  0.28378299764E+01  0.28378299764E+01  0.00000000000E+00 0. -1.
         13   -1    0    0    0    0 -0.00000000000E+00 -0.00000000000E+00 -0.10000000000E+04  0.10000000000E+04  0.00000000000E+00 0.  1.
    9000005    2    1    2  501    0 -0.26703993977E+02  0.17025785487E+02 -0.90166437568E+03  0.90222565680E+03  0.30836278857E+01 0.  0.
         13    1    3    3    0    0 -0.84335822548E+01  0.70970630331E+01 -0.30622096388E+03  0.30641927539E+03  0.00000000000E+00 0.  1.
          1    1    3    3  501    0 -0.18270411722E+02  0.99287224540E+01 -0.59544341180E+03  0.59580638141E+03  0.00000000000E+00 0.  1.
         -1    1    1    2    0  502  0.26703993977E+02 -0.17025785487E+02 -0.95497794344E+02  0.10061217317E+03  0.00000000000E+00 0. -1.
<mgrwt>
<rscale>  1 0.30000000E+03</rscale>
<asrwt>0</asrwt>
<pdfrwt beam="1">  1       21 0.10319403E-01 0.30000000E+03</pdfrwt>
<pdfrwt beam="2">0</pdfrwt>
<totfact> 0.81327528E+03</totfact>
</mgrwt>
</event>
<event>
 6    1  0.1274196E-001  0.3000000E+03  0.7818608E-02  0.1093470E+00
         21   -1    0    0  501  502  0.00000000000E+00  0.00000000000E+00  0.16250819957E+01  0.16250819957E+01  0.00000000000E+00 0. -1.
         13   -1    0    0    0    0 -0.00000000000E+00 -0.00000000000E+00 -0.10000000000E+04  0.10000000000E+04  0.00000000000E+00 0.  1.
    9000005    2    1    2  501    0  0.35532813733E+02 -0.13805764926E+02 -0.65992333219E+03  0.66103345565E+03  0.36393848378E+01 0.  0.
         13    1    3    3    0    0  0.13418639618E+02 -0.33413971669E+01 -0.23985635620E+03  0.24025464914E+03  0.00000000000E+00 0.  1.
          3    1    3    3  501    0  0.22114174115E+02 -0.10464367759E+02 -0.42006697599E+03  0.42077880651E+03  0.00000000000E+00 0.  1.
         -3    1    1    2    0  502 -0.35532813733E+02  0.13805764926E+02 -0.33845158582E+03  0.34059162635E+03  0.00000000000E+00 0. -1.
<mgrwt>
<rscale>  1 0.30000000E+03</rscale>
<asrwt>0</asrwt>
<pdfrwt beam="1">  1       21 0.59094015E-02 0.30000000E+03</pdfrwt>
<pdfrwt beam="2">0</pdfrwt>
<totfact> 0.21631743E+04</totfact>
</mgrwt>
</event>
<event>
 6    1  0.1274196E-001  0.3000000E+03  0.7818608E-02  0.1093470E+00
         21   -1    0    0  501  502  0.00000000000E+00  0.00000000000E+00  0.24214071976E+01  0.24214071976E+01  0.00000000000E+00 0. -1.
         13   -1    0    0    0    0 -0.00000000000E+00 -0.00000000000E+00 -0.10000000000E+04  0.10000000000E+04  0.00000000000E+00 0.  1.
    9000005    2    1    2  501    0  0.23050203895E+02  0.38307028485E+02 -0.29122695102E+03  0.29465634577E+03  0.32380195258E+01 0.  0.
         13    1    3    3    0    0  0.40224921316E+01  0.45429835067E+01 -0.39530580440E+02  0.39993573634E+02  0.00000000000E+00 0.  1.
          3    1    3    3  501    0  0.19027711763E+02  0.33764044978E+02 -0.25169637058E+03  0.25466277214E+03  0.00000000000E+00 0.  1.
         -1    1    1    2    0  502 -0.23050203895E+02 -0.38307028485E+02 -0.70635164178E+03  0.70776506143E+03  0.00000000000E+00 0. -1.
<mgrwt>
<rscale>  1 0.30000000E+03</rscale>
<asrwt>0</asrwt>
<pdfrwt beam="1">  1       21 0.88051356E-02 0.30000000E+03</pdfrwt>
<pdfrwt beam="2">0</pdfrwt>
<totfact> 0.10788057E+04</totfact>
</mgrwt>
</event>
<event>
 6    1  0.1274196E-001  0.3000000E+03  0.7818608E-02  0.1093470E+00
         21   -1    0    0  501  502  0.00000000000E+00  0.00000000000E+00  0.14027850421E+01  0.14027850421E+01  0.00000000000E+00 0. -1.
         13   -1    0    0    0    0 -0.00000000000E+00 -0.00000000000E+00 -0.10000000000E+04  0.10000000000E+04  0.00000000000E+00 0.  1.
    9000005    2    1    2  501    0 -0.35303064773E+02 -0.11302583087E+02 -0.53524163699E+03  0.53656685012E+03  0.68058729376E+01 0.  0.
         13    1    3    3    0    0 -0.31731972010E+01 -0.26307862163E+01 -0.41230531027E+02  0.41436058033E+02  0.00000000000E+00 0.  1.
          1    1    3    3  501    0 -0.32129867572E+02 -0.86717968706E+01 -0.49401110597E+03  0.49513079208E+03  0.00000000000E+00 0.  1.
         -1    1    1    2    0  502  0.35303064773E+02  0.11302583087E+02 -0.46335557796E+03  0.46483593493E+03  0.00000000000E+00 0. -1.
<mgrwt>
<rscale>  1 0.30000000E+03</rscale>
<asrwt>0</asrwt>
<pdfrwt beam="1">  1       21 0.51010473E-02 0.30000000E+03</pdfrwt>
<pdfrwt beam="2">0</pdfrwt>
<totfact> 0.27838268E+04</totfact>
</mgrwt>
</event>
<event>
 6    1  0.1274196E-001  0.3000000E+03  0.7818608E-02  0.1093470E+00
         21   -1    0    0  501  502  0.00000000000E+00  0.00000000000E+00  0.46986227615E+01  0.46986227615E+01  0.00000000000E+00 0. -1.
         13   -1    0    0    0    0 -0.00000000000E+00 -0.00000000000E+00 -0.10000000000E+04  0.10000000000E+04  0.00000000000E+00 0.  1.
    9000005    2    1    2  501    0 -0.47103243158E+02 -0.47389449503E+02 -0.60870447478E+03  0.61237013740E+03  0.34017810853E+01 0.  0.
         13    1    3    3    0    0 -0.71247685447E+01 -0.57406293932E+01 -0.77990759419E+02  0.78525637262E+02  0.00000000000E+00 0.  1.
          1    1    3    3  501    0 -0.39978474614E+02 -0.41648820110E+02 -0.53071371536E+03  0.53384450013E+03  0.00000000000E+00 0.  1.
         -3    1    1    2    0  502  0.47103243158E+02  0.47389449503E+02 -0.38659690246E+03  0.39232848537E+03  0.00000000000E+00 0. -1.
<mgrwt>
<rscale>  1 0.30000000E+03</rscale>
<asrwt>0</asrwt>
<pdfrwt beam="1">  1       21 0.17085937E-01 0.30000000E+03</pdfrwt>
<pdfrwt beam="2">0</pdfrwt>
<totfact> 0.32308568E+03</totfact>
</mgrwt>
</event>
<event>
 6    1  0.1274196E-001  0.3000000E+03  0.7818608E-02  0.1093470E+00
         21   -1    0    0  501  502  0.00000000000E+00  0.00000000000E+00  0.12360306356E+01  0.12360306356E+01  0.00000000000E+00 0. -1.
         13   -1    0    0    0    0 -0.00000000000E+00 -0.00000000000E+00 -0.10000000000E+04  0.10000000000E+04  0.00000000000E+00 0.  1.
    9000005    2    1    2  501    0  0.33035120863E+02 -0.85096184393E+01 -0.61737239920E+03  0.61832185930E+03  0.30837605055E+01 0.  0.
         13    1    3    3    0    0  0.35154897917E+01 -0.18815596260E+01 -0.76997008025E+02  0.77100182749E+02  0.00000000000E+00 0.  1.
          1    1    3    3  501    0  0.29519631072E+02 -0.66280588133E+01 -0.54037539118E+03  0.54122167656E+03  0.00000000000E+00 0.  1.
         -1    1    1    2    0  502 -0.33035120863E+02  0.85096184393E+01 -0.38139157016E+03  0.38291417133E+03  0.00000000000E+00 0. -1.
<mgrwt>
<rscale>  1 0.30000000E+03</rscale>
<asrwt>0</asrwt>
<pdfrwt beam="1">  1       21 0.44946663E-02 0.30000000E+03</pdfrwt>
<pdfrwt beam="2">0</pdfrwt>
<totfact> 0.34527601E+04</totfact>
</mgrwt>
</event>
<event>
 6    1  0.1274196E-001  0.3000000E+03  0.7818608E-02  0.1093470E+00
         21   -1    0    0  501  502  0.00000000000E+00  0.00000000000E+00  0.12461677080E+01  0.12461677080E+01  0.00000000000E+00 0. -1.
         13   -1    0    0    0    0 -0.00000000000E+00 -0.00000000000E+00 -0.10000000000E+04  0.10000000000E+04  0.00000000000E+00 0.  1.
    9000005    2    1    2  501    0 -0.79096844311E+01  0.32748811186E+02 -0.64649550492E+03  0.64738040652E+03  0.31472393562E+01 0.  0.
         13    1    3    3    0    0 -0.21550032386E+01  0.70555967235E+01 -0.11940682988E+03  0.11963451219E+03  0.00000000000E+00 0.  1.
          1    1    3    3  501    0 -0.57546811925E+01  0.25693214462E+02 -0.52708867504E+03  0.52774589433E+03  0.00000000000E+00 0.  1.
         -3    1    1    2    0  502  0.79096844311E+01 -0.32748811186E+02 -0.35225832737E+03  0.35386576119E+03  0.00000000000E+00 0. -1.
<mgrwt>
<rscale>  1 0.30000000E+03</rscale>
<asrwt>0</asrwt>
<pdfrwt beam="1">  1       21 0.45315285E-02 0.30000000E+03</pdfrwt>
<pdfrwt beam="2">0</pdfrwt>
<totfact> 0.34052236E+04</totfact>
</mgrwt>
</event>
<event>
 6    1  0.1274196E-001  0.3000000E+03  0.7818608E-02  0.1093470E+00
         21   -1    0    0  501  502  0.00000000000E+00  0.00000000000E+00  0.14055691814E+01  0.14055691814E+01  0.00000000000E+00 0. -1.
         13   -1    0    0    0    0 -0.00000000000E+00 -0.00000000000E+00 -0.10000000000E+04  0.10000000000E+04  0.00000000000E+00 0.  1.
    9000005    2    1    2  501    0 -0.28398997178E+02  0.23905707253E+02 -0.56224484667E+03  0.56347983864E+03  0.35035798112E+01 0.  0.
         13    1    3    3    0    0 -0.28148781828E+02  0.23075508929E+02 -0.54600568901E+03  0.54721754857E+03  0.00000000000E+00 0.  1.
          1    1    3    3  501    0 -0.25021535052E+00  0.83019832403E+00 -0.16239157653E+02  0.16262290068E+02  0.00000000000E+00 0.  1.
         -3    1    1    2    0  502  0.28398997178E+02 -0.23905707253E+02 -0.43634958415E+03  0.43792573054E+03  0.00000000000E+00 0. -1.
<mgrwt>
<rscale>  1 0.30000000E+03</rscale>
<asrwt>0</asrwt>
<pdfrwt beam="1">  1       21 0.51111714E-02 0.30000000E+03</pdfrwt>
<pdfrwt beam="2">0</pdfrwt>
<totfact> 0.27744230E+04</totfact>
</mgrwt>
</event>
<event>
 6    1  0.1274196E-001  0.3000000E+03  0.7818608E-02  0.1093470E+00
         21   -1    0    0  501  502  0.00000000000E+00  0.00000000000E+00  0.10252408329E+01  0.10252408329E+01  0.00000000000E+00 0. -1.
         13   -1    0    0    0    0 -0.00000000000E+00 -0.00000000000E+00 -0.10000000000E+04  0.10000000000E+04  0.00000000000E+00 0.  1.
    9000005    2    1    2  501    0 -0.79864741968E+01 -0.30517962175E+02 -0.57889234341E+03  0.57976004429E+03  0.31990494454E+01 0.  0.
         13    1    3    3    0    0 -0.54613694023E+01 -0.17566867174E+02 -0.36121934838E+03  0.36168748806E+03  0.00000000000E+00 0.  1.
          3    1    3    3  501    0 -0.25251047945E+01 -0.12951095001E+02 -0.21767299503E+03  0.21807255623E+03  0.00000000000E+00 0.  1.
         -1    1    1    2    0  502  0.79864741968E+01  0.30517962175E+02 -0.42008241576E+03  0.42126519654E+03  0.00000000000E+00 0. -1.
<mgrwt>
<rscale>  1 0.30000000E+03</rscale>
<asrwt>0</asrwt>
<pdfrwt beam="1">  1       21 0.37281563E-02 0.30000000E+03</pdfrwt>
<pdfrwt beam="2">0</pdfrwt>
<totfact> 0.47329270E+04</totfact>
</mgrwt>
</event>
<event>
 6    1  0.1274196E-001  0.3000000E+03  0.7818608E-02  0.1093470E+00
         21   -1    0    0  501  502  0.00000000000E+00  0.00000000000E+00  0.42071608706E+01  0.42071608706E+01  0.00000000000E+00 0. -1.
         13   -1    0    0    0    0 -0.00000000000E+00 -0.00000000000E+00 -0.10000000000E+04  0.10000000000E+04  0.00000000000E+00 0.  1.
    9000005    2    1    2  501    0 -0.47522110545E+00  0.62811601466E+02 -0.62186921467E+03  0.62504439893E+03  0.36955872637E+01 0.  0.
         13    1    3    3    0    0 -0.19721344498E+01  0.35974124645E+02 -0.36281462994E+03  0.36459907111E+03  0.00000000000E+00 0.  1.
          3    1    3    3  501    0  0.14969133444E+01  0.26837476820E+02 -0.25905458473E+03  0.26044532782E+03  0.00000000000E+00 0.  1.
         -3    1    1    2    0  502  0.47522110545E+00 -0.62811601466E+02 -0.37392362446E+03  0.37916276194E+03  0.00000000000E+00 0. -1.
<mgrwt>
<rscale>  1 0.30000000E+03</rscale>
<asrwt>0</asrwt>
<pdfrwt beam="1">  1       21 0.15298799E-01 0.30000000E+03</pdfrwt>
<pdfrwt beam="2">0</pdfrwt>
<totfact> 0.39702340E+03</totfact>
</mgrwt>
</event>
<event>
 6    1  0.1274196E-001  0.3000000E+03  0.7818608E-02  0.1093470E+00
         21   -1    0    0  501  502  0.00000000000E+00  0.00000000000E+00  0.17751754961E+01  0.17751754961E+01  0.00000000000E+00 0. -1.
         13   -1    0    0    0    0 -0.00000000000E+00 -0.00000000000E+00 -0.10000000000E+04  0.10000000000E+04  0.00000000000E+00 0.  1.
    9000005    2    1    2  501    0  0.33603077101E+02  0.25274499761E+02 -0.51694532507E+03  0.51866243119E+03  0.32064458053E+01 0.  0.
         13    1    3    3    0    0  0.22785113332E+02  0.18794251096E+02 -0.35436519290E+03  0.35559397520E+03  0.00000000000E+00 0.  1.
          3    1    3    3  501    0  0.10817963769E+02  0.64802486646E+01 -0.16258013217E+03  0.16306845599E+03  0.00000000000E+00 0.  1.
         -3    1    1    2    0  502 -0.33603077101E+02 -0.25274499761E+02 -0.48127949944E+03  0.48311274430E+03  0.00000000000E+00 0. -1.
<mgrwt>
<rscale>  1 0.30000000E+03</rscale>
<asrwt>0</asrwt>
<pdfrwt beam="1">  1       21 0.64551972E-02 0.30000000E+03</pdfrwt>
<pdfrwt beam="2">0</pdfrwt>
<totfact> 0.18571070E+04</totfact>
</mgrwt>
</event>
<event>
 6    1  0.1274196E-001  0.3000000E+03  0.7818608E-02  0.1093470E+00
         21   -1    0    0  501  502  0.00000000000E+00  0.00000000000E+00  0.60482270216E+01  0.60482270216E+01  0.00000000000E+00 0. -1.
         13   -1    0    0    0    0 -0.00000000000E+00 -0.00000000000E+00 -0.10000000000E+04  0.10000000000E+04  0.00000000000E+00 0.  1.
    9000005    2    1    2  501    0 -0.42357519690E+02  0.63341266029E+02 -0.59510390408E+03  0.59998678095E+03  0.54041848260E+01 0.  0.
         13    1    3    3    0    0 -0.32283684640E+02  0.50104553377E+02 -0.44897345300E+03  0.45291264507E+03  0.00000000000E+00 0.  1.
          1    1    3    3  501    0 -0.10073835050E+02  0.13236712653E+02 -0.14613045107E+03  0.14707413588E+03  0.00000000000E+00 0.  1.
         -3    1    1    2    0  502  0.42357519690E+02 -0.63341266029E+02 -0.39884786890E+03  0.40606144607E+03  0.00000000000E+00 0. -1.
<mgrwt>
<rscale>  1 0.30000000E+03</rscale>
<asrwt>0</asrwt>
<pdfrwt beam="1">  1       21 0.21993599E-01 0.30000000E+03</pdfrwt>
<pdfrwt beam="2">0</pdfrwt>
<totfact> 0.19997133E+03</totfact>
</mgrwt>
</event>
<event>
 6    1  0.1274196E-001  0.3000000E+03  0.7818608E-02  0.1093470E+00
         21   -1    0    0  501  502  0.00000000000E+00  0.00000000000E+00  0.14148634954E+01  0.14148634954E+01  0.00000000000E+00 0. -1.
         13   -1    0    0    0    0 -0.00000000000E+00 -0.00000000000E+00 -0.10000000000E+04  0.10000000000E+04  0.00000000000E+00 0.  1.
    9000005    2    1    2  501    0  0.16086148135E+02  0.26375944573E+02 -0.78444007099E+03  0.78505275106E+03  0.26725186235E+01 0.  0.
         13    1    3    3    0    0  0.76413560140E+01  0.10448265226E+02 -0.34699938602E+03  0.34724073848E+03  0.00000000000E+00 0.  1.
          3    1    3    3  501    0  0.84447921210E+01  0.15927679346E+02 -0.43744068497E+03  0.43781201257E+03  0.00000000000E+00 0.  1.
         -1    1    1    2    0  502 -0.16086148135E+02 -0.26375944573E+02 -0.21414506552E+03  0.21636211244E+03  0.00000000000E+00 0. -1.
<mgrwt>
<rscale>  1 0.30000000E+03</rscale>
<asrwt>0</asrwt>
<pdfrwt beam="1">  1       21 0.51449690E-02 0.30000000E+03</pdfrwt>
<pdfrwt beam="2">0</pdfrwt>
<totfact> 0.27433850E+04</totfact>
</mgrwt>
</event>
<event>
 6    1  0.1274196E-001  0.3000000E+03  0.7818608E-02  0.1093470E+00
         21   -1    0    0  501  502  0.00000000000E+00  0.00000000000E+00  0.97146854461E+00  0.97146854461E+00  0.00000000000E+00 0. -1.
         13   -1    0    0    0    0 -0.00000000000E+00 -0.00000000000E+00 -0.10000000000E+04  0.10000000000E+04  0.00000000000E+00 0.  1.
    9000005    2    1    2  501    0  0.28543171977E+02  0.12213528452E+02 -0.47467248083E+03  0.47569711092E+03  0.31455274099E+01 0.  0.
         13    1    3    3    0    0  0.87118100227E+01  0.47727817993E+01 -0.16892920887E+03  0.16922101728E+03  0.00000000000E+00 0.  1.
          3    1    3    3  501    0  0.19831361954E+02  0.74407466522E+01 -0.30574327196E+03  0.30647609365E+03  0.00000000000E+00 0.  1.
         -1    1    1    2    0  502 -0.28543171977E+02 -0.12213528452E+02 -0.52435605063E+03  0.52527435762E+03  0.00000000000E+00 0. -1.
<mgrwt>
<rscale>  1 0.30000000E+03</rscale>
<asrwt>0</asrwt>
<pdfrwt beam="1">  1       21 0.35326203E-02 0.30000000E+03</pdfrwt>
<pdfrwt beam="2">0</pdfrwt>
<totfact> 0.51805502E+04</totfact>
</mgrwt>
</event>
<event>
 6    1  0.1274196E-001  0.3000000E+03  0.7818608E-02  0.1093470E+00
         21   -1    0    0  501  502  0.00000000000E+00  0.00000000000E+00  0.11034191748E+01  0.11034191748E+01  0.00000000000E+00 0. -1.
         13   -1    0    0    0    0 -0.00000000000E+00 -0.00000000000E+00 -0.10000000000E+04  0.10000000000E+04  0.00000000000E+00 0.  1.
    9000005    2    1    2  501    0 -0.37820779192E+01 -0.30393091749E+02 -0.69149655922E+03  0.69218139435E+03  0.30898431350E+01 0.  0.
         13    1    3    3    0    0 -0.35804484612E+01 -0.17016713998E+02 -0.40175984051E+03  0.40213599393E+03  0.00000000000E+00 0.  1.
          1    1    3    3  501    0 -0.20162945800E+00 -0.13376377751E+02 -0.28973671871E+03  0.29004540042E+03  0.00000000000E+00 0.  1.
         -1    1    1    2    0  502  0.37820779192E+01  0.30393091749E+02 -0.30740002160E+03  0.30892202482E+03  0.00000000000E+00 0. -1.
<mgrwt>
<rscale>  1 0.30000000E+03</rscale>
<asrwt>0</asrwt>
<pdfrwt beam="1">  1       21 0.40124418E-02 0.30000000E+03</pdfrwt>
<pdfrwt beam="2">0</pdfrwt>
<totfact> 0.41827974E+04</totfact>
</mgrwt>
</event>
<event>
 6    1  0.1274196E-001  0.3000000E+03  0.7818608E-02  0.1093470E+00
         21   -1    0    0  501  502  0.00000000000E+00  0.00000000000E+00  0.14356119698E+01  0.14356119698E+01  0.00000000000E+00 0. -1.
         13   -1    0    0    0    0 -0.00000000000E+00 -0.00000000000E+00 -0.10000000000E+04  0.10000000000E+04  0.00000000000E+00 0.  1.
    9000005    2    1    2  501    0  0.29445708911E+02  0.21882143912E+02 -0.62134242205E+03  0.62243391064E+03  0.34190167969E+01 0.  0.
         13    1    3    3    0    0  0.17800051529E+02  0.14281833663E+02 -0.40970121951E+03  0.41033632776E+03  0.00000000000E+00 0.  1.
          1    1    3    3  501    0  0.11645657383E+02  0.76003102493E+01 -0.21164120254E+03  0.21209758288E+03  0.00000000000E+00 0.  1.
         -3    1    1    2    0  502 -0.29445708911E+02 -0.21882143912E+02 -0.37722196598E+03  0.37900170133E+03  0.00000000000E+00 0. -1.
<mgrwt>
<rscale>  1 0.30000000E+03</rscale>
<asrwt>0</asrwt>
<pdfrwt beam="1">  1       21 0.52204182E-02 0.30000000E+03</pdfrwt>
<pdfrwt beam="2">0</pdfrwt>
<totfact> 0.26760109E+04</totfact>
</mgrwt>
</event>
<event>
 6    1  0.1274196E-001  0.3000000E+03  0.7818608E-02  0.1093470E+00
         21   -1    0    0  501  502  0.00000000000E+00  0.00000000000E+00  0.17646947974E+01  0.17646947974E+01  0.00000000000E+00 0. -1.
         13   -1    0    0    0    0 -0.00000000000E+00 -0.00000000000E+00 -0.10000000000E+04  0.10000000000E+04  0.00000000000E+00 0.  1.
    9000005    2    1    2  501    0 -0.41504130347E+02 -0.42154006457E+01 -0.45002872804E+03  0.45197308548E+03  0.36676276797E+01 0.  0.
         13    1    3    3    0    0 -0.21270115137E+02 -0.40648043981E+00 -0.22261080281E+03  0.22362502666E+03  0.00000000000E+00 0.  1.
          3    1    3    3  501    0 -0.20234015210E+02 -0.38089202059E+01 -0.22741792524E+03  0.22834805881E+03  0.00000000000E+00 0.  1.
         -3    1    1    2    0  502  0.41504130347E+02  0.42154006457E+01 -0.54820657716E+03  0.54979160932E+03  0.00000000000E+00 0. -1.
<mgrwt>
<rscale>  1 0.30000000E+03</rscale>
<asrwt>0</asrwt>
<pdfrwt beam="1">  1       21 0.64170855E-02 0.30000000E+03</pdfrwt>
<pdfrwt beam="2">0</pdfrwt>
<totfact> 0.18762340E+04</totfact>
</mgrwt>
</event>
<event>
 6    1  0.1274196E-001  0.3000000E+03  0.7818608E-02  0.1093470E+00
         21   -1    0    0  501  502  0.00000000000E+00  0.00000000000E+00  0.18154090443E+01  0.18154090443E+01  0.00000000000E+00 0. -1.
         13   -1    0    0    0    0 -0.00000000000E+00 -0.00000000000E+00 -0.10000000000E+04  0.10000000000E+04  0.00000000000E+00 0.  1.
    9000005    2    1    2  501    0  0.67785314641E+01 -0.37407306450E+02 -0.72405190721E+03  0.72505922869E+03  0.38033820187E+01 0.  0.
         13    1    3    3    0    0  0.52609804478E-01 -0.94309599427E+01 -0.18169574980E+03  0.18194035085E+03  0.00000000000E+00 0.  1.
          1    1    3    3  501    0  0.67259216596E+01 -0.27976346508E+02 -0.54235615741E+03  0.54311887784E+03  0.00000000000E+00 0.  1.
         -1    1    1    2    0  502 -0.67785314641E+01  0.37407306450E+02 -0.27413268375E+03  0.27675618035E+03  0.00000000000E+00 0. -1.
<mgrwt>
<rscale>  1 0.30000000E+03</rscale>
<asrwt>0</asrwt>
<pdfrwt beam="1">  1       21 0.66015014E-02 0.30000000E+03</pdfrwt>
<pdfrwt beam="2">0</pdfrwt>
<totfact> 0.17864075E+04</totfact>
</mgrwt>
</event>
<event>
 6    1  0.1274196E-001  0.3000000E+03  0.7818608E-02  0.1093470E+00
         21   -1    0    0  501  502  0.00000000000E+00  0.00000000000E+00  0.17809468593E+01  0.17809468593E+01  0.00000000000E+00 0. -1.
         13   -1    0    0    0    0 -0.00000000000E+00 -0.00000000000E+00 -0.10000000000E+04  0.10000000000E+04  0.00000000000E+00 0.  1.
    9000005    2    1    2  501    0 -0.33448537209E+02 -0.16473233634E+02 -0.73280155934E+03  0.73375740669E+03  0.34109291847E+01 0.  0.
         13    1    3    3    0    0 -0.14264279727E+02 -0.85949810616E+01 -0.34496465148E+03  0.34536640564E+03  0.00000000000E+00 0.  1.
          3    1    3    3  501    0 -0.19184257482E+02 -0.78782525728E+01 -0.38783690786E+03  0.38839100105E+03  0.00000000000E+00 0.  1.
         -1    1    1    2    0  502  0.33448537209E+02  0.16473233634E+02 -0.26541749380E+03  0.26802354017E+03  0.00000000000E+00 0. -1.
<mgrwt>
<rscale>  1 0.30000000E+03</rscale>
<asrwt>0</asrwt>
<pdfrwt beam="1">  1       21 0.64761841E-02 0.30000000E+03</pdfrwt>
<pdfrwt beam="2">0</pdfrwt>
<totfact> 0.18467027E+04</totfact>
</mgrwt>
</event>
<event>
 6    1  0.1274196E-001  0.3000000E+03  0.7818608E-02  0.1093470E+00
         21   -1    0    0  501  502  0.00000000000E+00  0.00000000000E+00  0.53251452022E+02  0.53251452022E+02  0.00000000000E+00 0. -1.
         13   -1    0    0    0    0 -0.00000000000E+00 -0.00000000000E+00 -0.10000000000E+04  0.10000000000E+04  0.00000000000E+00 0.  1.
    9000005    2    1    2  501    0 -0.27108125523E+02  0.73842361271E+02 -0.96845523178E+03  0.97165044155E+03  0.33911375727E+01 0.  0.
         13    1    3    3    0    0 -0.22878512593E+02  0.61792684076E+02 -0.79535775652E+03  0.79808252894E+03  0.00000000000E+00 0.  1.
          3    1    3    3  501    0 -0.42296129296E+01  0.12049677195E+02 -0.17309747526E+03  0.17356791261E+03  0.00000000000E+00 0.  1.
         -1    1    1    2    0  502  0.27108125523E+02 -0.73842361271E+02  0.21706683807E+02  0.81601010468E+02  0.00000000000E+00 0. -1.
<mgrwt>
<rscale>  1 0.30000000E+03</rscale>
<asrwt>0</asrwt>
<pdfrwt beam="1">  1       21 0.19364205E+00 0.30000000E+03</pdfrwt>
<pdfrwt beam="2">0</pdfrwt>
<totfact> 0.10565967E+01</totfact>
</mgrwt>
</event>
<event>
 6    1  0.1274196E-001  0.3000000E+03  0.7818608E-02  0.1093470E+00
         21   -1    0    0  501  502  0.00000000000E+00  0.00000000000E+00  0.34251130876E+01  0.34251130876E+01  0.00000000000E+00 0. -1.
         13   -1    0    0    0    0 -0.00000000000E+00 -0.00000000000E+00 -0.10000000000E+04  0.10000000000E+04  0.00000000000E+00 0.  1.
    9000005    2    1    2  501    0  0.90402084074E+01  0.46840467225E+02 -0.78833321018E+03  0.78978908929E+03  0.46691051148E+01 0.  0.
         13    1    3    3    0    0  0.79674078512E+01  0.45528209599E+02 -0.75619541550E+03  0.75760662872E+03  0.00000000000E+00 0.  1.
          3    1    3    3  501    0  0.10728005562E+01  0.13122576261E+01 -0.32137794686E+02  0.32182460571E+02  0.00000000000E+00 0.  1.
         -1    1    1    2    0  502 -0.90402084074E+01 -0.46840467225E+02 -0.20824167673E+03  0.21363602380E+03  0.00000000000E+00 0. -1.
<mgrwt>
<rscale>  1 0.30000000E+03</rscale>
<asrwt>0</asrwt>
<pdfrwt beam="1">  1       21 0.12454983E-01 0.30000000E+03</pdfrwt>
<pdfrwt beam="2">0</pdfrwt>
<totfact> 0.57916236E+03</totfact>
</mgrwt>
</event>
<event>
 6    1  0.1274196E-001  0.3000000E+03  0.7818608E-02  0.1093470E+00
         21   -1    0    0  501  502  0.00000000000E+00  0.00000000000E+00  0.11799462864E+01  0.11799462864E+01  0.00000000000E+00 0. -1.
         13   -1    0    0    0    0 -0.00000000000E+00 -0.00000000000E+00 -0.10000000000E+04  0.10000000000E+04  0.00000000000E+00 0.  1.
    9000005    2    1    2  501    0 -0.31865382039E+02 -0.59503515736E+01 -0.66067937787E+03  0.66148901925E+03  0.44354231585E+01 0.  0.
         13    1    3    3    0    0 -0.39314270547E+00 -0.22324519922E+00 -0.31860587695E+01  0.32179760857E+01  0.00000000000E+00 0.  1.
          1    1    3    3  501    0 -0.31472239334E+02 -0.57271063744E+01 -0.65749331910E+03  0.65827104316E+03  0.00000000000E+00 0.  1.
         -3    1    1    2    0  502  0.31865382039E+02  0.59503515736E+01 -0.33814067584E+03  0.33969092704E+03  0.00000000000E+00 0. -1.
<mgrwt>
<rscale>  1 0.30000000E+03</rscale>
<asrwt>0</asrwt>
<pdfrwt beam="1">  1       21 0.42907228E-02 0.30000000E+03</pdfrwt>
<pdfrwt beam="2">0</pdfrwt>
<totfact> 0.37352924E+04</totfact>
</mgrwt>
</event>
<event>
 6    1  0.1274196E-001  0.3000000E+03  0.7818608E-02  0.1093470E+00
         21   -1    0    0  501  502  0.00000000000E+00  0.00000000000E+00  0.52718932480E+01  0.52718932480E+01  0.00000000000E+00 0. -1.
         13   -1    0    0    0    0 -0.00000000000E+00 -0.00000000000E+00 -0.10000000000E+04  0.10000000000E+04  0.00000000000E+00 0.  1.
    9000005    2    1    2  501    0  0.38928883817E+02  0.99500315744E+01 -0.91595910488E+03  0.91684668881E+03  0.35082546786E+01 0.  0.
         13    1    3    3    0    0  0.33473393900E+02  0.91850628092E+01 -0.81235089436E+03  0.81309212826E+03  0.00000000000E+00 0.  1.
          1    1    3    3  501    0  0.54554899164E+01  0.76496876519E+00 -0.10360821052E+03  0.10375456055E+03  0.00000000000E+00 0.  1.
         -3    1    1    2    0  502 -0.38928883817E+02 -0.99500315744E+01 -0.78769001875E+02  0.88425204438E+02  0.00000000000E+00 0. -1.
<mgrwt>
<rscale>  1 0.30000000E+03</rscale>
<asrwt>0</asrwt>
<pdfrwt beam="1">  1       21 0.19170561E-01 0.30000000E+03</pdfrwt>
<pdfrwt beam="2">0</pdfrwt>
<totfact> 0.26006357E+03</totfact>
</mgrwt>
</event>
<event>
 6    1  0.1274196E-001  0.3000000E+03  0.7818608E-02  0.1093470E+00
         21   -1    0    0  501  502  0.00000000000E+00  0.00000000000E+00  0.22285741671E+01  0.22285741671E+01  0.00000000000E+00 0. -1.
         13   -1    0    0    0    0 -0.00000000000E+00 -0.00000000000E+00 -0.10000000000E+04  0.10000000000E+04  0.00000000000E+00 0.  1.
    9000005    2    1    2  501    0 -0.42621583711E+02 -0.61880061431E+00 -0.28784100255E+03  0.29101961176E+03  0.47947226286E+01 0.  0.
         13    1    3    3    0    0 -0.53294232299E+01 -0.22784891925E+00 -0.48154284053E+02  0.48448836310E+02  0.00000000000E+00 0.  1.
          1    1    3    3  501    0 -0.37292160481E+02 -0.39095169506E+00 -0.23968671850E+03  0.24257077545E+03  0.00000000000E+00 0.  1.
         -3    1    1    2    0  502  0.42621583711E+02  0.61880061431E+00 -0.70993042328E+03  0.71120896241E+03  0.00000000000E+00 0. -1.
<mgrwt>
<rscale>  1 0.30000000E+03</rscale>
<asrwt>0</asrwt>
<pdfrwt beam="1">  1       21 0.81039232E-02 0.30000000E+03</pdfrwt>
<pdfrwt beam="2">0</pdfrwt>
<totfact> 0.12487435E+04</totfact>
</mgrwt>
</event>
<event>
 6    1  0.1274196E-001  0.3000000E+03  0.7818608E-02  0.1093470E+00
         21   -1    0    0  501  502  0.00000000000E+00  0.00000000000E+00  0.14192638919E+01  0.14192638919E+01  0.00000000000E+00 0. -1.
         13   -1    0    0    0    0 -0.00000000000E+00 -0.00000000000E+00 -0.10000000000E+04  0.10000000000E+04  0.00000000000E+00 0.  1.
    9000005    2    1    2  501    0  0.15987538326E+02 -0.25680704544E+02 -0.79702086841E+03  0.79760199221E+03  0.34019605887E+01 0.  0.
         13    1    3    3    0    0  0.73739984317E+01 -0.14227413002E+02 -0.39076589785E+03  0.39109433907E+03  0.00000000000E+00 0.  1.
          1    1    3    3  501    0  0.86135398945E+01 -0.11453291542E+02 -0.40625497056E+03  0.40650765314E+03  0.00000000000E+00 0.  1.
         -3    1    1    2    0  502 -0.15987538326E+02  0.25680704544E+02 -0.20155986770E+03  0.20381727168E+03  0.00000000000E+00 0. -1.
<mgrwt>
<rscale>  1 0.30000000E+03</rscale>
<asrwt>0</asrwt>
<pdfrwt beam="1">  1       21 0.51609705E-02 0.30000000E+03</pdfrwt>
<pdfrwt beam="2">0</pdfrwt>
<totfact> 0.27288778E+04</totfact>
</mgrwt>
</event>
<event>
 6    1  0.1274196E-001  0.3000000E+03  0.7818608E-02  0.1093470E+00
         21   -1    0    0  501  502  0.00000000000E+00  0.00000000000E+00  0.15165059479E+01  0.15165059479E+01  0.00000000000E+00 0. -1.
         13   -1    0    0    0    0 -0.00000000000E+00 -0.00000000000E+00 -0.10000000000E+04  0.10000000000E+04  0.00000000000E+00 0.  1.
    9000005    2    1    2  501    0 -0.33533862160E+00  0.32211915256E+02 -0.77832910822E+03  0.77901780137E+03  0.59003573443E+01 0.  0.
         13    1    3    3    0    0  0.28953827391E+00  0.23823665897E+02 -0.50889187852E+03  0.50944930554E+03  0.00000000000E+00 0.  1.
          3    1    3    3  501    0 -0.62487689551E+00  0.83882493597E+01 -0.26943722969E+03  0.26956849583E+03  0.00000000000E+00 0.  1.
         -1    1    1    2    0  502  0.33533862160E+00 -0.32211915256E+02 -0.22015438584E+03  0.22249870458E+03  0.00000000000E+00 0. -1.
<mgrwt>
<rscale>  1 0.30000000E+03</rscale>
<asrwt>0</asrwt>
<pdfrwt beam="1">  1       21 0.55145787E-02 0.30000000E+03</pdfrwt>
<pdfrwt beam="2">0</pdfrwt>
<totfact> 0.24363301E+04</totfact>
</mgrwt>
</event>
<event>
 6    1  0.1274196E-001  0.3000000E+03  0.7818608E-02  0.1093470E+00
         21   -1    0    0  501  502  0.00000000000E+00  0.00000000000E+00  0.22184469496E+01  0.22184469496E+01  0.00000000000E+00 0. -1.
         13   -1    0    0    0    0 -0.00000000000E+00 -0.00000000000E+00 -0.10000000000E+04  0.10000000000E+04  0.00000000000E+00 0.  1.
    9000005    2    1    2  501    0 -0.30999625699E+02  0.17469703143E+01 -0.87553002525E+03  0.87608572023E+03  0.30553866783E+01 0.  0.
         13    1    3    3    0    0 -0.55466538903E+01  0.10951470059E+01 -0.13580272665E+03  0.13592036375E+03  0.00000000000E+00 0.  1.
          1    1    3    3  501    0 -0.25452971809E+02  0.65182330846E+00 -0.73972729860E+03  0.74016535649E+03  0.00000000000E+00 0.  1.
         -1    1    1    2    0  502  0.30999625699E+02 -0.17469703143E+01 -0.12225152780E+03  0.12613272672E+03  0.00000000000E+00 0. -1.
<mgrwt>
<rscale>  1 0.30000000E+03</rscale>
<asrwt>0</asrwt>
<pdfrwt beam="1">  1       21 0.80670968E-02 0.30000000E+03</pdfrwt>
<pdfrwt beam="2">0</pdfrwt>
<totfact> 0.12587797E+04</totfact>
</mgrwt>
</event>
<event>
 6    1  0.1274196E-001  0.3000000E+03  0.7818608E-02  0.1093470E+00
         21   -1    0    0  501  502  0.00000000000E+00  0.00000000000E+00  0.14742560109E+01  0.14742560109E+01  0.00000000000E+00 0. -1.
         13   -1    0    0    0    0 -0.00000000000E+00 -0.00000000000E+00 -0.10000000000E+04  0.10000000000E+04  0.00000000000E+00 0.  1.
    9000005    2    1    2  501    0  0.18869573533E+02 -0.27864303080E+02 -0.73933475507E+03  0.74010775294E+03  0.33355229872E+01 0.  0.
         13    1    3    3    0    0  0.15518643585E+01 -0.15299072386E+01 -0.34614787519E+02  0.34683316078E+02  0.00000000000E+00 0.  1.
          3    1    3    3  501    0  0.17317709175E+02 -0.26334395841E+02 -0.70471996755E+03  0.70542443686E+03  0.00000000000E+00 0.  1.
         -3    1    1    2    0  502 -0.18869573533E+02  0.27864303080E+02 -0.25919098892E+03  0.26136650307E+03  0.00000000000E+00 0. -1.
<mgrwt>
<rscale>  1 0.30000000E+03</rscale>
<asrwt>0</asrwt>
<pdfrwt beam="1">  1       21 0.53609423E-02 0.30000000E+03</pdfrwt>
<pdfrwt beam="2">0</pdfrwt>
<totfact> 0.25571726E+04</totfact>
</mgrwt>
</event>
<event>
 6    1  0.1274196E-001  0.3000000E+03  0.7818608E-02  0.1093470E+00
         21   -1    0    0  501  502  0.00000000000E+00  0.00000000000E+00  0.60474506056E+01  0.60474506056E+01  0.00000000000E+00 0. -1.
         13   -1    0    0    0    0 -0.00000000000E+00 -0.00000000000E+00 -0.10000000000E+04  0.10000000000E+04  0.00000000000E+00 0.  1.
    9000005    2    1    2  501    0 -0.57965600920E+02 -0.54194365413E+01 -0.83035450508E+03  0.83239923931E+03  0.32416532945E+01 0.  0.
         13    1    3    3    0    0 -0.46883625434E+02 -0.56489857178E+01 -0.67014724545E+03  0.67180898771E+03  0.00000000000E+00 0.  1.
          1    1    3    3  501    0 -0.11081975486E+02  0.22954917650E+00 -0.16020725963E+03  0.16059025160E+03  0.00000000000E+00 0.  1.
         -1    1    1    2    0  502  0.57965600920E+02  0.54194365413E+01 -0.16359804432E+03  0.17364821130E+03  0.00000000000E+00 0. -1.
<mgrwt>
<rscale>  1 0.30000000E+03</rscale>
<asrwt>0</asrwt>
<pdfrwt beam="1">  1       21 0.21990776E-01 0.30000000E+03</pdfrwt>
<pdfrwt beam="2">0</pdfrwt>
<totfact> 0.20002076E+03</totfact>
</mgrwt>
</event>
<event>
 6    1  0.1274196E-001  0.3000000E+03  0.7818608E-02  0.1093470E+00
         21   -1    0    0  501  502  0.00000000000E+00  0.00000000000E+00  0.38798386968E+01  0.38798386968E+01  0.00000000000E+00 0. -1.
         13   -1    0    0    0    0 -0.00000000000E+00 -0.00000000000E+00 -0.10000000000E+04  0.10000000000E+04  0.00000000000E+00 0.  1.
    9000005    2    1    2  501    0  0.50072658398E+02 -0.34964978188E+02 -0.59064738666E+03  0.59383350986E+03  0.66393705389E+01 0.  0.
         13    1    3    3    0    0  0.11290979408E+02 -0.54652487055E+01 -0.10444572162E+03  0.10519631136E+03  0.00000000000E+00 0.  1.
          1    1    3    3  501    0  0.38781678990E+02 -0.29499729483E+02 -0.48620166504E+03  0.48863719850E+03  0.00000000000E+00 0.  1.
         -1    1    1    2    0  502 -0.50072658398E+02  0.34964978188E+02 -0.40547277464E+03  0.41004632884E+03  0.00000000000E+00 0. -1.
<mgrwt>
<rscale>  1 0.30000000E+03</rscale>
<asrwt>0</asrwt>
<pdfrwt beam="1">  1       21 0.14108534E-01 0.30000000E+03</pdfrwt>
<pdfrwt beam="2">0</pdfrwt>
<totfact> 0.46107644E+03</totfact>
</mgrwt>
</event>
<event>
 6    1  0.1274196E-001  0.3000000E+03  0.7818608E-02  0.1093470E+00
         21   -1    0    0  501  502  0.00000000000E+00  0.00000000000E+00  0.13714563560E+01  0.13714563560E+01  0.00000000000E+00 0. -1.
         13   -1    0    0    0    0 -0.00000000000E+00 -0.00000000000E+00 -0.10000000000E+04  0.10000000000E+04  0.00000000000E+00 0.  1.
    9000005    2    1    2  501    0  0.76261918205E+01  0.32686158954E+02 -0.70023410072E+03  0.70109527123E+03  0.89576634319E+01 0.  0.
         13    1    3    3    0    0  0.80568561741E+01  0.32820252132E+02 -0.69791397099E+03  0.69873170301E+03  0.00000000000E+00 0.  1.
          1    1    3    3  501    0 -0.43066435360E+00 -0.13409317830E+00 -0.23201297264E+01  0.23635682163E+01  0.00000000000E+00 0.  1.
         -3    1    1    2    0  502 -0.76261918205E+01 -0.32686158954E+02 -0.29839444292E+03  0.30027618513E+03  0.00000000000E+00 0. -1.
<mgrwt>
<rscale>  1 0.30000000E+03</rscale>
<asrwt>0</asrwt>
<pdfrwt beam="1">  1       21 0.49871245E-02 0.30000000E+03</pdfrwt>
<pdfrwt beam="2">0</pdfrwt>
<totfact> 0.28931536E+04</totfact>
</mgrwt>
</event>
<event>
 6    1  0.1274196E-001  0.3000000E+03  0.7818608E-02  0.1093470E+00
         21   -1    0    0  501  502  0.00000000000E+00  0.00000000000E+00  0.25550549898E+01  0.25550549898E+01  0.00000000000E+00 0. -1.
         13   -1    0    0    0    0 -0.00000000000E+00 -0.00000000000E+00 -0.10000000000E+04  0.10000000000E+04  0.00000000000E+00 0.  1.
    9000005    2    1    2  501    0  0.41104485426E+02  0.12089094722E+02 -0.76433934513E+03  0.76554462141E+03  0.28649454975E+01 0.  0.
         13    1    3    3    0    0  0.15631484355E+02  0.48361687576E+01 -0.26779271417E+03  0.26829213480E+03  0.00000000000E+00 0.  1.
          1    1    3    3  501    0  0.25473001071E+02  0.72529259640E+01 -0.49654663096E+03  0.49725248661E+03  0.00000000000E+00 0.  1.
         -3    1    1    2    0  502 -0.41104485426E+02 -0.12089094722E+02 -0.23310559988E+03  0.23701043358E+03  0.00000000000E+00 0. -1.
<mgrwt>
<rscale>  1 0.30000000E+03</rscale>
<asrwt>0</asrwt>
<pdfrwt beam="1">  1       21 0.92911286E-02 0.30000000E+03</pdfrwt>
<pdfrwt beam="2">0</pdfrwt>
<totfact> 0.98081126E+03</totfact>
</mgrwt>
</event>
<event>
 6    1  0.1274196E-001  0.3000000E+03  0.7818608E-02  0.1093470E+00
         21   -1    0    0  501  502  0.00000000000E+00  0.00000000000E+00  0.14698422421E+01  0.14698422421E+01  0.00000000000E+00 0. -1.
         13   -1    0    0    0    0 -0.00000000000E+00 -0.00000000000E+00 -0.10000000000E+04  0.10000000000E+04  0.00000000000E+00 0.  1.
    9000005    2    1    2  501    0  0.24257258190E+02  0.29595144546E+02 -0.49525526188E+03  0.49674228408E+03  0.32916879376E+01 0.  0.
         13    1    3    3    0    0  0.19027207887E+02  0.22704361222E+02 -0.39970845944E+03  0.40080465967E+03  0.00000000000E+00 0.  1.
          3    1    3    3  501    0  0.52300503024E+01  0.68907833239E+01 -0.95546802441E+02  0.95937624411E+02  0.00000000000E+00 0.  1.
         -1    1    1    2    0  502 -0.24257258190E+02 -0.29595144546E+02 -0.50327489587E+03  0.50472755817E+03  0.00000000000E+00 0. -1.
<mgrwt>
<rscale>  1 0.30000000E+03</rscale>
<asrwt>0</asrwt>
<pdfrwt beam="1">  1       21 0.53448922E-02 0.30000000E+03</pdfrwt>
<pdfrwt beam="2">0</pdfrwt>
<totfact> 0.25703285E+04</totfact>
</mgrwt>
</event>
<event>
 6    1  0.1274196E-001  0.3000000E+03  0.7818608E-02  0.1093470E+00
         21   -1    0    0  501  502  0.00000000000E+00  0.00000000000E+00  0.15004181158E+01  0.15004181158E+01  0.00000000000E+00 0. -1.
         13   -1    0    0    0    0 -0.00000000000E+00 -0.00000000000E+00 -0.10000000000E+04  0.10000000000E+04  0.00000000000E+00 0.  1.
    9000005    2    1    2  501    0  0.18777164591E+01  0.31863220662E+02 -0.78230434800E+03  0.78296170346E+03  0.31852051641E+01 0.  0.
         13    1    3    3    0    0  0.16596225491E+01  0.24955913634E+02 -0.64256144573E+03  0.64304802582E+03  0.00000000000E+00 0.  1.
          1    1    3    3  501    0  0.21809391001E+00  0.69073070280E+01 -0.13974290227E+03  0.13991367764E+03  0.00000000000E+00 0.  1.
         -3    1    1    2    0  502 -0.18777164591E+01 -0.31863220662E+02 -0.21619523388E+03  0.21853871466E+03  0.00000000000E+00 0. -1.
<mgrwt>
<rscale>  1 0.30000000E+03</rscale>
<asrwt>0</asrwt>
<pdfrwt beam="1">  1       21 0.54560774E-02 0.30000000E+03</pdfrwt>
<pdfrwt beam="2">0</pdfrwt>
<totfact> 0.24812849E+04</totfact>
</mgrwt>
</event>
<event>
 6    1  0.1274196E-001  0.3000000E+03  0.7818608E-02  0.1093470E+00
         21   -1    0    0  501  502  0.00000000000E+00  0.00000000000E+00  0.12715045920E+01  0.12715045920E+01  0.00000000000E+00 0. -1.
         13   -1    0    0    0    0 -0.00000000000E+00 -0.00000000000E+00 -0.10000000000E+04  0.10000000000E+04  0.00000000000E+00 0.  1.
    9000005    2    1    2  501    0  0.16366893182E+02 -0.30429455610E+02 -0.61700622749E+03  0.61798868893E+03  0.44167767047E+01 0.  0.
         13    1    3    3    0    0  0.13943764391E+02 -0.28358092525E+02 -0.56884470293E+03  0.56972177949E+03  0.00000000000E+00 0.  1.
          1    1    3    3  501    0  0.24231287913E+01 -0.20713630855E+01 -0.48161524569E+02  0.48266909441E+02  0.00000000000E+00 0.  1.
         -3    1    1    2    0  502 -0.16366893182E+02  0.30429455610E+02 -0.38172226791E+03  0.38328281566E+03  0.00000000000E+00 0. -1.
<mgrwt>
<rscale>  1 0.30000000E+03</rscale>
<asrwt>0</asrwt>
<pdfrwt beam="1">  1       21 0.46236628E-02 0.30000000E+03</pdfrwt>
<pdfrwt beam="2">0</pdfrwt>
<totfact> 0.32907642E+04</totfact>
</mgrwt>
</event>
<event>
 6    1  0.1274196E-001  0.3000000E+03  0.7818608E-02  0.1093470E+00
         21   -1    0    0  501  502  0.00000000000E+00  0.00000000000E+00  0.17879743251E+01  0.17879743251E+01  0.00000000000E+00 0. -1.
         13   -1    0    0    0    0 -0.00000000000E+00 -0.00000000000E+00 -0.10000000000E+04  0.10000000000E+04  0.00000000000E+00 0.  1.
    9000005    2    1    2  501    0 -0.25437771859E+02 -0.28380200368E+02 -0.71532284045E+03  0.71634304596E+03  0.28420803987E+01 0.  0.
         13    1    3    3    0    0 -0.19194110135E+02 -0.22145613052E+02 -0.52836783257E+03  0.52917993966E+03  0.00000000000E+00 0.  1.
          1    1    3    3  501    0 -0.62436617241E+01 -0.62345873160E+01 -0.18695500788E+03  0.18716310630E+03  0.00000000000E+00 0.  1.
         -1    1    1    2    0  502  0.25437771859E+02  0.28380200368E+02 -0.28288918523E+03  0.28544492836E+03  0.00000000000E+00 0. -1.
<mgrwt>
<rscale>  1 0.30000000E+03</rscale>
<asrwt>0</asrwt>
<pdfrwt beam="1">  1       21 0.65017385E-02 0.30000000E+03</pdfrwt>
<pdfrwt beam="2">0</pdfrwt>
<totfact> 0.18341550E+04</totfact>
</mgrwt>
</event>
<event>
 6    1  0.1274196E-001  0.3000000E+03  0.7818608E-02  0.1093470E+00
         21   -1    0    0  501  502  0.00000000000E+00  0.00000000000E+00  0.27495262815E+01  0.27495262815E+01  0.00000000000E+00 0. -1.
         13   -1    0    0    0    0 -0.00000000000E+00 -0.00000000000E+00 -0.10000000000E+04  0.10000000000E+04  0.00000000000E+00 0.  1.
    9000005    2    1    2  501    0  0.15510329656E+02  0.34789513817E+02 -0.84309330578E+03  0.84395622345E+03  0.22145539612E+01 0.  0.
         13    1    3    3    0    0  0.25545198147E+01  0.66032246384E+01 -0.17477462423E+03  0.17491797341E+03  0.00000000000E+00 0.  1.
          3    1    3    3  501    0  0.12955809841E+02  0.28186289179E+02 -0.66831868155E+03  0.66903825004E+03  0.00000000000E+00 0.  1.
         -1    1    1    2    0  502 -0.15510329656E+02 -0.34789513817E+02 -0.15415716794E+03  0.15879330283E+03  0.00000000000E+00 0. -1.
<mgrwt>
<rscale>  1 0.30000000E+03</rscale>
<asrwt>0</asrwt>
<pdfrwt beam="1">  1       21 0.99982985E-02 0.30000000E+03</pdfrwt>
<pdfrwt beam="2">0</pdfrwt>
<totfact> 0.86058139E+03</totfact>
</mgrwt>
</event>
<event>
 6    1  0.1274196E-001  0.3000000E+03  0.7818608E-02  0.1093470E+00
         21   -1    0    0  501  502  0.00000000000E+00  0.00000000000E+00  0.15461204198E+01  0.15461204198E+01  0.00000000000E+00 0. -1.
         13   -1    0    0    0    0 -0.00000000000E+00 -0.00000000000E+00 -0.10000000000E+04  0.10000000000E+04  0.00000000000E+00 0.  1.
    9000005    2    1    2  501    0  0.35235492390E+02  0.14096955888E+02 -0.37187421379E+03  0.37381820032E+03  0.30580909399E+01 0.  0.
         13    1    3    3    0    0  0.26214576513E+02  0.10236654271E+02 -0.28813087955E+03  0.28950198076E+03  0.00000000000E+00 0.  1.
          1    1    3    3  501    0  0.90209158779E+01  0.38603016175E+01 -0.83743334232E+02  0.84316219556E+02  0.00000000000E+00 0.  1.
         -1    1    1    2    0  502 -0.35235492390E+02 -0.14096955888E+02 -0.62657966579E+03  0.62772792010E+03  0.00000000000E+00 0. -1.
<mgrwt>
<rscale>  1 0.30000000E+03</rscale>
<asrwt>0</asrwt>
<pdfrwt beam="1">  1       21 0.56222679E-02 0.30000000E+03</pdfrwt>
<pdfrwt beam="2">0</pdfrwt>
<totfact> 0.23567892E+04</totfact>
</mgrwt>
</event>
<event>
 6    1  0.1274196E-001  0.3000000E+03  0.7818608E-02  0.1093470E+00
         21   -1    0    0  501  502  0.00000000000E+00  0.00000000000E+00  0.11745887951E+01  0.11745887951E+01  0.00000000000E+00 0. -1.
         13   -1    0    0    0    0 -0.00000000000E+00 -0.00000000000E+00 -0.10000000000E+04  0.10000000000E+04  0.00000000000E+00 0.  1.
    9000005    2    1    2  501    0  0.26837262275E+02  0.19958274580E+02 -0.41940526941E+03  0.42078999898E+03  0.66986466496E+01 0.  0.
         13    1    3    3    0    0  0.39457997555E+01  0.40705366847E+01 -0.10477111140E+03  0.10492437461E+03  0.00000000000E+00 0.  1.
          3    1    3    3  501    0  0.22891462519E+02  0.15887737895E+02 -0.31463415801E+03  0.31586562437E+03  0.00000000000E+00 0.  1.
         -1    1    1    2    0  502 -0.26837262275E+02 -0.19958274580E+02 -0.57942014180E+03  0.58038458981E+03  0.00000000000E+00 0. -1.
<mgrwt>
<rscale>  1 0.30000000E+03</rscale>
<asrwt>0</asrwt>
<pdfrwt beam="1">  1       21 0.42712410E-02 0.30000000E+03</pdfrwt>
<pdfrwt beam="2">0</pdfrwt>
<totfact> 0.37641428E+04</totfact>
</mgrwt>
</event>
<event>
 6    1  0.1274196E-001  0.3000000E+03  0.7818608E-02  0.1093470E+00
         21   -1    0    0  501  502  0.00000000000E+00  0.00000000000E+00  0.12727987159E+01  0.12727987159E+01  0.00000000000E+00 0. -1.
         13   -1    0    0    0    0 -0.00000000000E+00 -0.00000000000E+00 -0.10000000000E+04  0.10000000000E+04  0.00000000000E+00 0.  1.
    9000005    2    1    2  501    0  0.25032303982E+02  0.20808495417E+02 -0.70215601113E+03  0.70292052278E+03  0.38193796823E+01 0.  0.
         13    1    3    3    0    0  0.41487993909E+01  0.41892162276E+01 -0.15881732471E+03  0.15892672745E+03  0.00000000000E+00 0.  1.
          3    1    3    3  501    0  0.20883504591E+02  0.16619279190E+02 -0.54333868642E+03  0.54399379533E+03  0.00000000000E+00 0.  1.
         -3    1    1    2    0  502 -0.25032303982E+02 -0.20808495417E+02 -0.29657119015E+03  0.29835227593E+03  0.00000000000E+00 0. -1.
<mgrwt>
<rscale>  1 0.30000000E+03</rscale>
<asrwt>0</asrwt>
<pdfrwt beam="1">  1       21 0.46283687E-02 0.30000000E+03</pdfrwt>
<pdfrwt beam="2">0</pdfrwt>
<totfact> 0.32850806E+04</totfact>
</mgrwt>
</event>
<event>
 6    1  0.1274196E-001  0.3000000E+03  0.7818608E-02  0.1093470E+00
         21   -1    0    0  501  502  0.00000000000E+00  0.00000000000E+00  0.31111747507E+01  0.31111747507E+01  0.00000000000E+00 0. -1.
         13   -1    0    0    0    0 -0.00000000000E+00 -0.00000000000E+00 -0.10000000000E+04  0.10000000000E+04  0.00000000000E+00 0.  1.
    9000005    2    1    2  501    0 -0.33426069381E+02  0.20296692017E+02 -0.85593721701E+03  0.85683536101E+03  0.30097488673E+01 0.  0.
         13    1    3    3    0    0 -0.14814425977E+02  0.79786796852E+01 -0.34171451795E+03  0.34212854065E+03  0.00000000000E+00 0.  1.
          3    1    3    3  501    0 -0.18611643404E+02  0.12318012332E+02 -0.51422269906E+03  0.51470682036E+03  0.00000000000E+00 0.  1.
         -3    1    1    2    0  502  0.33426069381E+02 -0.20296692017E+02 -0.14095160824E+03  0.14627581375E+03  0.00000000000E+00 0. -1.
<mgrwt>
<rscale>  1 0.30000000E+03</rscale>
<asrwt>0</asrwt>
<pdfrwt beam="1">  1       21 0.11313387E-01 0.30000000E+03</pdfrwt>
<pdfrwt beam="2">0</pdfrwt>
<totfact> 0.68941783E+03</totfact>
</mgrwt>
</event>
<event>
 6    1  0.1274196E-001  0.3000000E+03  0.7818608E-02  0.1093470E+00
         21   -1    0    0  501  502  0.00000000000E+00  0.00000000000E+00  0.37327482133E+01  0.37327482133E+01  0.00000000000E+00 0. -1.
         13   -1    0    0    0    0 -0.00000000000E+00 -0.00000000000E+00 -0.10000000000E+04  0.10000000000E+04  0.00000000000E+00 0.  1.
    9000005    2    1    2  501    0 -0.52572450605E+02 -0.31043142150E+02 -0.49874951101E+03  0.50248286878E+03  0.32279180231E+01 0.  0.
         13    1    3    3    0    0 -0.31390849406E+02 -0.17062342834E+02 -0.29944862048E+03  0.30157252076E+03  0.00000000000E+00 0.  1.
          1    1    3    3  501    0 -0.21181601199E+02 -0.13980799316E+02 -0.19930089052E+03  0.20091034802E+03  0.00000000000E+00 0.  1.
         -1    1    1    2    0  502  0.52572450605E+02  0.31043142150E+02 -0.49751774078E+03  0.50124987943E+03  0.00000000000E+00 0. -1.
<mgrwt>
<rscale>  1 0.30000000E+03</rscale>
<asrwt>0</asrwt>
<pdfrwt beam="1">  1       21 0.13573658E-01 0.30000000E+03</pdfrwt>
<pdfrwt beam="2">0</pdfrwt>
<totfact> 0.49497165E+03</totfact>
</mgrwt>
</event>
<event>
 6    1  0.1274196E-001  0.3000000E+03  0.7818608E-02  0.1093470E+00
         21   -1    0    0  501  502  0.00000000000E+00  0.00000000000E+00  0.42905249285E+01  0.42905249285E+01  0.00000000000E+00 0. -1.
         13   -1    0    0    0    0 -0.00000000000E+00 -0.00000000000E+00 -0.10000000000E+04  0.10000000000E+04  0.00000000000E+00 0.  1.
    9000005    2    1    2  501    0  0.87181882404E+01 -0.31143841259E+02 -0.93450157834E+03  0.93506370731E+03  0.22340913467E+01 0.  0.
         13    1    3    3    0    0  0.30390575920E+01 -0.14569802924E+02 -0.44332064292E+03  0.44357040869E+03  0.00000000000E+00 0.  1.
          1    1    3    3  501    0  0.56791306484E+01 -0.16574038335E+02 -0.49118093542E+03  0.49149329862E+03  0.00000000000E+00 0.  1.
         -1    1    1    2    0  502 -0.87181882404E+01  0.31143841259E+02 -0.61207896733E+02  0.69226817615E+02  0.00000000000E+00 0. -1.
<mgrwt>
<rscale>  1 0.30000000E+03</rscale>
<asrwt>0</asrwt>
<pdfrwt beam="1">  1       21 0.15601942E-01 0.30000000E+03</pdfrwt>
<pdfrwt beam="2">0</pdfrwt>
<totfact> 0.38281171E+03</totfact>
</mgrwt>
</event>
<event>
 6    1  0.1274196E-001  0.3000000E+03  0.7818608E-02  0.1093470E+00
         21   -1    0    0  501  502  0.00000000000E+00  0.00000000000E+00  0.63499858039E+01  0.63499858039E+01  0.00000000000E+00 0. -1.
         13   -1    0    0    0    0 -0.00000000000E+00 -0.00000000000E+00 -0.10000000000E+04  0.10000000000E+04  0.00000000000E+00 0.  1.
    9000005    2    1    2  501    0 -0.84328271788E+01 -0.51300627952E+02 -0.87733967674E+03  0.87894919459E+03  0.11131544733E+02 0.  0.
         13    1    3    3    0    0 -0.24327234516E+00 -0.11235205260E+02 -0.27040074516E+03  0.27063416636E+03  0.00000000000E+00 0.  1.
          1    1    3    3  501    0 -0.81895548337E+01 -0.40065422691E+02 -0.60693893158E+03  0.60831502823E+03  0.00000000000E+00 0.  1.
         -1    1    1    2    0  502  0.84328271788E+01  0.51300627952E+02 -0.11631033746E+03  0.12740079121E+03  0.00000000000E+00 0. -1.
<mgrwt>
<rscale>  1 0.30000000E+03</rscale>
<asrwt>0</asrwt>
<pdfrwt beam="1">  1       21 0.23090906E-01 0.30000000E+03</pdfrwt>
<pdfrwt beam="2">0</pdfrwt>
<totfact> 0.18203276E+03</totfact>
</mgrwt>
</event>
<event>
 6    1  0.1274196E-001  0.3000000E+03  0.7818608E-02  0.1093470E+00
         21   -1    0    0  501  502  0.00000000000E+00  0.00000000000E+00  0.15103505234E+01  0.15103505234E+01  0.00000000000E+00 0. -1.
         13   -1    0    0    0    0 -0.00000000000E+00 -0.00000000000E+00 -0.10000000000E+04  0.10000000000E+04  0.00000000000E+00 0.  1.
    9000005    2    1    2  501    0  0.14897078698E+02  0.30518848421E+02 -0.74172418807E+03  0.74250875741E+03  0.33407489453E+01 0.  0.
         13    1    3    3    0    0  0.83302695253E+01  0.18841680980E+02 -0.48008427087E+03  0.48052607574E+03  0.00000000000E+00 0.  1.
          1    1    3    3  501    0  0.65668091725E+01  0.11677167441E+02 -0.26163991720E+03  0.26198268167E+03  0.00000000000E+00 0.  1.
         -3    1    1    2    0  502 -0.14897078698E+02 -0.30518848421E+02 -0.25676546141E+03  0.25900159311E+03  0.00000000000E+00 0. -1.
<mgrwt>
<rscale>  1 0.30000000E+03</rscale>
<asrwt>0</asrwt>
<pdfrwt beam="1">  1       21 0.54921953E-02 0.30000000E+03</pdfrwt>
<pdfrwt beam="2">0</pdfrwt>
<totfact> 0.24533811E+04</totfact>
</mgrwt>
</event>
<event>
 6    1  0.1274196E-001  0.3000000E+03  0.7818608E-02  0.1093470E+00
         21   -1    0    0  501  502  0.00000000000E+00  0.00000000000E+00  0.23985127181E+01  0.23985127181E+01  0.00000000000E+00 0. -1.
         13   -1    0    0    0    0 -0.00000000000E+00 -0.00000000000E+00 -0.10000000000E+04  0.10000000000E+04  0.00000000000E+00 0.  1.
    9000005    2    1    2  501    0 -0.87832492950E+01 -0.47091605040E+02 -0.59249819736E+03  0.59447273486E+03  0.69967054224E+01 0.  0.
         13    1    3    3    0    0  0.10119090449E+01 -0.94947446549E+01 -0.12214654449E+03  0.12251919223E+03  0.00000000000E+00 0.  1.
          3    1    3    3  501    0 -0.97951583399E+01 -0.37596860385E+02 -0.47035165287E+03  0.47195354263E+03  0.00000000000E+00 0.  1.
         -1    1    1    2    0  502  0.87832492950E+01  0.47091605040E+02 -0.40510328992E+03  0.40792577786E+03  0.00000000000E+00 0. -1.
<mgrwt>
<rscale>  1 0.30000000E+03</rscale>
<asrwt>0</asrwt>
<pdfrwt beam="1">  1       21 0.87218828E-02 0.30000000E+03</pdfrwt>
<pdfrwt beam="2">0</pdfrwt>
<totfact> 0.10970739E+04</totfact>
</mgrwt>
</event>
<event>
 6    1  0.1274196E-001  0.3000000E+03  0.7818608E-02  0.1093470E+00
         21   -1    0    0  501  502  0.00000000000E+00  0.00000000000E+00  0.19066594983E+01  0.19066594983E+01  0.00000000000E+00 0. -1.
         13   -1    0    0    0    0 -0.00000000000E+00 -0.00000000000E+00 -0.10000000000E+04  0.10000000000E+04  0.00000000000E+00 0.  1.
    9000005    2    1    2  501    0  0.38492226257E+01 -0.31386071877E+02 -0.84426049627E+03  0.84485747616E+03  0.29098864978E+01 0.  0.
         13    1    3    3    0    0  0.17646528937E+01 -0.73495526997E+01 -0.22622043460E+03  0.22634666985E+03  0.00000000000E+00 0.  1.
          3    1    3    3  501    0  0.20845697320E+01 -0.24036519177E+02 -0.61804006167E+03  0.61851080630E+03  0.00000000000E+00 0.  1.
         -3    1    1    2    0  502 -0.38492226257E+01  0.31386071877E+02 -0.15383284424E+03  0.15704918334E+03  0.00000000000E+00 0. -1.
<mgrwt>
<rscale>  1 0.30000000E+03</rscale>
<asrwt>0</asrwt>
<pdfrwt beam="1">  1       21 0.69333219E-02 0.30000000E+03</pdfrwt>
<pdfrwt beam="2">0</pdfrwt>
<totfact> 0.16406197E+04</totfact>
</mgrwt>
</event>
<event>
 6    1  0.1274196E-001  0.3000000E+03  0.7818608E-02  0.1093470E+00
         21   -1    0    0  501  502  0.00000000000E+00  0.00000000000E+00  0.22266329379E+01  0.22266329379E+01  0.00000000000E+00 0. -1.
         13   -1    0    0    0    0 -0.00000000000E+00 -0.00000000000E+00 -0.10000000000E+04  0.10000000000E+04  0.00000000000E+00 0.  1.
    9000005    2    1    2  501    0  0.15249763650E+02 -0.34881325290E+02 -0.79458558406E+03  0.79550329776E+03  0.31597796405E+01 0.  0.
         13    1    3    3    0    0  0.74199348645E+01 -0.16644647801E+02 -0.34771444777E+03  0.34819166693E+03  0.00000000000E+00 0.  1.
          3    1    3    3  501    0  0.78298287851E+01 -0.18236677489E+02 -0.44687113629E+03  0.44731163083E+03  0.00000000000E+00 0.  1.
         -3    1    1    2    0  502 -0.15249763650E+02  0.34881325290E+02 -0.20318778300E+03  0.20672333518E+03  0.00000000000E+00 0. -1.
<mgrwt>
<rscale>  1 0.30000000E+03</rscale>
<asrwt>0</asrwt>
<pdfrwt beam="1">  1       21 0.80968641E-02 0.30000000E+03</pdfrwt>
<pdfrwt beam="2">0</pdfrwt>
<totfact> 0.12506577E+04</totfact>
</mgrwt>
</event>
<event>
 6    1  0.1274196E-001  0.3000000E+03  0.7818608E-02  0.1093470E+00
         21   -1    0    0  501  502  0.00000000000E+00  0.00000000000E+00  0.42070623814E+01  0.42070623814E+01  0.00000000000E+00 0. -1.
         13   -1    0    0    0    0 -0.00000000000E+00 -0.00000000000E+00 -0.10000000000E+04  0.10000000000E+04  0.00000000000E+00 0.  1.
    9000005    2    1    2  501    0 -0.34973374588E+02 -0.29776232649E+02 -0.85219678872E+03  0.85344362206E+03  0.41095447990E+01 0.  0.
         13    1    3    3    0    0 -0.82155455977E+01 -0.54546302221E+01 -0.16117837827E+03  0.16147977521E+03  0.00000000000E+00 0.  1.
          1    1    3    3  501    0 -0.26757828991E+02 -0.24321602427E+02 -0.69101841045E+03  0.69196384685E+03  0.00000000000E+00 0.  1.
         -3    1    1    2    0  502  0.34973374588E+02  0.29776232649E+02 -0.14359614889E+03  0.15076344032E+03  0.00000000000E+00 0. -1.
<mgrwt>
<rscale>  1 0.30000000E+03</rscale>
<asrwt>0</asrwt>
<pdfrwt beam="1">  1       21 0.15298441E-01 0.30000000E+03</pdfrwt>
<pdfrwt beam="2">0</pdfrwt>
<totfact> 0.39704065E+03</totfact>
</mgrwt>
</event>
<event>
 6    1  0.1274196E-001  0.3000000E+03  0.7818608E-02  0.1093470E+00
         21   -1    0    0  501  502  0.00000000000E+00  0.00000000000E+00  0.20205299015E+01  0.20205299015E+01  0.00000000000E+00 0. -1.
         13   -1    0    0    0    0 -0.00000000000E+00 -0.00000000000E+00 -0.10000000000E+04  0.10000000000E+04  0.00000000000E+00 0.  1.
    9000005    2    1    2  501    0 -0.39352400432E+02 -0.18128592429E+02 -0.61587942588E+03  0.61747183198E+03  0.93133656696E+01 0.  0.
         13    1    3    3    0    0 -0.30933216819E+02 -0.10366517787E+02 -0.48254204699E+03  0.48364362469E+03  0.00000000000E+00 0.  1.
          1    1    3    3  501    0 -0.84191836130E+01 -0.77620746426E+01 -0.13333737889E+03  0.13382820729E+03  0.00000000000E+00 0.  1.
         -3    1    1    2    0  502  0.39352400432E+02  0.18128592429E+02 -0.38210004422E+03  0.38454869792E+03  0.00000000000E+00 0. -1.
<mgrwt>
<rscale>  1 0.30000000E+03</rscale>
<asrwt>0</asrwt>
<pdfrwt beam="1">  1       21 0.73473970E-02 0.30000000E+03</pdfrwt>
<pdfrwt beam="2">0</pdfrwt>
<totfact> 0.14828299E+04</totfact>
</mgrwt>
</event>
<event>
 6    1  0.1274196E-001  0.3000000E+03  0.7818608E-02  0.1093470E+00
         21   -1    0    0  501  502  0.00000000000E+00  0.00000000000E+00  0.13467731554E+01  0.13467731554E+01  0.00000000000E+00 0. -1.
         13   -1    0    0    0    0 -0.00000000000E+00 -0.00000000000E+00 -0.10000000000E+04  0.10000000000E+04  0.00000000000E+00 0.  1.
    9000005    2    1    2  501    0 -0.64754716100E+01  0.35996731605E+02 -0.47223833381E+03  0.47366283743E+03  0.31214130618E+01 0.  0.
         13    1    3    3    0    0 -0.32040218947E+01  0.25612067270E+02 -0.32757424259E+03  0.32858960445E+03  0.00000000000E+00 0.  1.
          3    1    3    3  501    0 -0.32714497153E+01  0.10384664335E+02 -0.14466409122E+03  0.14507323298E+03  0.00000000000E+00 0.  1.
         -3    1    1    2    0  502  0.64754716100E+01 -0.35996731605E+02 -0.52641489303E+03  0.52768393573E+03  0.00000000000E+00 0. -1.
<mgrwt>
<rscale>  1 0.30000000E+03</rscale>
<asrwt>0</asrwt>
<pdfrwt beam="1">  1       21 0.48973673E-02 0.30000000E+03</pdfrwt>
<pdfrwt beam="2">0</pdfrwt>
<totfact> 0.29840775E+04</totfact>
</mgrwt>
</event>
<event>
 6    1  0.1274196E-001  0.3000000E+03  0.7818608E-02  0.1093470E+00
         21   -1    0    0  501  502  0.00000000000E+00  0.00000000000E+00  0.28022145934E+01  0.28022145934E+01  0.00000000000E+00 0. -1.
         13   -1    0    0    0    0 -0.00000000000E+00 -0.00000000000E+00 -0.10000000000E+04  0.10000000000E+04  0.00000000000E+00 0.  1.
    9000005    2    1    2  501    0 -0.27203464494E+02  0.18347049617E+02 -0.89181410322E+03  0.89242847143E+03  0.44203161033E+01 0.  0.
         13    1    3    3    0    0 -0.85367244053E+00  0.57735028985E-03 -0.12977672034E+02  0.13005719064E+02  0.00000000000E+00 0.  1.
          1    1    3    3  501    0 -0.26349792054E+02  0.18346472267E+02 -0.87883643119E+03  0.87942275236E+03  0.00000000000E+00 0.  1.
         -3    1    1    2    0  502  0.27203464494E+02 -0.18347049617E+02 -0.10538368218E+03  0.11037374317E+03  0.00000000000E+00 0. -1.
<mgrwt>
<rscale>  1 0.30000000E+03</rscale>
<asrwt>0</asrwt>
<pdfrwt beam="1">  1       21 0.10189893E-01 0.30000000E+03</pdfrwt>
<pdfrwt beam="2">0</pdfrwt>
<totfact> 0.83186675E+03</totfact>
</mgrwt>
</event>
<event>
 6    1  0.1274196E-001  0.3000000E+03  0.7818608E-02  0.1093470E+00
         21   -1    0    0  501  502  0.00000000000E+00  0.00000000000E+00  0.50095417864E+01  0.50095417864E+01  0.00000000000E+00 0. -1.
         13   -1    0    0    0    0 -0.00000000000E+00 -0.00000000000E+00 -0.10000000000E+04  0.10000000000E+04  0.00000000000E+00 0.  1.
    9000005    2    1    2  501    0 -0.63833500989E+02 -0.26925092005E+02 -0.59937534212E+03  0.60337413933E+03  0.31424254053E+01 0.  0.
         13    1    3    3    0    0 -0.74615859470E+01 -0.22880668879E+01 -0.72862487549E+02  0.73279278154E+02  0.00000000000E+00 0.  1.
          1    1    3    3  501    0 -0.56371915042E+02 -0.24637025117E+02 -0.52651285457E+03  0.53009486117E+03  0.00000000000E+00 0.  1.
         -1    1    1    2    0  502  0.63833500989E+02  0.26925092005E+02 -0.39561511609E+03  0.40163540246E+03  0.00000000000E+00 0. -1.
<mgrwt>
<rscale>  1 0.30000000E+03</rscale>
<asrwt>0</asrwt>
<pdfrwt beam="1">  1       21 0.18216554E-01 0.30000000E+03</pdfrwt>
<pdfrwt beam="2">0</pdfrwt>
<totfact> 0.28642635E+03</totfact>
</mgrwt>
</event>
<event>
 6    1  0.1274196E-001  0.3000000E+03  0.7818608E-02  0.1093470E+00
         21   -1    0    0  501  502  0.00000000000E+00  0.00000000000E+00  0.15669100619E+01  0.15669100619E+01  0.00000000000E+00 0. -1.
         13   -1    0    0    0    0 -0.00000000000E+00 -0.00000000000E+00 -0.10000000000E+04  0.10000000000E+04  0.00000000000E+00 0.  1.
    9000005    2    1    2  501    0 -0.27406956723E+02  0.14244921753E+02 -0.81201515478E+03  0.81260737572E+03  0.28419005803E+01 0.  0.
         13    1    3    3    0    0 -0.22779263589E+02  0.11466552840E+02 -0.64118328855E+03  0.64169025721E+03  0.00000000000E+00 0.  1.
          1    1    3    3  501    0 -0.46276931348E+01  0.27783689125E+01 -0.17083186623E+03  0.17091711851E+03  0.00000000000E+00 0.  1.
         -3    1    1    2    0  502  0.27406956723E+02 -0.14244921753E+02 -0.18641793515E+03  0.18895953434E+03  0.00000000000E+00 0. -1.
<mgrwt>
<rscale>  1 0.30000000E+03</rscale>
<asrwt>0</asrwt>
<pdfrwt beam="1">  1       21 0.56978668E-02 0.30000000E+03</pdfrwt>
<pdfrwt beam="2">0</pdfrwt>
<totfact> 0.23033081E+04</totfact>
</mgrwt>
</event>
<event>
 6    1  0.1274196E-001  0.3000000E+03  0.7818608E-02  0.1093470E+00
         21   -1    0    0  501  502  0.00000000000E+00  0.00000000000E+00  0.13324312420E+01  0.13324312420E+01  0.00000000000E+00 0. -1.
         13   -1    0    0    0    0 -0.00000000000E+00 -0.00000000000E+00 -0.10000000000E+04  0.10000000000E+04  0.00000000000E+00 0.  1.
    9000005    2    1    2  501    0  0.10464563959E+02 -0.31077691151E+02 -0.71740276405E+03  0.71816248165E+03  0.39107790799E+01 0.  0.
         13    1    3    3    0    0  0.39646110606E+00 -0.27031434122E+01 -0.84230479002E+02  0.84274775341E+02  0.00000000000E+00 0.  1.
          3    1    3    3  501    0  0.10068102853E+02 -0.28374547738E+02 -0.63317228505E+03  0.63388770631E+03  0.00000000000E+00 0.  1.
         -1    1    1    2    0  502 -0.10464563959E+02  0.31077691151E+02 -0.28126480471E+03  0.28316994959E+03  0.00000000000E+00 0. -1.
<mgrwt>
<rscale>  1 0.30000000E+03</rscale>
<asrwt>0</asrwt>
<pdfrwt beam="1">  1       21 0.48452147E-02 0.30000000E+03</pdfrwt>
<pdfrwt beam="2">0</pdfrwt>
<totfact> 0.30389732E+04</totfact>
</mgrwt>
</event>
<event>
 6    1  0.1274196E-001  0.3000000E+03  0.7818608E-02  0.1093470E+00
         21   -1    0    0  501  502  0.00000000000E+00  0.00000000000E+00  0.40637172644E+01  0.40637172644E+01  0.00000000000E+00 0. -1.
         13   -1    0    0    0    0 -0.00000000000E+00 -0.00000000000E+00 -0.10000000000E+04  0.10000000000E+04  0.00000000000E+00 0.  1.
    9000005    2    1    2  501    0  0.40308726267E+02 -0.34361637659E+01 -0.88502885943E+03  0.88600840320E+03  0.99099889530E+01 0.  0.
         13    1    3    3    0    0  0.21592429927E+02  0.18026134949E+01 -0.39440293452E+03  0.39499766734E+03  0.00000000000E+00 0.  1.
          3    1    3    3  501    0  0.18716296341E+02 -0.52387772608E+01 -0.49062592491E+03  0.49101073586E+03  0.00000000000E+00 0.  1.
         -3    1    1    2    0  502 -0.40308726267E+02  0.34361637659E+01 -0.11090742330E+03  0.11805531406E+03  0.00000000000E+00 0. -1.
<mgrwt>
<rscale>  1 0.30000000E+03</rscale>
<asrwt>0</asrwt>
<pdfrwt beam="1">  1       21 0.14777185E-01 0.30000000E+03</pdfrwt>
<pdfrwt beam="2">0</pdfrwt>
<totfact> 0.42335969E+03</totfact>
</mgrwt>
</event>
<event>
 6    1  0.1274196E-001  0.3000000E+03  0.7818608E-02  0.1093470E+00
         21   -1    0    0  501  502  0.00000000000E+00  0.00000000000E+00  0.15512191426E+01  0.15512191426E+01  0.00000000000E+00 0. -1.
         13   -1    0    0    0    0 -0.00000000000E+00 -0.00000000000E+00 -0.10000000000E+04  0.10000000000E+04  0.00000000000E+00 0.  1.
    9000005    2    1    2  501    0 -0.21282676298E+02  0.24566538570E+02 -0.78129957975E+03  0.78198290934E+03  0.34307514741E+01 0.  0.
         13    1    3    3    0    0 -0.17907291203E+02  0.19349657948E+02 -0.65547969490E+03  0.65600968801E+03  0.00000000000E+00 0.  1.
          1    1    3    3  501    0 -0.33753850944E+01  0.52168806225E+01 -0.12581988486E+03  0.12597322133E+03  0.00000000000E+00 0.  1.
         -1    1    1    2    0  502  0.21282676298E+02 -0.24566538570E+02 -0.21714920111E+03  0.21956830980E+03  0.00000000000E+00 0. -1.
<mgrwt>
<rscale>  1 0.30000000E+03</rscale>
<asrwt>0</asrwt>
<pdfrwt beam="1">  1       21 0.56408088E-02 0.30000000E+03</pdfrwt>
<pdfrwt beam="2">0</pdfrwt>
<totfact> 0.23434978E+04</totfact>
</mgrwt>
</event>
<event>
 6    1  0.1274196E-001  0.3000000E+03  0.7818608E-02  0.1093470E+00
         21   -1    0    0  501  502  0.00000000000E+00  0.00000000000E+00  0.15088495803E+01  0.15088495803E+01  0.00000000000E+00 0. -1.
         13   -1    0    0    0    0 -0.00000000000E+00 -0.00000000000E+00 -0.10000000000E+04  0.10000000000E+04  0.00000000000E+00 0.  1.
    9000005    2    1    2  501    0  0.32217045165E+02 -0.81679046844E+01 -0.75760276383E+03  0.75833840019E+03  0.32448056785E+01 0.  0.
         13    1    3    3    0    0  0.26846587567E+02 -0.73230061879E+01 -0.65663120085E+03  0.65722058672E+03  0.00000000000E+00 0.  1.
          1    1    3    3  501    0  0.53704575976E+01 -0.84489849653E+00 -0.10097156298E+03  0.10111781346E+03  0.00000000000E+00 0.  1.
         -1    1    1    2    0  502 -0.32217045165E+02  0.81679046844E+01 -0.24088838659E+03  0.24317044940E+03  0.00000000000E+00 0. -1.
<mgrwt>
<rscale>  1 0.30000000E+03</rscale>
<asrwt>0</asrwt>
<pdfrwt beam="1">  1       21 0.54867373E-02 0.30000000E+03</pdfrwt>
<pdfrwt beam="2">0</pdfrwt>
<totfact> 0.24575667E+04</totfact>
</mgrwt>
</event>
<event>
 6    1  0.1274196E-001  0.3000000E+03  0.7818608E-02  0.1093470E+00
         21   -1    0    0  501  502  0.00000000000E+00  0.00000000000E+00  0.98324859039E+00  0.98324859039E+00  0.00000000000E+00 0. -1.
         13   -1    0    0    0    0 -0.00000000000E+00 -0.00000000000E+00 -0.10000000000E+04  0.10000000000E+04  0.00000000000E+00 0.  1.
    9000005    2    1    2  501    0 -0.26417637377E+02  0.15641796293E+02 -0.47166723606E+03  0.47274081496E+03  0.84462532474E+01 0.  0.
         13    1    3    3    0    0  0.21451920702E+00 -0.18482939713E+00 -0.24533801931E+02  0.24535435957E+02  0.00000000000E+00 0.  1.
          3    1    3    3  501    0 -0.26632156584E+02  0.15826625690E+02 -0.44713343413E+03  0.44820537900E+03  0.00000000000E+00 0.  1.
         -3    1    1    2    0  502  0.26417637377E+02 -0.15641796293E+02 -0.52734951535E+03  0.52824243363E+03  0.00000000000E+00 0. -1.
<mgrwt>
<rscale>  1 0.30000000E+03</rscale>
<asrwt>0</asrwt>
<pdfrwt beam="1">  1       21 0.35754570E-02 0.30000000E+03</pdfrwt>
<pdfrwt beam="2">0</pdfrwt>
<totfact> 0.50769339E+04</totfact>
</mgrwt>
</event>
<event>
 6    1  0.1274196E-001  0.3000000E+03  0.7818608E-02  0.1093470E+00
         21   -1    0    0  501  502  0.00000000000E+00  0.00000000000E+00  0.23637132272E+01  0.23637132272E+01  0.00000000000E+00 0. -1.
         13   -1    0    0    0    0 -0.00000000000E+00 -0.00000000000E+00 -0.10000000000E+04  0.10000000000E+04  0.00000000000E+00 0.  1.
    9000005    2    1    2  501    0  0.30794621640E+02 -0.28563375449E+02 -0.75090093456E+03  0.75207885717E+03  0.24937408241E+01 0.  0.
         13    1    3    3    0    0  0.18018127233E+01 -0.24803014998E+01 -0.50323671619E+02  0.50416964901E+02  0.00000000000E+00 0.  1.
          3    1    3    3  501    0  0.28992808917E+02 -0.26083073949E+02 -0.70057726294E+03  0.70166189227E+03  0.00000000000E+00 0.  1.
         -3    1    1    2    0  502 -0.30794621640E+02  0.28563375449E+02 -0.24673535222E+03  0.25028485606E+03  0.00000000000E+00 0. -1.
<mgrwt>
<rscale>  1 0.30000000E+03</rscale>
<asrwt>0</asrwt>
<pdfrwt beam="1">  1       21 0.85953390E-02 0.30000000E+03</pdfrwt>
<pdfrwt beam="2">0</pdfrwt>
<totfact> 0.11257557E+04</totfact>
</mgrwt>
</event>
<event>
 6    1  0.1274196E-001  0.3000000E+03  0.7818608E-02  0.1093470E+00
         21   -1    0    0  501  502  0.00000000000E+00  0.00000000000E+00  0.21700883321E+01  0.21700883321E+01  0.00000000000E+00 0. -1.
         13   -1    0    0    0    0 -0.00000000000E+00 -0.00000000000E+00 -0.10000000000E+04  0.10000000000E+04  0.00000000000E+00 0.  1.
    9000005    2    1    2  501    0 -0.30739136883E+02 -0.31377498314E+01 -0.87372352304E+03  0.87427507002E+03  0.30599571977E+01 0.  0.
         13    1    3    3    0    0 -0.27489476192E+02 -0.37067788449E+01 -0.77287784759E+03  0.77337544492E+03  0.00000000000E+00 0.  1.
          3    1    3    3  501    0 -0.32496606907E+01  0.56902901354E+00 -0.10084567545E+03  0.10089962510E+03  0.00000000000E+00 0.  1.
         -3    1    1    2    0  502  0.30739136883E+02  0.31377498314E+01 -0.12410638863E+03  0.12789501831E+03  0.00000000000E+00 0. -1.
<mgrwt>
<rscale>  1 0.30000000E+03</rscale>
<asrwt>0</asrwt>
<pdfrwt beam="1">  1       21 0.78912469E-02 0.30000000E+03</pdfrwt>
<pdfrwt beam="2">0</pdfrwt>
<totfact> 0.13084571E+04</totfact>
</mgrwt>
</event>
<event>
 6    1  0.1274196E-001  0.3000000E+03  0.7818608E-02  0.1093470E+00
         21   -1    0    0  501  502  0.00000000000E+00  0.00000000000E+00  0.41236076102E+01  0.41236076102E+01  0.00000000000E+00 0. -1.
         13   -1    0    0    0    0 -0.00000000000E+00 -0.00000000000E+00 -0.10000000000E+04  0.10000000000E+04  0.00000000000E+00 0.  1.
    9000005    2    1    2  501    0 -0.98536069446E+01  0.54324175024E+02 -0.75400868619E+03  0.75603451703E+03  0.32988681393E+01 0.  0.
         13    1    3    3    0    0 -0.24565391549E+01  0.18575843346E+02 -0.23856925017E+03  0.23930395665E+03  0.00000000000E+00 0.  1.
          1    1    3    3  501    0 -0.73970677897E+01  0.35748331678E+02 -0.51543943602E+03  0.51673056038E+03  0.00000000000E+00 0.  1.
         -1    1    1    2    0  502  0.98536069446E+01 -0.54324175024E+02 -0.24186770620E+03  0.24808909058E+03  0.00000000000E+00 0. -1.
<mgrwt>
<rscale>  1 0.30000000E+03</rscale>
<asrwt>0</asrwt>
<pdfrwt beam="1">  1       21 0.14994968E-01 0.30000000E+03</pdfrwt>
<pdfrwt beam="2">0</pdfrwt>
<totfact> 0.41205939E+03</totfact>
</mgrwt>
</event>
<event>
 6    1  0.1274196E-001  0.3000000E+03  0.7818608E-02  0.1093470E+00
         21   -1    0    0  501  502  0.00000000000E+00  0.00000000000E+00  0.98030981631E+00  0.98030981631E+00  0.00000000000E+00 0. -1.
         13   -1    0    0    0    0 -0.00000000000E+00 -0.00000000000E+00 -0.10000000000E+04  0.10000000000E+04  0.00000000000E+00 0.  1.
    9000005    2    1    2  501    0 -0.22202665411E+02 -0.20689151039E+02 -0.61845502099E+03  0.61920751514E+03  0.32147296872E+01 0.  0.
         13    1    3    3    0    0 -0.97656910128E+01 -0.71265647494E+01 -0.25795612813E+03  0.25823927022E+03  0.00000000000E+00 0.  1.
          3    1    3    3  501    0 -0.12436974398E+02 -0.13562586289E+02 -0.36049889286E+03  0.36096824491E+03  0.00000000000E+00 0.  1.
         -3    1    1    2    0  502  0.22202665411E+02  0.20689151039E+02 -0.38056466919E+03  0.38177279468E+03  0.00000000000E+00 0. -1.
<mgrwt>
<rscale>  1 0.30000000E+03</rscale>
<asrwt>0</asrwt>
<pdfrwt beam="1">  1       21 0.35647705E-02 0.30000000E+03</pdfrwt>
<pdfrwt beam="2">0</pdfrwt>
<totfact> 0.51024761E+04</totfact>
</mgrwt>
</event>
<event>
 6    1  0.1274196E-001  0.3000000E+03  0.7818608E-02  0.1093470E+00
         21   -1    0    0  501  502  0.00000000000E+00  0.00000000000E+00  0.30948763878E+01  0.30948763878E+01  0.00000000000E+00 0. -1.
         13   -1    0    0    0    0 -0.00000000000E+00 -0.00000000000E+00 -0.10000000000E+04  0.10000000000E+04  0.00000000000E+00 0.  1.
    9000005    2    1    2  501    0  0.15980502231E+01  0.31099426452E+02 -0.91386591986E+03  0.91440870244E+03  0.47568394920E+01 0.  0.
         13    1    3    3    0    0 -0.49424566924E+00  0.16543294959E+02 -0.42664181248E+03  0.42696271622E+03  0.00000000000E+00 0.  1.
          3    1    3    3  501    0  0.20922958924E+01  0.14556131493E+02 -0.48722410738E+03  0.48744598621E+03  0.00000000000E+00 0.  1.
         -3    1    1    2    0  502 -0.15980502231E+01 -0.31099426452E+02 -0.83039203752E+02  0.88686173950E+02  0.00000000000E+00 0. -1.
<mgrwt>
<rscale>  1 0.30000000E+03</rscale>
<asrwt>0</asrwt>
<pdfrwt beam="1">  1       21 0.11254120E-01 0.30000000E+03</pdfrwt>
<pdfrwt beam="2">0</pdfrwt>
<totfact> 0.69597861E+03</totfact>
</mgrwt>
</event>
<event>
 6    1  0.1274196E-001  0.3000000E+03  0.7818608E-02  0.1093470E+00
         21   -1    0    0  501  502  0.00000000000E+00  0.00000000000E+00  0.11221646857E+01  0.11221646857E+01  0.00000000000E+00 0. -1.
         13   -1    0    0    0    0 -0.00000000000E+00 -0.00000000000E+00 -0.10000000000E+04  0.10000000000E+04  0.00000000000E+00 0.  1.
    9000005    2    1    2  501    0 -0.25602945420E+02  0.19283186189E+02 -0.64085704398E+03  0.64166947084E+03  0.38218985048E+01 0.  0.
         13    1    3    3    0    0 -0.23238054809E+01  0.32977596745E+01 -0.84265039983E+02  0.84361556732E+02  0.00000000000E+00 0.  1.
          1    1    3    3  501    0 -0.23279139939E+02  0.15985426514E+02 -0.55659200399E+03  0.55730791411E+03  0.00000000000E+00 0.  1.
         -3    1    1    2    0  502  0.25602945420E+02 -0.19283186189E+02 -0.35802079134E+03  0.35945269385E+03  0.00000000000E+00 0. -1.
<mgrwt>
<rscale>  1 0.30000000E+03</rscale>
<asrwt>0</asrwt>
<pdfrwt beam="1">  1       21 0.40806075E-02 0.30000000E+03</pdfrwt>
<pdfrwt beam="2">0</pdfrwt>
<totfact> 0.40657339E+04</totfact>
</mgrwt>
</event>
<event>
 6    1  0.1274196E-001  0.3000000E+03  0.7818608E-02  0.1093470E+00
         21   -1    0    0  501  502  0.00000000000E+00  0.00000000000E+00  0.21289662108E+01  0.21289662108E+01  0.00000000000E+00 0. -1.
         13   -1    0    0    0    0 -0.00000000000E+00 -0.00000000000E+00 -0.10000000000E+04  0.10000000000E+04  0.00000000000E+00 0.  1.
    9000005    2    1    2  501    0 -0.43314469125E+02 -0.98661802019E+01 -0.63231618196E+03  0.63388470700E+03  0.35472595098E+01 0.  0.
         13    1    3    3    0    0 -0.10062312356E+01 -0.16819228052E-01 -0.23016786674E+02  0.23038777159E+02  0.00000000000E+00 0.  1.
          3    1    3    3  501    0 -0.42308237890E+02 -0.98493609739E+01 -0.60929939529E+03  0.61084592984E+03  0.00000000000E+00 0.  1.
         -3    1    1    2    0  502  0.43314469125E+02  0.98661802019E+01 -0.36555485183E+03  0.36824425921E+03  0.00000000000E+00 0. -1.
<mgrwt>
<rscale>  1 0.30000000E+03</rscale>
<asrwt>0</asrwt>
<pdfrwt beam="1">  1       21 0.77417116E-02 0.30000000E+03</pdfrwt>
<pdfrwt beam="2">0</pdfrwt>
<totfact> 0.13531159E+04</totfact>
</mgrwt>
</event>
<event>
 6    1  0.1274196E-001  0.3000000E+03  0.7818608E-02  0.1093470E+00
         21   -1    0    0  501  502  0.00000000000E+00  0.00000000000E+00  0.29860167560E+01  0.29860167560E+01  0.00000000000E+00 0. -1.
         13   -1    0    0    0    0 -0.00000000000E+00 -0.00000000000E+00 -0.10000000000E+04  0.10000000000E+04  0.00000000000E+00 0.  1.
    9000005    2    1    2  501    0  0.28012571538E+01  0.45389236463E+02 -0.77606492060E+03  0.77740561399E+03  0.38337775590E+01 0.  0.
         13    1    3    3    0    0  0.67139064453E+00  0.35174177197E+02 -0.58829237657E+03  0.58934335818E+03  0.00000000000E+00 0.  1.
          3    1    3    3  501    0  0.21298665092E+01  0.10215059266E+02 -0.18777254403E+03  0.18806225581E+03  0.00000000000E+00 0.  1.
         -1    1    1    2    0  502 -0.28012571538E+01 -0.45389236463E+02 -0.22094906264E+03  0.22558040277E+03  0.00000000000E+00 0. -1.
<mgrwt>
<rscale>  1 0.30000000E+03</rscale>
<asrwt>0</asrwt>
<pdfrwt beam="1">  1       21 0.10858266E-01 0.30000000E+03</pdfrwt>
<pdfrwt beam="2">0</pdfrwt>
<totfact> 0.74231243E+03</totfact>
</mgrwt>
</event>
<event>
 6    1  0.1274196E-001  0.3000000E+03  0.7818608E-02  0.1093470E+00
         21   -1    0    0  501  502  0.00000000000E+00  0.00000000000E+00  0.17347135439E+01  0.17347135439E+01  0.00000000000E+00 0. -1.
         13   -1    0    0    0    0 -0.00000000000E+00 -0.00000000000E+00 -0.10000000000E+04  0.10000000000E+04  0.00000000000E+00 0.  1.
    9000005    2    1    2  501    0  0.30050262192E+02 -0.78751255742E+01 -0.83242587240E+03  0.83301083523E+03  0.30302970218E+01 0.  0.
         13    1    3    3    0    0  0.27516583878E+02 -0.63320096097E+01 -0.75929347613E+03  0.75981829382E+03  0.00000000000E+00 0.  1.
          1    1    3    3  501    0  0.25336783134E+01 -0.15431159645E+01 -0.73132396277E+02  0.73192541409E+02  0.00000000000E+00 0.  1.
         -3    1    1    2    0  502 -0.30050262192E+02  0.78751255742E+01 -0.16583941405E+03  0.16872387832E+03  0.00000000000E+00 0. -1.
<mgrwt>
<rscale>  1 0.30000000E+03</rscale>
<asrwt>0</asrwt>
<pdfrwt beam="1">  1       21 0.63080626E-02 0.30000000E+03</pdfrwt>
<pdfrwt beam="2">0</pdfrwt>
<totfact> 0.19326639E+04</totfact>
</mgrwt>
</event>
<event>
 6    1  0.1274196E-001  0.3000000E+03  0.7818608E-02  0.1093470E+00
         21   -1    0    0  501  502  0.00000000000E+00  0.00000000000E+00  0.18063385452E+01  0.18063385452E+01  0.00000000000E+00 0. -1.
         13   -1    0    0    0    0 -0.00000000000E+00 -0.00000000000E+00 -0.10000000000E+04  0.10000000000E+04  0.00000000000E+00 0.  1.
    9000005    2    1    2  501    0 -0.15507433696E+02  0.34019983970E+02 -0.73630603355E+03  0.73726339409E+03  0.35912978408E+01 0.  0.
         13    1    3    3    0    0  0.45425959689E-01  0.15723412455E+01 -0.28686905874E+02  0.28729999811E+02  0.00000000000E+00 0.  1.
          3    1    3    3  501    0 -0.15552859656E+02  0.32447642725E+02 -0.70761912767E+03  0.70853339428E+03  0.00000000000E+00 0.  1.
         -3    1    1    2    0  502  0.15507433696E+02 -0.34019983970E+02 -0.26188762791E+03  0.26454294445E+03  0.00000000000E+00 0. -1.
<mgrwt>
<rscale>  1 0.30000000E+03</rscale>
<asrwt>0</asrwt>
<pdfrwt beam="1">  1       21 0.65685177E-02 0.30000000E+03</pdfrwt>
<pdfrwt beam="2">0</pdfrwt>
<totfact> 0.18019796E+04</totfact>
</mgrwt>
</event>
<event>
 6    1  0.1274196E-001  0.3000000E+03  0.7818608E-02  0.1093470E+00
         21   -1    0    0  501  502  0.00000000000E+00  0.00000000000E+00  0.12602951247E+01  0.12602951247E+01  0.00000000000E+00 0. -1.
         13   -1    0    0    0    0 -0.00000000000E+00 -0.00000000000E+00 -0.10000000000E+04  0.10000000000E+04  0.00000000000E+00 0.  1.
    9000005    2    1    2  501    0 -0.65721449176E+01 -0.34714193041E+02 -0.53113289578E+03  0.53232064421E+03  0.38531786480E+01 0.  0.
         13    1    3    3    0    0 -0.70527302688E+01 -0.33481800528E+02 -0.51059206151E+03  0.51173726193E+03  0.00000000000E+00 0.  1.
          1    1    3    3  501    0  0.48058535119E+00 -0.12323925131E+01 -0.20540834269E+02  0.20583382280E+02  0.00000000000E+00 0.  1.
         -1    1    1    2    0  502  0.65721449176E+01  0.34714193041E+02 -0.46760680909E+03  0.46893965091E+03  0.00000000000E+00 0. -1.
<mgrwt>
<rscale>  1 0.30000000E+03</rscale>
<asrwt>0</asrwt>
<pdfrwt beam="1">  1       21 0.45829010E-02 0.30000000E+03</pdfrwt>
<pdfrwt beam="2">0</pdfrwt>
<totfact> 0.33406471E+04</totfact>
</mgrwt>
</event>
<event>
 6    1  0.1274196E-001  0.3000000E+03  0.7818608E-02  0.1093470E+00
         21   -1    0    0  501  502  0.00000000000E+00  0.00000000000E+00  0.33848572341E+01  0.33848572341E+01  0.00000000000E+00 0. -1.
         13   -1    0    0    0    0 -0.00000000000E+00 -0.00000000000E+00 -0.10000000000E+04  0.10000000000E+04  0.00000000000E+00 0.  1.
    9000005    2    1    2  501    0 -0.49532053482E+02 -0.29403484760E+02 -0.47360519410E+03  0.47721245617E+03  0.10576351306E+02 0.  0.
         13    1    3    3    0    0 -0.19263750349E+02 -0.10269651006E+02 -0.22221279880E+03  0.22328252453E+03  0.00000000000E+00 0.  1.
          1    1    3    3  501    0 -0.30268303133E+02 -0.19133833754E+02 -0.25139239530E+03  0.25392993164E+03  0.00000000000E+00 0.  1.
         -3    1    1    2    0  502  0.49532053482E+02  0.29403484760E+02 -0.52300994866E+03  0.52617240106E+03  0.00000000000E+00 0. -1.
<mgrwt>
<rscale>  1 0.30000000E+03</rscale>
<asrwt>0</asrwt>
<pdfrwt beam="1">  1       21 0.12308598E-01 0.30000000E+03</pdfrwt>
<pdfrwt beam="2">0</pdfrwt>
<totfact> 0.59176177E+03</totfact>
</mgrwt>
</event>
<event>
 6    1  0.1274196E-001  0.3000000E+03  0.7818608E-02  0.1093470E+00
         21   -1    0    0  501  502  0.00000000000E+00  0.00000000000E+00  0.13752388764E+01  0.13752388764E+01  0.00000000000E+00 0. -1.
         13   -1    0    0    0    0 -0.00000000000E+00 -0.00000000000E+00 -0.10000000000E+04  0.10000000000E+04  0.00000000000E+00 0.  1.
    9000005    2    1    2  501    0  0.12758669432E+02 -0.32985495477E+02 -0.64713680676E+03  0.64811243498E+03  0.35854076873E+01 0.  0.
         13    1    3    3    0    0  0.86618701052E+01 -0.22758819619E+02 -0.41412621744E+03  0.41484155510E+03  0.00000000000E+00 0.  1.
          1    1    3    3  501    0  0.40967993269E+01 -0.10226675858E+02 -0.23301058932E+03  0.23327087988E+03  0.00000000000E+00 0.  1.
         -1    1    1    2    0  502 -0.12758669432E+02  0.32985495477E+02 -0.35148795436E+03  0.35326280390E+03  0.00000000000E+00 0. -1.
<mgrwt>
<rscale>  1 0.30000000E+03</rscale>
<asrwt>0</asrwt>
<pdfrwt beam="1">  1       21 0.50008792E-02 0.30000000E+03</pdfrwt>
<pdfrwt beam="2">0</pdfrwt>
<totfact> 0.28796023E+04</totfact>
</mgrwt>
</event>
<event>
 6    1  0.1274196E-001  0.3000000E+03  0.7818608E-02  0.1093470E+00
         21   -1    0    0  501  502  0.00000000000E+00  0.00000000000E+00  0.17841875735E+01  0.17841875735E+01  0.00000000000E+00 0. -1.
         13   -1    0    0    0    0 -0.00000000000E+00 -0.00000000000E+00 -0.10000000000E+04  0.10000000000E+04  0.00000000000E+00 0.  1.
    9000005    2    1    2  501    0 -0.38643256002E+02  0.16537694536E+02 -0.54129865529E+03  0.54293771536E+03  0.32143380187E+01 0.  0.
         13    1    3    3    0    0 -0.22583899127E+02  0.10895691830E+02 -0.30812292106E+03  0.30914152597E+03  0.00000000000E+00 0.  1.
          3    1    3    3  501    0 -0.16059356876E+02  0.56420027059E+01 -0.23317573424E+03  0.23379618939E+03  0.00000000000E+00 0.  1.
         -1    1    1    2    0  502  0.38643256002E+02 -0.16537694536E+02 -0.45691715713E+03  0.45884647221E+03  0.00000000000E+00 0. -1.
<mgrwt>
<rscale>  1 0.30000000E+03</rscale>
<asrwt>0</asrwt>
<pdfrwt beam="1">  1       21 0.64879685E-02 0.30000000E+03</pdfrwt>
<pdfrwt beam="2">0</pdfrwt>
<totfact> 0.18408999E+04</totfact>
</mgrwt>
</event>
<event>
 6    1  0.1274196E-001  0.3000000E+03  0.7818608E-02  0.1093470E+00
         21   -1    0    0  501  502  0.00000000000E+00  0.00000000000E+00  0.37802821203E+01  0.37802821203E+01  0.00000000000E+00 0. -1.
         13   -1    0    0    0    0 -0.00000000000E+00 -0.00000000000E+00 -0.10000000000E+04  0.10000000000E+04  0.00000000000E+00 0.  1.
    9000005    2    1    2  501    0 -0.50208500864E+02 -0.19442665618E+01 -0.78705903124E+03  0.78866899333E+03  0.34912239955E+01 0.  0.
         13    1    3    3    0    0 -0.20507165856E+02  0.83631056849E+00 -0.32923752363E+03  0.32987662881E+03  0.00000000000E+00 0.  1.
          1    1    3    3  501    0 -0.29701335008E+02 -0.27805771303E+01 -0.45782150761E+03  0.45879236452E+03  0.00000000000E+00 0.  1.
         -1    1    1    2    0  502  0.50208500864E+02  0.19442665618E+01 -0.20916068664E+03  0.21511128880E+03  0.00000000000E+00 0. -1.
<mgrwt>
<rscale>  1 0.30000000E+03</rscale>
<asrwt>0</asrwt>
<pdfrwt beam="1">  1       21 0.13746509E-01 0.30000000E+03</pdfrwt>
<pdfrwt beam="2">0</pdfrwt>
<totfact> 0.48362140E+03</totfact>
</mgrwt>
</event>
<event>
 6    1  0.1274196E-001  0.3000000E+03  0.7818608E-02  0.1093470E+00
         21   -1    0    0  501  502  0.00000000000E+00  0.00000000000E+00  0.17329093794E+01  0.17329093794E+01  0.00000000000E+00 0. -1.
         13   -1    0    0    0    0 -0.00000000000E+00 -0.00000000000E+00 -0.10000000000E+04  0.10000000000E+04  0.00000000000E+00 0.  1.
    9000005    2    1    2  501    0  0.25949755809E+02  0.20583084593E+02 -0.80197675047E+03  0.80266771696E+03  0.34208700643E+01 0.  0.
         13    1    3    3    0    0  0.25302848671E+02  0.19851185159E+02 -0.76090184801E+03  0.76158120119E+03  0.00000000000E+00 0.  1.
          3    1    3    3  501    0  0.64690713784E+00  0.73189943393E+00 -0.41074902457E+02  0.41086515762E+02  0.00000000000E+00 0.  1.
         -1    1    1    2    0  502 -0.25949755809E+02 -0.20583084593E+02 -0.19629034015E+03  0.19906519242E+03  0.00000000000E+00 0. -1.
<mgrwt>
<rscale>  1 0.30000000E+03</rscale>
<asrwt>0</asrwt>
<pdfrwt beam="1">  1       21 0.63015019E-02 0.30000000E+03</pdfrwt>
<pdfrwt beam="2">0</pdfrwt>
<totfact> 0.19361432E+04</totfact>
</mgrwt>
</event>
<event>
 6    1  0.1274196E-001  0.3000000E+03  0.7818608E-02  0.1093470E+00
         21   -1    0    0  501  502  0.00000000000E+00  0.00000000000E+00  0.54647056227E+01  0.54647056227E+01  0.00000000000E+00 0. -1.
         13   -1    0    0    0    0 -0.00000000000E+00 -0.00000000000E+00 -0.10000000000E+04  0.10000000000E+04  0.00000000000E+00 0.  1.
    9000005    2    1    2  501    0 -0.61315377679E+02 -0.37490632201E+02 -0.61399300571E+03  0.61819534652E+03  0.35989365116E+01 0.  0.
         13    1    3    3    0    0 -0.48228071512E+02 -0.30254087421E+02 -0.49713490076E+03  0.50038421862E+03  0.00000000000E+00 0.  1.
          1    1    3    3  501    0 -0.13087306167E+02 -0.72365447797E+01 -0.11685810496E+03  0.11781112790E+03  0.00000000000E+00 0.  1.
         -1    1    1    2    0  502  0.61315377679E+02  0.37490632201E+02 -0.38054228866E+03  0.38726935911E+03  0.00000000000E+00 0. -1.
<mgrwt>
<rscale>  1 0.30000000E+03</rscale>
<asrwt>0</asrwt>
<pdfrwt beam="1">  1       21 0.19871699E-01 0.30000000E+03</pdfrwt>
<pdfrwt beam="2">0</pdfrwt>
<totfact> 0.24288660E+03</totfact>
</mgrwt>
</event>
<event>
 6    1  0.1274196E-001  0.3000000E+03  0.7818608E-02  0.1093470E+00
         21   -1    0    0  501  502  0.00000000000E+00  0.00000000000E+00  0.21168989909E+01  0.21168989909E+01  0.00000000000E+00 0. -1.
         13   -1    0    0    0    0 -0.00000000000E+00 -0.00000000000E+00 -0.10000000000E+04  0.10000000000E+04  0.00000000000E+00 0.  1.
    9000005    2    1    2  501    0 -0.82558682938E+01  0.36415122622E+02 -0.79125407507E+03  0.79214124593E+03  0.32437131805E+01 0.  0.
         13    1    3    3    0    0  0.27257241059E+00  0.65581838876E+00 -0.12989397499E+02  0.13008798594E+02  0.00000000000E+00 0.  1.
          1    1    3    3  501    0 -0.85284407044E+01  0.35759304234E+02 -0.77826467757E+03  0.77913244734E+03  0.00000000000E+00 0.  1.
         -3    1    1    2    0  502  0.82558682938E+01 -0.36415122622E+02 -0.20662902594E+03  0.20997565306E+03  0.00000000000E+00 0. -1.
<mgrwt>
<rscale>  1 0.30000000E+03</rscale>
<asrwt>0</asrwt>
<pdfrwt beam="1">  1       21 0.76978307E-02 0.30000000E+03</pdfrwt>
<pdfrwt beam="2">0</pdfrwt>
<totfact> 0.13666677E+04</totfact>
</mgrwt>
</event>
<event>
 6    1  0.1274196E-001  0.3000000E+03  0.7818608E-02  0.1093470E+00
         21   -1    0    0  501  502  0.00000000000E+00  0.00000000000E+00  0.99961011919E+00  0.99961011919E+00  0.00000000000E+00 0. -1.
         13   -1    0    0    0    0 -0.00000000000E+00 -0.00000000000E+00 -0.10000000000E+04  0.10000000000E+04  0.00000000000E+00 0.  1.
    9000005    2    1    2  501    0  0.30653311324E+02 -0.56937041655E+01 -0.57711563134E+03  0.57796439498E+03  0.28889722583E+01 0.  0.
         13    1    3    3    0    0  0.29548157667E+02 -0.60153452562E+01 -0.55791539042E+03  0.55872968497E+03  0.00000000000E+00 0.  1.
          1    1    3    3  501    0  0.11051536565E+01  0.32164109066E+00 -0.19200240924E+02  0.19234710009E+02  0.00000000000E+00 0.  1.
         -3    1    1    2    0  502 -0.30653311324E+02  0.56937041655E+01 -0.42188475854E+03  0.42303521514E+03  0.00000000000E+00 0. -1.
<mgrwt>
<rscale>  1 0.30000000E+03</rscale>
<asrwt>0</asrwt>
<pdfrwt beam="1">  1       21 0.36349536E-02 0.30000000E+03</pdfrwt>
<pdfrwt beam="2">0</pdfrwt>
<totfact> 0.49383484E+04</totfact>
</mgrwt>
</event>
<event>
 6    1  0.1274196E-001  0.3000000E+03  0.7818608E-02  0.1093470E+00
         21   -1    0    0  501  502  0.00000000000E+00  0.00000000000E+00  0.23101151479E+01  0.23101151479E+01  0.00000000000E+00 0. -1.
         13   -1    0    0    0    0 -0.00000000000E+00 -0.00000000000E+00 -0.10000000000E+04  0.10000000000E+04  0.00000000000E+00 0.  1.
    9000005    2    1    2  501    0 -0.25717405966E+02 -0.39502639233E+02 -0.40687601132E+03  0.40961889990E+03  0.42084546144E+01 0.  0.
         13    1    3    3    0    0 -0.35235826125E+01 -0.31846633368E+01 -0.43700330104E+02  0.43957667889E+02  0.00000000000E+00 0.  1.
          3    1    3    3  501    0 -0.22193823354E+02 -0.36317975896E+02 -0.36317568121E+03  0.36566123201E+03  0.00000000000E+00 0.  1.
         -1    1    1    2    0  502  0.25717405966E+02  0.39502639233E+02 -0.59081387354E+03  0.59269121525E+03  0.00000000000E+00 0. -1.
<mgrwt>
<rscale>  1 0.30000000E+03</rscale>
<asrwt>0</asrwt>
<pdfrwt beam="1">  1       21 0.84004364E-02 0.30000000E+03</pdfrwt>
<pdfrwt beam="2">0</pdfrwt>
<totfact> 0.11722199E+04</totfact>
</mgrwt>
</event>
<event>
 6    1  0.1274196E-001  0.3000000E+03  0.7818608E-02  0.1093470E+00
         21   -1    0    0  501  502  0.00000000000E+00  0.00000000000E+00  0.15222237339E+01  0.15222237339E+01  0.00000000000E+00 0. -1.
         13   -1    0    0    0    0 -0.00000000000E+00 -0.00000000000E+00 -0.10000000000E+04  0.10000000000E+04  0.00000000000E+00 0.  1.
    9000005    2    1    2  501    0 -0.35720605382E+02 -0.97417312784E+01 -0.34588938161E+03  0.34788434554E+03  0.36318838581E+01 0.  0.
         13    1    3    3    0    0 -0.18620177315E+02 -0.34591547298E+01 -0.18494709366E+03  0.18591423885E+03  0.00000000000E+00 0.  1.
          3    1    3    3  501    0 -0.17100428066E+02 -0.62825765486E+01 -0.16094228795E+03  0.16197010669E+03  0.00000000000E+00 0.  1.
         -1    1    1    2    0  502  0.35720605382E+02  0.97417312784E+01 -0.65258839465E+03  0.65363787820E+03  0.00000000000E+00 0. -1.
<mgrwt>
<rscale>  1 0.30000000E+03</rscale>
<asrwt>0</asrwt>
<pdfrwt beam="1">  1       21 0.55353707E-02 0.30000000E+03</pdfrwt>
<pdfrwt beam="2">0</pdfrwt>
<totfact> 0.24206543E+04</totfact>
</mgrwt>
</event>
<event>
 6    1  0.1274196E-001  0.3000000E+03  0.7818608E-02  0.1093470E+00
         21   -1    0    0  501  502  0.00000000000E+00  0.00000000000E+00  0.10536657130E+01  0.10536657130E+01  0.00000000000E+00 0. -1.
         13   -1    0    0    0    0 -0.00000000000E+00 -0.00000000000E+00 -0.10000000000E+04  0.10000000000E+04  0.00000000000E+00 0.  1.
    9000005    2    1    2  501    0  0.15719354020E+02  0.26646376125E+02 -0.35148937847E+03  0.35285798763E+03  0.26170221147E+01 0.  0.
         13    1    3    3    0    0  0.64094490469E+01  0.13327625261E+02 -0.16318465776E+03  0.16385340754E+03  0.00000000000E+00 0.  1.
          3    1    3    3  501    0  0.93099049734E+01  0.13318750864E+02 -0.18830472070E+03  0.18900458009E+03  0.00000000000E+00 0.  1.
         -3    1    1    2    0  502 -0.15719354020E+02 -0.26646376125E+02 -0.64745695582E+03  0.64819567809E+03  0.00000000000E+00 0. -1.
<mgrwt>
<rscale>  1 0.30000000E+03</rscale>
<asrwt>0</asrwt>
<pdfrwt beam="1">  1       21 0.38315198E-02 0.30000000E+03</pdfrwt>
<pdfrwt beam="2">0</pdfrwt>
<totfact> 0.45204223E+04</totfact>
</mgrwt>
</event>
<event>
 6    1  0.1274196E-001  0.3000000E+03  0.7818608E-02  0.1093470E+00
         21   -1    0    0  501  502  0.00000000000E+00  0.00000000000E+00  0.21467427448E+01  0.21467427448E+01  0.00000000000E+00 0. -1.
         13   -1    0    0    0    0 -0.00000000000E+00 -0.00000000000E+00 -0.10000000000E+04  0.10000000000E+04  0.00000000000E+00 0.  1.
    9000005    2    1    2  501    0 -0.13486291390E+02 -0.29655323259E+02 -0.85494135935E+03  0.85556867885E+03  0.34231629491E+01 0.  0.
         13    1    3    3    0    0 -0.86548802095E+01 -0.21221725519E+02 -0.63243616999E+03  0.63285130773E+03  0.00000000000E+00 0.  1.
          1    1    3    3  501    0 -0.48314111802E+01 -0.84335977397E+01 -0.22250518936E+03  0.22271737111E+03  0.00000000000E+00 0.  1.
         -1    1    1    2    0  502  0.13486291390E+02  0.29655323259E+02 -0.14291189790E+03  0.14657806390E+03  0.00000000000E+00 0. -1.
<mgrwt>
<rscale>  1 0.30000000E+03</rscale>
<asrwt>0</asrwt>
<pdfrwt beam="1">  1       21 0.78063537E-02 0.30000000E+03</pdfrwt>
<pdfrwt beam="2">0</pdfrwt>
<totfact> 0.13335267E+04</totfact>
</mgrwt>
</event>
<event>
 6    1  0.1274196E-001  0.3000000E+03  0.7818608E-02  0.1093470E+00
         21   -1    0    0  501  502  0.00000000000E+00  0.00000000000E+00  0.11283724558E+01  0.11283724558E+01  0.00000000000E+00 0. -1.
         13   -1    0    0    0    0 -0.00000000000E+00 -0.00000000000E+00 -0.10000000000E+04  0.10000000000E+04  0.00000000000E+00 0.  1.
    9000005    2    1    2  501    0 -0.30814204778E+02 -0.36637754167E+01 -0.68825268645E+03  0.68896324783E+03  0.39570175670E+01 0.  0.
         13    1    3    3    0    0 -0.23658843925E+02 -0.35646917449E+01 -0.56030088248E+03  0.56081148957E+03  0.00000000000E+00 0.  1.
          1    1    3    3  501    0 -0.71553608524E+01 -0.99083671776E-01 -0.12795180397E+03  0.12815175826E+03  0.00000000000E+00 0.  1.
         -3    1    1    2    0  502  0.30814204778E+02  0.36637754167E+01 -0.31061894109E+03  0.31216512462E+03  0.00000000000E+00 0. -1.
<mgrwt>
<rscale>  1 0.30000000E+03</rscale>
<asrwt>0</asrwt>
<pdfrwt beam="1">  1       21 0.41031812E-02 0.30000000E+03</pdfrwt>
<pdfrwt beam="2">0</pdfrwt>
<totfact> 0.40280918E+04</totfact>
</mgrwt>
</event>
<event>
 6    1  0.1274196E-001  0.3000000E+03  0.7818608E-02  0.1093470E+00
         21   -1    0    0  501  502  0.00000000000E+00  0.00000000000E+00  0.45989088636E+01  0.45989088636E+01  0.00000000000E+00 0. -1.
         13   -1    0    0    0    0 -0.00000000000E+00 -0.00000000000E+00 -0.10000000000E+04  0.10000000000E+04  0.00000000000E+00 0.  1.
    9000005    2    1    2  501    0  0.35902556708E+02 -0.21462994590E+02 -0.89300435746E+03  0.89398812827E+03  0.28874449146E+01 0.  0.
         13    1    3    3    0    0  0.12699064819E+02 -0.87329401238E+01 -0.35002869059E+03  0.35036782775E+03  0.00000000000E+00 0.  1.
          3    1    3    3  501    0  0.23203491890E+02 -0.12730054467E+02 -0.54297566687E+03  0.54362030052E+03  0.00000000000E+00 0.  1.
         -3    1    1    2    0  502 -0.35902556708E+02  0.21462994590E+02 -0.10239673368E+03  0.11061078059E+03  0.00000000000E+00 0. -1.
<mgrwt>
<rscale>  1 0.30000000E+03</rscale>
<asrwt>0</asrwt>
<pdfrwt beam="1">  1       21 0.16723340E-01 0.30000000E+03</pdfrwt>
<pdfrwt beam="2">0</pdfrwt>
<totfact> 0.33632344E+03</totfact>
</mgrwt>
</event>
<event>
 6    1  0.1274196E-001  0.3000000E+03  0.7818608E-02  0.1093470E+00
         21   -1    0    0  501  502  0.00000000000E+00  0.00000000000E+00  0.21772515908E+02  0.21772515908E+02  0.00000000000E+00 0. -1.
         13   -1    0    0    0    0 -0.00000000000E+00 -0.00000000000E+00 -0.10000000000E+04  0.10000000000E+04  0.00000000000E+00 0.  1.
    9000005    2    1    2  501    0 -0.63505677981E+02 -0.16814848040E+02 -0.94656289544E+03  0.94884545355E+03  0.32664104799E+01 0.  0.
         13    1    3    3    0    0 -0.92012567958E+01 -0.21994432171E+01 -0.12087394051E+03  0.12124359848E+03  0.00000000000E+00 0.  1.
          3    1    3    3  501    0 -0.54304421186E+02 -0.14615404823E+02 -0.82568895493E+03  0.82760185507E+03  0.00000000000E+00 0.  1.
         -1    1    1    2    0  502  0.63505677981E+02  0.16814848040E+02 -0.31664588651E+02  0.72927062363E+02  0.00000000000E+00 0. -1.
<mgrwt>
<rscale>  1 0.30000000E+03</rscale>
<asrwt>0</asrwt>
<pdfrwt beam="1">  1       21 0.79172952E-01 0.30000000E+03</pdfrwt>
<pdfrwt beam="2">0</pdfrwt>
<totfact> 0.13194803E+02</totfact>
</mgrwt>
</event>
<event>
 6    1  0.1274196E-001  0.3000000E+03  0.7818608E-02  0.1093470E+00
         21   -1    0    0  501  502  0.00000000000E+00  0.00000000000E+00  0.19417699387E+01  0.19417699387E+01  0.00000000000E+00 0. -1.
         13   -1    0    0    0    0 -0.00000000000E+00 -0.00000000000E+00 -0.10000000000E+04  0.10000000000E+04  0.00000000000E+00 0.  1.
    9000005    2    1    2  501    0  0.31376735695E+02  0.66923744340E+00 -0.85042797347E+03  0.85101251471E+03  0.31007607333E+01 0.  0.
         13    1    3    3    0    0  0.27139436649E+02  0.50601237044E+00 -0.76123071537E+03  0.76171451810E+03  0.00000000000E+00 0.  1.
          3    1    3    3  501    0  0.42372990459E+01  0.16322507297E+00 -0.89197258100E+02  0.89297996608E+02  0.00000000000E+00 0.  1.
         -1    1    1    2    0  502 -0.31376735695E+02 -0.66923744340E+00 -0.14763025659E+03  0.15092925523E+03  0.00000000000E+00 0. -1.
<mgrwt>
<rscale>  1 0.30000000E+03</rscale>
<asrwt>0</asrwt>
<pdfrwt beam="1">  1       21 0.70609965E-02 0.30000000E+03</pdfrwt>
<pdfrwt beam="2">0</pdfrwt>
<totfact> 0.15893402E+04</totfact>
</mgrwt>
</event>
<event>
 6    1  0.1274196E-001  0.3000000E+03  0.7818608E-02  0.1093470E+00
         21   -1    0    0  501  502  0.00000000000E+00  0.00000000000E+00  0.12392668499E+01  0.12392668499E+01  0.00000000000E+00 0. -1.
         13   -1    0    0    0    0 -0.00000000000E+00 -0.00000000000E+00 -0.10000000000E+04  0.10000000000E+04  0.00000000000E+00 0.  1.
    9000005    2    1    2  501    0  0.25535372706E+02  0.18616224946E+02 -0.71605483078E+03  0.71677266718E+03  0.54696113618E+01 0.  0.
         13    1    3    3    0    0  0.22371138572E+02  0.13751170111E+02 -0.59239387098E+03  0.59297559890E+03  0.00000000000E+00 0.  1.
          3    1    3    3  501    0  0.31642341337E+01  0.48650548346E+01 -0.12366095980E+03  0.12379706828E+03  0.00000000000E+00 0.  1.
         -3    1    1    2    0  502 -0.25535372706E+02 -0.18616224946E+02 -0.28270590237E+03  0.28446659967E+03  0.00000000000E+00 0. -1.
<mgrwt>
<rscale>  1 0.30000000E+03</rscale>
<asrwt>0</asrwt>
<pdfrwt beam="1">  1       21 0.45064344E-02 0.30000000E+03</pdfrwt>
<pdfrwt beam="2">0</pdfrwt>
<totfact> 0.34374737E+04</totfact>
</mgrwt>
</event>
<event>
 6    1  0.1274196E-001  0.3000000E+03  0.7818608E-02  0.1093470E+00
         21   -1    0    0  501  502  0.00000000000E+00  0.00000000000E+00  0.16398189603E+01  0.16398189603E+01  0.00000000000E+00 0. -1.
         13   -1    0    0    0    0 -0.00000000000E+00 -0.00000000000E+00 -0.10000000000E+04  0.10000000000E+04  0.00000000000E+00 0.  1.
    9000005    2    1    2  501    0 -0.14029643136E+02 -0.34093397330E+02 -0.70479730674E+03  0.70577101054E+03  0.37795641294E+01 0.  0.
         13    1    3    3    0    0 -0.85315174475E+01 -0.25106350413E+02 -0.51118928189E+03  0.51187654522E+03  0.00000000000E+00 0.  1.
          3    1    3    3  501    0 -0.54981256887E+01 -0.89870469171E+01 -0.19360802485E+03  0.19389446532E+03  0.00000000000E+00 0.  1.
         -3    1    1    2    0  502  0.14029643136E+02  0.34093397330E+02 -0.29356287430E+03  0.29586880842E+03  0.00000000000E+00 0. -1.
<mgrwt>
<rscale>  1 0.30000000E+03</rscale>
<asrwt>0</asrwt>
<pdfrwt beam="1">  1       21 0.59629906E-02 0.30000000E+03</pdfrwt>
<pdfrwt beam="2">0</pdfrwt>
<totfact> 0.21297696E+04</totfact>
</mgrwt>
</event>
<event>
 6    1  0.1274196E-001  0.3000000E+03  0.7818608E-02  0.1093470E+00
         21   -1    0    0  501  502  0.00000000000E+00  0.00000000000E+00  0.45152110484E+01  0.45152110484E+01  0.00000000000E+00 0. -1.
         13   -1    0    0    0    0 -0.00000000000E+00 -0.00000000000E+00 -0.10000000000E+04  0.10000000000E+04  0.00000000000E+00 0.  1.
    9000005    2    1    2  501    0  0.47846947037E+02  0.30885433417E+01 -0.84947969161E+03  0.85083906491E+03  0.35353199055E+01 0.  0.
         13    1    3    3    0    0  0.29797851009E+02  0.19031059066E+01 -0.55877611742E+03  0.55957330452E+03  0.00000000000E+00 0.  1.
          3    1    3    3  501    0  0.18049096028E+02  0.11854374351E+01 -0.29070357419E+03  0.29126576039E+03  0.00000000000E+00 0.  1.
         -3    1    1    2    0  502 -0.47846947037E+02 -0.30885433417E+01 -0.14600509735E+03  0.15367614614E+03  0.00000000000E+00 0. -1.
<mgrwt>
<rscale>  1 0.30000000E+03</rscale>
<asrwt>0</asrwt>
<pdfrwt beam="1">  1       21 0.16418984E-01 0.30000000E+03</pdfrwt>
<pdfrwt beam="2">0</pdfrwt>
<totfact> 0.34806867E+03</totfact>
</mgrwt>
</event>
<event>
 6    1  0.1274196E-001  0.3000000E+03  0.7818608E-02  0.1093470E+00
         21   -1    0    0  501  502  0.00000000000E+00  0.00000000000E+00  0.11250035068E+01  0.11250035068E+01  0.00000000000E+00 0. -1.
         13   -1    0    0    0    0 -0.00000000000E+00 -0.00000000000E+00 -0.10000000000E+04  0.10000000000E+04  0.00000000000E+00 0.  1.
    9000005    2    1    2  501    0  0.13463921188E+02 -0.30507015875E+02 -0.50496569438E+03  0.50609131384E+03  0.51098191881E+01 0.  0.
         13    1    3    3    0    0  0.58045212440E+01 -0.76517085435E+01 -0.15308186252E+03  0.15338284697E+03  0.00000000000E+00 0.  1.
          3    1    3    3  501    0  0.76593999443E+01 -0.22855307332E+02 -0.35188383186E+03  0.35270846687E+03  0.00000000000E+00 0.  1.
         -1    1    1    2    0  502 -0.13463921188E+02  0.30507015875E+02 -0.49390930211E+03  0.49503368967E+03  0.00000000000E+00 0. -1.
<mgrwt>
<rscale>  1 0.30000000E+03</rscale>
<asrwt>0</asrwt>
<pdfrwt beam="1">  1       21 0.40909305E-02 0.30000000E+03</pdfrwt>
<pdfrwt beam="2">0</pdfrwt>
<totfact> 0.40484523E+04</totfact>
</mgrwt>
</event>
<event>
 6    1  0.1274196E-001  0.3000000E+03  0.7818608E-02  0.1093470E+00
         21   -1    0    0  501  502  0.00000000000E+00  0.00000000000E+00  0.10344867408E+01  0.10344867408E+01  0.00000000000E+00 0. -1.
         13   -1    0    0    0    0 -0.00000000000E+00 -0.00000000000E+00 -0.10000000000E+04  0.10000000000E+04  0.00000000000E+00 0.  1.
    9000005    2    1    2  501    0 -0.31249482853E+02  0.46834701768E+01 -0.41606710741E+03  0.41728024340E+03  0.35353353166E+01 0.  0.
         13    1    3    3    0    0 -0.17926877120E+02  0.42617516980E+01 -0.23102941992E+03  0.23176308662E+03  0.00000000000E+00 0.  1.
          1    1    3    3  501    0 -0.13322605733E+02  0.42171847885E+00 -0.18503768749E+03  0.18551715679E+03  0.00000000000E+00 0.  1.
         -3    1    1    2    0  502  0.31249482853E+02 -0.46834701768E+01 -0.58289840585E+03  0.58375424334E+03  0.00000000000E+00 0. -1.
<mgrwt>
<rscale>  1 0.30000000E+03</rscale>
<asrwt>0</asrwt>
<pdfrwt beam="1">  1       21 0.37617779E-02 0.30000000E+03</pdfrwt>
<pdfrwt beam="2">0</pdfrwt>
<totfact> 0.46621106E+04</totfact>
</mgrwt>
</event>
<event>
 6    1  0.1274196E-001  0.3000000E+03  0.7818608E-02  0.1093470E+00
         21   -1    0    0  501  502  0.00000000000E+00  0.00000000000E+00  0.31518420749E+01  0.31518420749E+01  0.00000000000E+00 0. -1.
         13   -1    0    0    0    0 -0.00000000000E+00 -0.00000000000E+00 -0.10000000000E+04  0.10000000000E+04  0.00000000000E+00 0.  1.
    9000005    2    1    2  501    0  0.72339639051E+01 -0.54185116288E+02 -0.60967245110E+03  0.61213600478E+03  0.46511993319E+01 0.  0.
         13    1    3    3    0    0  0.28299454390E+01 -0.91475761678E+01 -0.11512163785E+03  0.11551916829E+03  0.00000000000E+00 0.  1.
          1    1    3    3  501    0  0.44040184660E+01 -0.45037540120E+02 -0.49455081325E+03  0.49661683649E+03  0.00000000000E+00 0.  1.
         -3    1    1    2    0  502 -0.72339639051E+01  0.54185116288E+02 -0.38717570683E+03  0.39101583730E+03  0.00000000000E+00 0. -1.
<mgrwt>
<rscale>  1 0.30000000E+03</rscale>
<asrwt>0</asrwt>
<pdfrwt beam="1">  1       21 0.11461268E-01 0.30000000E+03</pdfrwt>
<pdfrwt beam="2">0</pdfrwt>
<totfact> 0.67344672E+03</totfact>
</mgrwt>
</event>
<event>
 6    1  0.1274196E-001  0.3000000E+03  0.7818608E-02  0.1093470E+00
         21   -1    0    0  501  502  0.00000000000E+00  0.00000000000E+00  0.39878713477E+01  0.39878713477E+01  0.00000000000E+00 0. -1.
         13   -1    0    0    0    0 -0.00000000000E+00 -0.00000000000E+00 -0.10000000000E+04  0.10000000000E+04  0.00000000000E+00 0.  1.
    9000005    2    1    2  501    0 -0.33940545914E+02  0.35414270517E+02 -0.81405341386E+03  0.81553335402E+03  0.23578984232E+01 0.  0.
         13    1    3    3    0    0 -0.14301077299E+02  0.16591833667E+02 -0.36638708846E+03  0.36704128970E+03  0.00000000000E+00 0.  1.
          1    1    3    3  501    0 -0.19639468615E+02  0.18822436851E+02 -0.44766632540E+03  0.44849206432E+03  0.00000000000E+00 0.  1.
         -1    1    1    2    0  502  0.33940545914E+02 -0.35414270517E+02 -0.18195871479E+03  0.18845451733E+03  0.00000000000E+00 0. -1.
<mgrwt>
<rscale>  1 0.30000000E+03</rscale>
<asrwt>0</asrwt>
<pdfrwt beam="1">  1       21 0.14501381E-01 0.30000000E+03</pdfrwt>
<pdfrwt beam="2">0</pdfrwt>
<totfact> 0.43834075E+03</totfact>
</mgrwt>
</event>
<event>
 6    1  0.1274196E-001  0.3000000E+03  0.7818608E-02  0.1093470E+00
         21   -1    0    0  501  502  0.00000000000E+00  0.00000000000E+00  0.59617941507E+01  0.59617941507E+01  0.00000000000E+00 0. -1.
         13   -1    0    0    0    0 -0.00000000000E+00 -0.00000000000E+00 -0.10000000000E+04  0.10000000000E+04  0.00000000000E+00 0.  1.
    9000005    2    1    2  501    0  0.43002480536E+02 -0.19177457456E+01 -0.91454782332E+03  0.91556482520E+03  0.28873728877E+01 0.  0.
         13    1    3    3    0    0  0.74399920750E+01  0.73209755474E+00 -0.16381700039E+03  0.16398749667E+03  0.00000000000E+00 0.  1.
          1    1    3    3  501    0  0.35562488461E+02 -0.26498433003E+01 -0.75073082293E+03  0.75157732853E+03  0.00000000000E+00 0.  1.
         -3    1    1    2    0  502 -0.43002480536E+02  0.19177457456E+01 -0.79490382531E+02  0.90396968953E+02  0.00000000000E+00 0. -1.
<mgrwt>
<rscale>  1 0.30000000E+03</rscale>
<asrwt>0</asrwt>
<pdfrwt beam="1">  1       21 0.21679297E-01 0.30000000E+03</pdfrwt>
<pdfrwt beam="2">0</pdfrwt>
<totfact> 0.20558640E+03</totfact>
</mgrwt>
</event>
<event>
 6    1  0.1274196E-001  0.3000000E+03  0.7818608E-02  0.1093470E+00
         21   -1    0    0  501  502  0.00000000000E+00  0.00000000000E+00  0.18948414571E+01  0.18948414571E+01  0.00000000000E+00 0. -1.
         13   -1    0    0    0    0 -0.00000000000E+00 -0.00000000000E+00 -0.10000000000E+04  0.10000000000E+04  0.00000000000E+00 0.  1.
    9000005    2    1    2  501    0 -0.38475398143E+02  0.11370206376E+02 -0.69178927514E+03  0.69296271577E+03  0.39097821140E+01 0.  0.
         13    1    3    3    0    0 -0.30794577415E+01  0.15717119795E+01 -0.76751480305E+02  0.76829311253E+02  0.00000000000E+00 0.  1.
          3    1    3    3  501    0 -0.35395940402E+02  0.97984943967E+01 -0.61503779483E+03  0.61613340452E+03  0.00000000000E+00 0.  1.
         -1    1    1    2    0  502  0.38475398143E+02 -0.11370206376E+02 -0.30631588340E+03  0.30893212569E+03  0.00000000000E+00 0. -1.
<mgrwt>
<rscale>  1 0.30000000E+03</rscale>
<asrwt>0</asrwt>
<pdfrwt beam="1">  1       21 0.68903471E-02 0.30000000E+03</pdfrwt>
<pdfrwt beam="2">0</pdfrwt>
<totfact> 0.16584508E+04</totfact>
</mgrwt>
</event>
<event>
 6    1  0.1274196E-001  0.3000000E+03  0.7818608E-02  0.1093470E+00
         21   -1    0    0  501  502  0.00000000000E+00  0.00000000000E+00  0.61647454825E+01  0.61647454825E+01  0.00000000000E+00 0. -1.
         13   -1    0    0    0    0 -0.00000000000E+00 -0.00000000000E+00 -0.10000000000E+04  0.10000000000E+04  0.00000000000E+00 0.  1.
    9000005    2    1    2  501    0  0.24502755312E+02 -0.17857410516E+02 -0.96095193970E+03  0.96143685126E+03  0.35939415905E+01 0.  0.
         13    1    3    3    0    0 -0.38111266798E-01 -0.26838212032E-02 -0.11364044887E+02  0.11364109110E+02  0.00000000000E+00 0.  1.
          1    1    3    3  501    0  0.24540866579E+02 -0.17854726695E+02 -0.94958789482E+03  0.95007274215E+03  0.00000000000E+00 0.  1.
         -3    1    1    2    0  502 -0.24502755312E+02  0.17857410516E+02 -0.32883314813E+02  0.44727894220E+02  0.00000000000E+00 0. -1.
<mgrwt>
<rscale>  1 0.30000000E+03</rscale>
<asrwt>0</asrwt>
<pdfrwt beam="1">  1       21 0.22417304E-01 0.30000000E+03</pdfrwt>
<pdfrwt beam="2">0</pdfrwt>
<totfact> 0.19275091E+03</totfact>
</mgrwt>
</event>
<event>
 6    1  0.1274196E-001  0.3000000E+03  0.7818608E-02  0.1093470E+00
         21   -1    0    0  501  502  0.00000000000E+00  0.00000000000E+00  0.17935118318E+01  0.17935118318E+01  0.00000000000E+00 0. -1.
         13   -1    0    0    0    0 -0.00000000000E+00 -0.00000000000E+00 -0.10000000000E+04  0.10000000000E+04  0.00000000000E+00 0.  1.
    9000005    2    1    2  501    0 -0.22833836192E+02  0.26242730368E+02 -0.78423204599E+03  0.78500991725E+03  0.32562644039E+01 0.  0.
         13    1    3    3    0    0 -0.91279790201E+01  0.11442818581E+02 -0.36351548645E+03  0.36381006994E+03  0.00000000000E+00 0.  1.
          3    1    3    3  501    0 -0.13705857172E+02  0.14799911787E+02 -0.42071655954E+03  0.42119984731E+03  0.00000000000E+00 0.  1.
         -1    1    1    2    0  502  0.22833836192E+02 -0.26242730368E+02 -0.21397444218E+03  0.21678359458E+03  0.00000000000E+00 0. -1.
<mgrwt>
<rscale>  1 0.30000000E+03</rscale>
<asrwt>0</asrwt>
<pdfrwt beam="1">  1       21 0.65218750E-02 0.30000000E+03</pdfrwt>
<pdfrwt beam="2">0</pdfrwt>
<totfact> 0.18243602E+04</totfact>
</mgrwt>
</event>
<event>
 6    1  0.1274196E-001  0.3000000E+03  0.7818608E-02  0.1093470E+00
         21   -1    0    0  501  502  0.00000000000E+00  0.00000000000E+00  0.11477919974E+01  0.11477919974E+01  0.00000000000E+00 0. -1.
         13   -1    0    0    0    0 -0.00000000000E+00 -0.00000000000E+00 -0.10000000000E+04  0.10000000000E+04  0.00000000000E+00 0.  1.
    9000005    2    1    2  501    0 -0.27049011354E+02  0.19855826346E+02 -0.45235511661E+03  0.45362156089E+03  0.46331546319E+01 0.  0.
         13    1    3    3    0    0 -0.25502695825E+02  0.18308662264E+02 -0.40449012088E+03  0.40570660889E+03  0.00000000000E+00 0.  1.
          1    1    3    3  501    0 -0.15463155290E+01  0.15471640821E+01 -0.47864995731E+02  0.47914951995E+02  0.00000000000E+00 0.  1.
         -3    1    1    2    0  502  0.27049011354E+02 -0.19855826346E+02 -0.54649709139E+03  0.54752623111E+03  0.00000000000E+00 0. -1.
<mgrwt>
<rscale>  1 0.30000000E+03</rscale>
<asrwt>0</asrwt>
<pdfrwt beam="1">  1       21 0.41737979E-02 0.30000000E+03</pdfrwt>
<pdfrwt beam="2">0</pdfrwt>
<totfact> 0.39137800E+04</totfact>
</mgrwt>
</event>
<event>
 6    1  0.1274196E-001  0.3000000E+03  0.7818608E-02  0.1093470E+00
         21   -1    0    0  501  502  0.00000000000E+00  0.00000000000E+00  0.22547185342E+02  0.22547185342E+02  0.00000000000E+00 0. -1.
         13   -1    0    0    0    0 -0.00000000000E+00 -0.00000000000E+00 -0.10000000000E+04  0.10000000000E+04  0.00000000000E+00 0.  1.
    9000005    2    1    2  501    0 -0.94024911515E+02 -0.26667292046E+02 -0.87685854326E+03  0.88229371519E+03  0.30767729321E+01 0.  0.
         13    1    3    3    0    0 -0.61668402040E+02 -0.18804741014E+02 -0.58473687931E+03  0.58828039923E+03  0.00000000000E+00 0.  1.
          3    1    3    3  501    0 -0.32356509476E+02 -0.78625510314E+01 -0.29212166395E+03  0.29401331597E+03  0.00000000000E+00 0.  1.
         -1    1    1    2    0  502  0.94024911515E+02  0.26667292046E+02 -0.10059427140E+03  0.14025347015E+03  0.00000000000E+00 0. -1.
<mgrwt>
<rscale>  1 0.30000000E+03</rscale>
<asrwt>0</asrwt>
<pdfrwt beam="1">  1       21 0.81989938E-01 0.30000000E+03</pdfrwt>
<pdfrwt beam="2">0</pdfrwt>
<totfact> 0.12128182E+02</totfact>
</mgrwt>
</event>
<event>
 6    1  0.1274196E-001  0.3000000E+03  0.7818608E-02  0.1093470E+00
         21   -1    0    0  501  502  0.00000000000E+00  0.00000000000E+00  0.32629427491E+01  0.32629427491E+01  0.00000000000E+00 0. -1.
         13   -1    0    0    0    0 -0.00000000000E+00 -0.00000000000E+00 -0.10000000000E+04  0.10000000000E+04  0.00000000000E+00 0.  1.
    9000005    2    1    2  501    0 -0.54065557978E+02  0.13233389011E+02 -0.59923786343E+03  0.60188554399E+03  0.90544991585E+01 0.  0.
         13    1    3    3    0    0 -0.31344694086E+02  0.30501332155E+01 -0.33219052673E+03  0.33367999521E+03  0.00000000000E+00 0.  1.
          3    1    3    3  501    0 -0.22720863892E+02  0.10183255796E+02 -0.26704733670E+03  0.26820554878E+03  0.00000000000E+00 0.  1.
         -3    1    1    2    0  502  0.54065557978E+02 -0.13233389011E+02 -0.39749919382E+03  0.40137739876E+03  0.00000000000E+00 0. -1.
<mgrwt>
<rscale>  1 0.30000000E+03</rscale>
<asrwt>0</asrwt>
<pdfrwt beam="1">  1       21 0.11865271E-01 0.30000000E+03</pdfrwt>
<pdfrwt beam="2">0</pdfrwt>
<totfact> 0.63253378E+03</totfact>
</mgrwt>
</event>
<event>
 6    1  0.1274196E-001  0.3000000E+03  0.7818608E-02  0.1093470E+00
         21   -1    0    0  501  502  0.00000000000E+00  0.00000000000E+00  0.20516227118E+01  0.20516227118E+01  0.00000000000E+00 0. -1.
         13   -1    0    0    0    0 -0.00000000000E+00 -0.00000000000E+00 -0.10000000000E+04  0.10000000000E+04  0.00000000000E+00 0.  1.
    9000005    2    1    2  501    0 -0.28246432252E+02  0.14130614556E+02 -0.85784580010E+03  0.85843314431E+03  0.32421140908E+01 0.  0.
         13    1    3    3    0    0 -0.10168635548E+02  0.41503241404E+01 -0.33387385216E+03  0.33405444990E+03  0.00000000000E+00 0.  1.
          1    1    3    3  501    0 -0.18077796704E+02  0.99802904161E+01 -0.52397194794E+03  0.52437869442E+03  0.00000000000E+00 0.  1.
         -3    1    1    2    0  502  0.28246432252E+02 -0.14130614556E+02 -0.14010257719E+03  0.14361847840E+03  0.00000000000E+00 0. -1.
<mgrwt>
<rscale>  1 0.30000000E+03</rscale>
<asrwt>0</asrwt>
<pdfrwt beam="1">  1       21 0.74604620E-02 0.30000000E+03</pdfrwt>
<pdfrwt beam="2">0</pdfrwt>
<totfact> 0.14437444E+04</totfact>
</mgrwt>
</event>
<event>
 6    1  0.1274196E-001  0.3000000E+03  0.7818608E-02  0.1093470E+00
         21   -1    0    0  501  502  0.00000000000E+00  0.00000000000E+00  0.96265651477E+01  0.96265651477E+01  0.00000000000E+00 0. -1.
         13   -1    0    0    0    0 -0.00000000000E+00 -0.00000000000E+00 -0.10000000000E+04  0.10000000000E+04  0.00000000000E+00 0.  1.
    9000005    2    1    2  501    0 -0.10814764953E+02 -0.77879650545E+02 -0.79700763373E+03  0.80088621889E+03  0.39202401015E+01 0.  0.
         13    1    3    3    0    0 -0.27524048726E+01 -0.33009307903E+02 -0.32855424288E+03  0.33021974601E+03  0.00000000000E+00 0.  1.
          3    1    3    3  501    0 -0.80623600801E+01 -0.44870342642E+02 -0.46845339085E+03  0.47066647288E+03  0.00000000000E+00 0.  1.
         -3    1    1    2    0  502  0.10814764953E+02  0.77879650545E+02 -0.19336580112E+03  0.20874034625E+03  0.00000000000E+00 0. -1.
<mgrwt>
<rscale>  1 0.30000000E+03</rscale>
<asrwt>0</asrwt>
<pdfrwt beam="1">  1       21 0.35005765E-01 0.30000000E+03</pdfrwt>
<pdfrwt beam="2">0</pdfrwt>
<totfact> 0.79552632E+02</totfact>
</mgrwt>
</event>
<event>
 6    1  0.1274196E-001  0.3000000E+03  0.7818608E-02  0.1093470E+00
         21   -1    0    0  501  502  0.00000000000E+00  0.00000000000E+00  0.20766597953E+01  0.20766597953E+01  0.00000000000E+00 0. -1.
         13   -1    0    0    0    0 -0.00000000000E+00 -0.00000000000E+00 -0.10000000000E+04  0.10000000000E+04  0.00000000000E+00 0.  1.
    9000005    2    1    2  501    0  0.18405479133E+02  0.38614636436E+02 -0.32889423357E+03  0.33168140524E+03  0.33594486941E+01 0.  0.
         13    1    3    3    0    0  0.66786439011E+01  0.16990120368E+02 -0.14833518291E+03  0.14945432400E+03  0.00000000000E+00 0.  1.
          1    1    3    3  501    0  0.11726835232E+02  0.21624516068E+02 -0.18055905066E+03  0.18222708123E+03  0.00000000000E+00 0.  1.
         -3    1    1    2    0  502 -0.18405479133E+02 -0.38614636436E+02 -0.66902910663E+03  0.67039525456E+03  0.00000000000E+00 0. -1.
<mgrwt>
<rscale>  1 0.30000000E+03</rscale>
<asrwt>0</asrwt>
<pdfrwt beam="1">  1       21 0.75515061E-02 0.30000000E+03</pdfrwt>
<pdfrwt beam="2">0</pdfrwt>
<totfact> 0.14134051E+04</totfact>
</mgrwt>
</event>
<event>
 6    1  0.1274196E-001  0.3000000E+03  0.7818608E-02  0.1093470E+00
         21   -1    0    0  501  502  0.00000000000E+00  0.00000000000E+00  0.13668080017E+01  0.13668080017E+01  0.00000000000E+00 0. -1.
         13   -1    0    0    0    0 -0.00000000000E+00 -0.00000000000E+00 -0.10000000000E+04  0.10000000000E+04  0.00000000000E+00 0.  1.
    9000005    2    1    2  501    0 -0.42964107182E+01 -0.32388179006E+02 -0.73209078252E+03  0.73282945616E+03  0.38268366567E+01 0.  0.
         13    1    3    3    0    0 -0.50068835019E+01 -0.27493579388E+02 -0.62582494044E+03  0.62644857879E+03  0.00000000000E+00 0.  1.
          3    1    3    3  501    0  0.71047278375E+00 -0.48945996171E+01 -0.10626584209E+03  0.10638087738E+03  0.00000000000E+00 0.  1.
         -1    1    1    2    0  502  0.42964107182E+01  0.32388179006E+02 -0.26654240948E+03  0.26853735184E+03  0.00000000000E+00 0. -1.
<mgrwt>
<rscale>  1 0.30000000E+03</rscale>
<asrwt>0</asrwt>
<pdfrwt beam="1">  1       21 0.49702214E-02 0.30000000E+03</pdfrwt>
<pdfrwt beam="2">0</pdfrwt>
<totfact> 0.29099435E+04</totfact>
</mgrwt>
</event>
<event>
 6    1  0.1274196E-001  0.3000000E+03  0.7818608E-02  0.1093470E+00
         21   -1    0    0  501  502  0.00000000000E+00  0.00000000000E+00  0.48329958533E+01  0.48329958533E+01  0.00000000000E+00 0. -1.
         13   -1    0    0    0    0 -0.00000000000E+00 -0.00000000000E+00 -0.10000000000E+04  0.10000000000E+04  0.00000000000E+00 0.  1.
    9000005    2    1    2  501    0 -0.51293194534E+02  0.86097879207E+01 -0.83064886526E+03  0.83228926726E+03  0.47714555529E+01 0.  0.
         13    1    3    3    0    0 -0.49394552734E+02  0.83056438305E+01 -0.78202946884E+03  0.78363186235E+03  0.00000000000E+00 0.  1.
          1    1    3    3  501    0 -0.18986417998E+01  0.30414409018E+00 -0.48619396420E+02  0.48657404910E+02  0.00000000000E+00 0.  1.
         -1    1    1    2    0  502  0.51293194534E+02 -0.86097879207E+01 -0.16451813889E+03  0.17254372860E+03  0.00000000000E+00 0. -1.
<mgrwt>
<rscale>  1 0.30000000E+03</rscale>
<asrwt>0</asrwt>
<pdfrwt beam="1">  1       21 0.17574567E-01 0.30000000E+03</pdfrwt>
<pdfrwt beam="2">0</pdfrwt>
<totfact> 0.30643720E+03</totfact>
</mgrwt>
</event>
<event>
 6    1  0.1274196E-001  0.3000000E+03  0.7818608E-02  0.1093470E+00
         21   -1    0    0  501  502  0.00000000000E+00  0.00000000000E+00  0.18665855140E+01  0.18665855140E+01  0.00000000000E+00 0. -1.
         13   -1    0    0    0    0 -0.00000000000E+00 -0.00000000000E+00 -0.10000000000E+04  0.10000000000E+04  0.00000000000E+00 0.  1.
    9000005    2    1    2  501    0 -0.81782395343E+01  0.41135522671E+02 -0.61751286777E+03  0.61894229089E+03  0.28987530294E+01 0.  0.
         13    1    3    3    0    0 -0.49301035002E+01  0.18414220486E+02 -0.29095860945E+03  0.29158241005E+03  0.00000000000E+00 0.  1.
          1    1    3    3  501    0 -0.32481360341E+01  0.22721302185E+02 -0.32655425831E+03  0.32735988084E+03  0.00000000000E+00 0.  1.
         -1    1    1    2    0  502  0.81782395343E+01 -0.41135522671E+02 -0.38062054672E+03  0.38292429462E+03  0.00000000000E+00 0. -1.
<mgrwt>
<rscale>  1 0.30000000E+03</rscale>
<asrwt>0</asrwt>
<pdfrwt beam="1">  1       21 0.67875980E-02 0.30000000E+03</pdfrwt>
<pdfrwt beam="2">0</pdfrwt>
<totfact> 0.17023069E+04</totfact>
</mgrwt>
</event>
<event>
 6    1  0.1274196E-001  0.3000000E+03  0.7818608E-02  0.1093470E+00
         21   -1    0    0  501  502  0.00000000000E+00  0.00000000000E+00  0.48367760502E+01  0.48367760502E+01  0.00000000000E+00 0. -1.
         13   -1    0    0    0    0 -0.00000000000E+00 -0.00000000000E+00 -0.10000000000E+04  0.10000000000E+04  0.00000000000E+00 0.  1.
    9000005    2    1    2  501    0 -0.46373519210E+02  0.38951595871E+02 -0.74440513882E+03  0.74686905063E+03  0.25764258050E+01 0.  0.
         13    1    3    3    0    0 -0.45510706432E+02  0.37884348904E+02 -0.73065260973E+03  0.73304821424E+03  0.00000000000E+00 0.  1.
          3    1    3    3  501    0 -0.86281277756E+00  0.10672469674E+01 -0.13752529094E+02  0.13820836388E+02  0.00000000000E+00 0.  1.
         -3    1    1    2    0  502  0.46373519210E+02 -0.38951595871E+02 -0.25075808513E+03  0.25796772542E+03  0.00000000000E+00 0. -1.
<mgrwt>
<rscale>  1 0.30000000E+03</rscale>
<asrwt>0</asrwt>
<pdfrwt beam="1">  1       21 0.17588314E-01 0.30000000E+03</pdfrwt>
<pdfrwt beam="2">0</pdfrwt>
<totfact> 0.30598738E+03</totfact>
</mgrwt>
</event>
<event>
 6    1  0.1274196E-001  0.3000000E+03  0.7818608E-02  0.1093470E+00
         21   -1    0    0  501  502  0.00000000000E+00  0.00000000000E+00  0.79439999360E+01  0.79439999360E+01  0.00000000000E+00 0. -1.
         13   -1    0    0    0    0 -0.00000000000E+00 -0.00000000000E+00 -0.10000000000E+04  0.10000000000E+04  0.00000000000E+00 0.  1.
    9000005    2    1    2  501    0  0.79732228833E+02  0.24801522783E+02 -0.67191068310E+03  0.67708849096E+03  0.35376088921E+01 0.  0.
         13    1    3    3    0    0  0.51629483685E+02  0.15786856325E+02 -0.42071941085E+03  0.42416936604E+03  0.00000000000E+00 0.  1.
          3    1    3    3  501    0  0.28102745149E+02  0.90146664582E+01 -0.25119127225E+03  0.25291912492E+03  0.00000000000E+00 0.  1.
         -1    1    1    2    0  502 -0.79732228833E+02 -0.24801522783E+02 -0.32014531696E+03  0.33085550898E+03  0.00000000000E+00 0. -1.
<mgrwt>
<rscale>  1 0.30000000E+03</rscale>
<asrwt>0</asrwt>
<pdfrwt beam="1">  1       21 0.28887333E-01 0.30000000E+03</pdfrwt>
<pdfrwt beam="2">0</pdfrwt>
<totfact> 0.11724397E+03</totfact>
</mgrwt>
</event>
<event>
 6    1  0.1274196E-001  0.3000000E+03  0.7818608E-02  0.1093470E+00
         21   -1    0    0  501  502  0.00000000000E+00  0.00000000000E+00  0.18437941658E+02  0.18437941658E+02  0.00000000000E+00 0. -1.
         13   -1    0    0    0    0 -0.00000000000E+00 -0.00000000000E+00 -0.10000000000E+04  0.10000000000E+04  0.00000000000E+00 0.  1.
    9000005    2    1    2  501    0  0.37046005726E+02  0.95895477353E+01 -0.97935569257E+03  0.98010735314E+03  0.29129278658E+01 0.  0.
         13    1    3    3    0    0  0.29677044830E+02  0.68461987514E+01 -0.75571038309E+03  0.75632385956E+03  0.00000000000E+00 0.  1.
          1    1    3    3  501    0  0.73689608951E+01  0.27433489839E+01 -0.22364530948E+03  0.22378349358E+03  0.00000000000E+00 0.  1.
         -3    1    1    2    0  502 -0.37046005726E+02 -0.95895477353E+01 -0.22063657705E+01  0.38330588515E+02  0.00000000000E+00 0. -1.
<mgrwt>
<rscale>  1 0.30000000E+03</rscale>
<asrwt>0</asrwt>
<pdfrwt beam="1">  1       21 0.67047202E-01 0.30000000E+03</pdfrwt>
<pdfrwt beam="2">0</pdfrwt>
<totfact> 0.19500471E+02</totfact>
</mgrwt>
</event>
<event>
 6    1  0.1274196E-001  0.3000000E+03  0.7818608E-02  0.1093470E+00
         21   -1    0    0  501  502  0.00000000000E+00  0.00000000000E+00  0.27987508586E+01  0.27987508586E+01  0.00000000000E+00 0. -1.
         13   -1    0    0    0    0 -0.00000000000E+00 -0.00000000000E+00 -0.10000000000E+04  0.10000000000E+04  0.00000000000E+00 0.  1.
    9000005    2    1    2  501    0  0.41828587872E+02 -0.15916169253E+02 -0.76505927986E+03  0.76638206551E+03  0.47763412719E+01 0.  0.
         13    1    3    3    0    0  0.71732241513E+00 -0.37067424249E+00 -0.29327780415E+02  0.29338893212E+02  0.00000000000E+00 0.  1.
          1    1    3    3  501    0  0.41111265457E+02 -0.15545495010E+02 -0.73573149944E+03  0.73704317230E+03  0.00000000000E+00 0.  1.
         -3    1    1    2    0  502 -0.41828587872E+02  0.15916169253E+02 -0.23214196928E+03  0.23641668534E+03  0.00000000000E+00 0. -1.
<mgrwt>
<rscale>  1 0.30000000E+03</rscale>
<asrwt>0</asrwt>
<pdfrwt beam="1">  1       21 0.10177297E-01 0.30000000E+03</pdfrwt>
<pdfrwt beam="2">0</pdfrwt>
<totfact> 0.83370929E+03</totfact>
</mgrwt>
</event>
<event>
 6    1  0.1274196E-001  0.3000000E+03  0.7818608E-02  0.1093470E+00
         21   -1    0    0  501  502  0.00000000000E+00  0.00000000000E+00  0.10473954635E+01  0.10473954635E+01  0.00000000000E+00 0. -1.
         13   -1    0    0    0    0 -0.00000000000E+00 -0.00000000000E+00 -0.10000000000E+04  0.10000000000E+04  0.00000000000E+00 0.  1.
    9000005    2    1    2  501    0 -0.31378184862E+02 -0.35423688631E+01 -0.60569153144E+03  0.60652057701E+03  0.28000395538E+01 0.  0.
         13    1    3    3    0    0  0.47420317409E-01 -0.69892613826E-01 -0.16805645370E+01  0.16826855995E+01  0.00000000000E+00 0.  1.
          3    1    3    3  501    0 -0.31425605180E+02 -0.34724762493E+01 -0.60401096690E+03  0.60483789141E+03  0.00000000000E+00 0.  1.
         -3    1    1    2    0  502  0.31378184862E+02  0.35423688631E+01 -0.39326107310E+03  0.39452681845E+03  0.00000000000E+00 0. -1.
<mgrwt>
<rscale>  1 0.30000000E+03</rscale>
<asrwt>0</asrwt>
<pdfrwt beam="1">  1       21 0.38087188E-02 0.30000000E+03</pdfrwt>
<pdfrwt beam="2">0</pdfrwt>
<totfact> 0.45659919E+04</totfact>
</mgrwt>
</event>
<event>
 6    1  0.1274196E-001  0.3000000E+03  0.7818608E-02  0.1093470E+00
         21   -1    0    0  501  502  0.00000000000E+00  0.00000000000E+00  0.15313926589E+01  0.15313926589E+01  0.00000000000E+00 0. -1.
         13   -1    0    0    0    0 -0.00000000000E+00 -0.00000000000E+00 -0.10000000000E+04  0.10000000000E+04  0.00000000000E+00 0.  1.
    9000005    2    1    2  501    0 -0.30809342285E+02 -0.57325990355E+00 -0.80740995401E+03  0.80800373776E+03  0.31084074349E+01 0.  0.
         13    1    3    3    0    0 -0.29428052989E+02 -0.11671999169E+01 -0.76216103281E+03  0.76272984247E+03  0.00000000000E+00 0.  1.
          1    1    3    3  501    0 -0.13812892961E+01  0.59394001340E+00 -0.45248921198E+02  0.45273895287E+02  0.00000000000E+00 0.  1.
         -1    1    1    2    0  502  0.30809342285E+02  0.57325990355E+00 -0.19105865333E+03  0.19352765490E+03  0.00000000000E+00 0. -1.
<mgrwt>
<rscale>  1 0.30000000E+03</rscale>
<asrwt>0</asrwt>
<pdfrwt beam="1">  1       21 0.55687123E-02 0.30000000E+03</pdfrwt>
<pdfrwt beam="2">0</pdfrwt>
<totfact> 0.23958389E+04</totfact>
</mgrwt>
</event>
<event>
 6    1  0.1274196E-001  0.3000000E+03  0.7818608E-02  0.1093470E+00
         21   -1    0    0  501  502  0.00000000000E+00  0.00000000000E+00  0.25577858394E+01  0.25577858394E+01  0.00000000000E+00 0. -1.
         13   -1    0    0    0    0 -0.00000000000E+00 -0.00000000000E+00 -0.10000000000E+04  0.10000000000E+04  0.00000000000E+00 0.  1.
    9000005    2    1    2  501    0  0.34189558376E+02  0.28268216981E+02 -0.73891809071E+03  0.74025502108E+03  0.30876311310E+01 0.  0.
         13    1    3    3    0    0  0.22829755489E+02  0.17912760494E+02 -0.46152873427E+03  0.46244009048E+03  0.00000000000E+00 0.  1.
          1    1    3    3  501    0  0.11359802887E+02  0.10355456487E+02 -0.27738935643E+03  0.27781493060E+03  0.00000000000E+00 0.  1.
         -1    1    1    2    0  502 -0.34189558376E+02 -0.28268216981E+02 -0.25852412345E+03  0.26230276476E+03  0.00000000000E+00 0. -1.
<mgrwt>
<rscale>  1 0.30000000E+03</rscale>
<asrwt>0</asrwt>
<pdfrwt beam="1">  1       21 0.93010590E-02 0.30000000E+03</pdfrwt>
<pdfrwt beam="2">0</pdfrwt>
<totfact> 0.97895096E+03</totfact>
</mgrwt>
</event>
<event>
 6    1  0.1274196E-001  0.3000000E+03  0.7818608E-02  0.1093470E+00
         21   -1    0    0  501  502  0.00000000000E+00  0.00000000000E+00  0.16024531312E+01  0.16024531312E+01  0.00000000000E+00 0. -1.
         13   -1    0    0    0    0 -0.00000000000E+00 -0.00000000000E+00 -0.10000000000E+04  0.10000000000E+04  0.00000000000E+00 0.  1.
    9000005    2    1    2  501    0 -0.26007690169E+02 -0.19561608606E+02 -0.79031664029E+03  0.79099210163E+03  0.30093909059E+01 0.  0.
         13    1    3    3    0    0 -0.10502450210E+02 -0.73707025440E+01 -0.34623620882E+03  0.34647386772E+03  0.00000000000E+00 0.  1.
          3    1    3    3  501    0 -0.15505239958E+02 -0.12190906062E+02 -0.44408043147E+03  0.44451823390E+03  0.00000000000E+00 0.  1.
         -1    1    1    2    0  502  0.26007690169E+02  0.19561608606E+02 -0.20808090658E+03  0.21061035151E+03  0.00000000000E+00 0. -1.
<mgrwt>
<rscale>  1 0.30000000E+03</rscale>
<asrwt>0</asrwt>
<pdfrwt beam="1">  1       21 0.58271146E-02 0.30000000E+03</pdfrwt>
<pdfrwt beam="2">0</pdfrwt>
<totfact> 0.22160819E+04</totfact>
</mgrwt>
</event>
<event>
 6    1  0.1274196E-001  0.3000000E+03  0.7818608E-02  0.1093470E+00
         21   -1    0    0  501  502  0.00000000000E+00  0.00000000000E+00  0.11780182006E+01  0.11780182006E+01  0.00000000000E+00 0. -1.
         13   -1    0    0    0    0 -0.00000000000E+00 -0.00000000000E+00 -0.10000000000E+04  0.10000000000E+04  0.00000000000E+00 0.  1.
    9000005    2    1    2  501    0 -0.10072055017E+01 -0.30783675311E+02 -0.30036519865E+03  0.30204246120E+03  0.78579056924E+01 0.  0.
         13    1    3    3    0    0  0.23543025246E+01 -0.17320181839E+02 -0.19158406306E+03  0.19237979275E+03  0.00000000000E+00 0.  1.
          3    1    3    3  501    0 -0.33615080262E+01 -0.13463493473E+02 -0.10878113559E+03  0.10966266845E+03  0.00000000000E+00 0.  1.
         -1    1    1    2    0  502  0.10072055017E+01  0.30783675311E+02 -0.69845678315E+03  0.69913555700E+03  0.00000000000E+00 0. -1.
<mgrwt>
<rscale>  1 0.30000000E+03</rscale>
<asrwt>0</asrwt>
<pdfrwt beam="1">  1       21 0.42837116E-02 0.30000000E+03</pdfrwt>
<pdfrwt beam="2">0</pdfrwt>
<totfact> 0.37456356E+04</totfact>
</mgrwt>
</event>
<event>
 6    1  0.1274196E-001  0.3000000E+03  0.7818608E-02  0.1093470E+00
         21   -1    0    0  501  502  0.00000000000E+00  0.00000000000E+00  0.34278440674E+01  0.34278440674E+01  0.00000000000E+00 0. -1.
         13   -1    0    0    0    0 -0.00000000000E+00 -0.00000000000E+00 -0.10000000000E+04  0.10000000000E+04  0.00000000000E+00 0.  1.
    9000005    2    1    2  501    0  0.41680467089E+02 -0.98686399473E+01 -0.84009632434E+03  0.84119548828E+03  0.36556729373E+01 0.  0.
         13    1    3    3    0    0  0.93966685226E+01 -0.27958260882E+01 -0.22167255296E+03  0.22188923985E+03  0.00000000000E+00 0.  1.
          1    1    3    3  501    0  0.32283798567E+02 -0.70728138590E+01 -0.61842377138E+03  0.61930624844E+03  0.00000000000E+00 0.  1.
         -3    1    1    2    0  502 -0.41680467089E+02  0.98686399473E+01 -0.15647583159E+03  0.16223235578E+03  0.00000000000E+00 0. -1.
<mgrwt>
<rscale>  1 0.30000000E+03</rscale>
<asrwt>0</asrwt>
<pdfrwt beam="1">  1       21 0.12464914E-01 0.30000000E+03</pdfrwt>
<pdfrwt beam="2">0</pdfrwt>
<totfact> 0.57832238E+03</totfact>
</mgrwt>
</event>
<event>
 6    1  0.1274196E-001  0.3000000E+03  0.7818608E-02  0.1093470E+00
         21   -1    0    0  501  502  0.00000000000E+00  0.00000000000E+00  0.20790423869E+01  0.20790423869E+01  0.00000000000E+00 0. -1.
         13   -1    0    0    0    0 -0.00000000000E+00 -0.00000000000E+00 -0.10000000000E+04  0.10000000000E+04  0.00000000000E+00 0.  1.
    9000005    2    1    2  501    0 -0.22114766055E+02 -0.22702276846E+02 -0.85885091792E+03  0.85944337998E+03  0.36834654544E+01 0.  0.
         13    1    3    3    0    0 -0.15706045564E+01 -0.96894032117E+00 -0.33479795851E+02  0.33530618459E+02  0.00000000000E+00 0.  1.
          1    1    3    3  501    0 -0.20544161498E+02 -0.21733336525E+02 -0.82537112207E+03  0.82591276152E+03  0.00000000000E+00 0.  1.
         -3    1    1    2    0  502  0.22114766055E+02  0.22702276846E+02 -0.13907003969E+03  0.14263566241E+03  0.00000000000E+00 0. -1.
<mgrwt>
<rscale>  1 0.30000000E+03</rscale>
<asrwt>0</asrwt>
<pdfrwt beam="1">  1       21 0.75601701E-02 0.30000000E+03</pdfrwt>
<pdfrwt beam="2">0</pdfrwt>
<totfact> 0.14105694E+04</totfact>
</mgrwt>
</event>
<event>
 6    1  0.1274196E-001  0.3000000E+03  0.7818608E-02  0.1093470E+00
         21   -1    0    0  501  502  0.00000000000E+00  0.00000000000E+00  0.10266539544E+01  0.10266539544E+01  0.00000000000E+00 0. -1.
         13   -1    0    0    0    0 -0.00000000000E+00 -0.00000000000E+00 -0.10000000000E+04  0.10000000000E+04  0.00000000000E+00 0.  1.
    9000005    2    1    2  501    0 -0.21229050620E+02 -0.23369316788E+02 -0.57699953800E+03  0.57787338121E+03  0.35185653317E+01 0.  0.
         13    1    3    3    0    0 -0.37504631316E+01 -0.53663029563E+01 -0.99680731310E+02  0.99895502279E+02  0.00000000000E+00 0.  1.
          3    1    3    3  501    0 -0.17478587488E+02 -0.18003013832E+02 -0.47731880669E+03  0.47797787893E+03  0.00000000000E+00 0.  1.
         -1    1    1    2    0  502  0.21229050620E+02  0.23369316788E+02 -0.42197380804E+03  0.42315327274E+03  0.00000000000E+00 0. -1.
<mgrwt>
<rscale>  1 0.30000000E+03</rscale>
<asrwt>0</asrwt>
<pdfrwt beam="1">  1       21 0.37332950E-02 0.30000000E+03</pdfrwt>
<pdfrwt beam="2">0</pdfrwt>
<totfact> 0.47219945E+04</totfact>
</mgrwt>
</event>
<event>
 6    1  0.1274196E-001  0.3000000E+03  0.7818608E-02  0.1093470E+00
         21   -1    0    0  501  502  0.00000000000E+00  0.00000000000E+00  0.46115564501E+01  0.46115564501E+01  0.00000000000E+00 0. -1.
         13   -1    0    0    0    0 -0.00000000000E+00 -0.00000000000E+00 -0.10000000000E+04  0.10000000000E+04  0.00000000000E+00 0.  1.
    9000005    2    1    2  501    0  0.33271767527E+01  0.34283051044E+02 -0.93054465934E+03  0.93118735032E+03  0.31813033631E+01 0.  0.
         13    1    3    3    0    0  0.17787193827E+01  0.12884211199E+02 -0.39109558377E+03  0.39131179689E+03  0.00000000000E+00 0.  1.
          1    1    3    3  501    0  0.15484573699E+01  0.21398839845E+02 -0.53944907557E+03  0.53987555343E+03  0.00000000000E+00 0.  1.
         -3    1    1    2    0  502 -0.33271767527E+01 -0.34283051044E+02 -0.64843784214E+02  0.73424206126E+02  0.00000000000E+00 0. -1.
<mgrwt>
<rscale>  1 0.30000000E+03</rscale>
<asrwt>0</asrwt>
<pdfrwt beam="1">  1       21 0.16769332E-01 0.30000000E+03</pdfrwt>
<pdfrwt beam="2">0</pdfrwt>
<totfact> 0.33460013E+03</totfact>
</mgrwt>
</event>
<event>
 6    1  0.1274196E-001  0.3000000E+03  0.7818608E-02  0.1093470E+00
         21   -1    0    0  501  502  0.00000000000E+00  0.00000000000E+00  0.17417425170E+01  0.17417425170E+01  0.00000000000E+00 0. -1.
         13   -1    0    0    0    0 -0.00000000000E+00 -0.00000000000E+00 -0.10000000000E+04  0.10000000000E+04  0.00000000000E+00 0.  1.
    9000005    2    1    2  501    0 -0.38492606034E+01  0.32361434989E+02 -0.81158808821E+03  0.81224812421E+03  0.31162606913E+01 0.  0.
         13    1    3    3    0    0  0.11500568132E+00  0.80141667672E+01 -0.17940875271E+03  0.17958769625E+03  0.00000000000E+00 0.  1.
          1    1    3    3  501    0 -0.39642662847E+01  0.24347268222E+02 -0.63217933550E+03  0.63266042796E+03  0.00000000000E+00 0.  1.
         -1    1    1    2    0  502  0.38492606034E+01 -0.32361434989E+02 -0.18667016928E+03  0.18949361831E+03  0.00000000000E+00 0. -1.
<mgrwt>
<rscale>  1 0.30000000E+03</rscale>
<asrwt>0</asrwt>
<pdfrwt beam="1">  1       21 0.63336225E-02 0.30000000E+03</pdfrwt>
<pdfrwt beam="2">0</pdfrwt>
<totfact> 0.19192007E+04</totfact>
</mgrwt>
</event>
<event>
 6    1  0.1274196E-001  0.3000000E+03  0.7818608E-02  0.1093470E+00
         21   -1    0    0  501  502  0.00000000000E+00  0.00000000000E+00  0.11092536404E+01  0.11092536404E+01  0.00000000000E+00 0. -1.
         13   -1    0    0    0    0 -0.00000000000E+00 -0.00000000000E+00 -0.10000000000E+04  0.10000000000E+04  0.00000000000E+00 0.  1.
    9000005    2    1    2  501    0  0.26870808770E+02  0.18168011619E+02 -0.39259410755E+03  0.39394557617E+03  0.32964661523E+01 0.  0.
         13    1    3    3    0    0  0.11639593016E+02  0.98023175535E+01 -0.18784311974E+03  0.18845849195E+03  0.00000000000E+00 0.  1.
          1    1    3    3  501    0  0.15231215754E+02  0.83656940654E+01 -0.20475098781E+03  0.20548708422E+03  0.00000000000E+00 0.  1.
         -1    1    1    2    0  502 -0.26870808770E+02 -0.18168011619E+02 -0.60629663881E+03  0.60716367747E+03  0.00000000000E+00 0. -1.
<mgrwt>
<rscale>  1 0.30000000E+03</rscale>
<asrwt>0</asrwt>
<pdfrwt beam="1">  1       21 0.40336581E-02 0.30000000E+03</pdfrwt>
<pdfrwt beam="2">0</pdfrwt>
<totfact> 0.41458033E+04</totfact>
</mgrwt>
</event>
<event>
 6    1  0.1274196E-001  0.3000000E+03  0.7818608E-02  0.1093470E+00
         21   -1    0    0  501  502  0.00000000000E+00  0.00000000000E+00  0.22269024263E+01  0.22269024263E+01  0.00000000000E+00 0. -1.
         13   -1    0    0    0    0 -0.00000000000E+00 -0.00000000000E+00 -0.10000000000E+04  0.10000000000E+04  0.00000000000E+00 0.  1.
    9000005    2    1    2  501    0 -0.35039389266E+02  0.29464010892E+02 -0.61869079019E+03  0.62039018011E+03  0.31296921531E+01 0.  0.
         13    1    3    3    0    0 -0.19360462459E+02  0.18146269134E+02 -0.36582601706E+03  0.36678711721E+03  0.00000000000E+00 0.  1.
          3    1    3    3  501    0 -0.15678926807E+02  0.11317741758E+02 -0.25286477313E+03  0.25360306290E+03  0.00000000000E+00 0.  1.
         -1    1    1    2    0  502  0.35039389266E+02 -0.29464010892E+02 -0.37908230739E+03  0.38183672232E+03  0.00000000000E+00 0. -1.
<mgrwt>
<rscale>  1 0.30000000E+03</rscale>
<asrwt>0</asrwt>
<pdfrwt beam="1">  1       21 0.80978441E-02 0.30000000E+03</pdfrwt>
<pdfrwt beam="2">0</pdfrwt>
<totfact> 0.12503917E+04</totfact>
</mgrwt>
</event>
<event>
 6    1  0.1274196E-001  0.3000000E+03  0.7818608E-02  0.1093470E+00
         21   -1    0    0  501  502  0.00000000000E+00  0.00000000000E+00  0.22215683166E+01  0.22215683166E+01  0.00000000000E+00 0. -1.
         13   -1    0    0    0    0 -0.00000000000E+00 -0.00000000000E+00 -0.10000000000E+04  0.10000000000E+04  0.00000000000E+00 0.  1.
    9000005    2    1    2  501    0 -0.96866513108E+01  0.30434248392E+02 -0.86690986048E+03  0.86751203778E+03  0.49350588088E+01 0.  0.
         13    1    3    3    0    0 -0.24082162911E+01  0.13942107902E+02 -0.42202591289E+03  0.42226301404E+03  0.00000000000E+00 0.  1.
          1    1    3    3  501    0 -0.72784350197E+01  0.16492140490E+02 -0.44488394759E+03  0.44524902373E+03  0.00000000000E+00 0.  1.
         -1    1    1    2    0  502  0.96866513108E+01 -0.30434248392E+02 -0.13086857120E+03  0.13470953054E+03  0.00000000000E+00 0. -1.
<mgrwt>
<rscale>  1 0.30000000E+03</rscale>
<asrwt>0</asrwt>
<pdfrwt beam="1">  1       21 0.80784473E-02 0.30000000E+03</pdfrwt>
<pdfrwt beam="2">0</pdfrwt>
<totfact> 0.12556732E+04</totfact>
</mgrwt>
</event>
<event>
 6    1  0.1274196E-001  0.3000000E+03  0.7818608E-02  0.1093470E+00
         21   -1    0    0  501  502  0.00000000000E+00  0.00000000000E+00  0.12233510867E+01  0.12233510867E+01  0.00000000000E+00 0. -1.
         13   -1    0    0    0    0 -0.00000000000E+00 -0.00000000000E+00 -0.10000000000E+04  0.10000000000E+04  0.00000000000E+00 0.  1.
    9000005    2    1    2  501    0 -0.99409954986E+01 -0.30384749748E+02 -0.70102747874E+03  0.70176279484E+03  0.30721106903E+01 0.  0.
         13    1    3    3    0    0 -0.26604870920E+01 -0.11329352329E+02 -0.23125351659E+03  0.23154615383E+03  0.00000000000E+00 0.  1.
          3    1    3    3  501    0 -0.72805084066E+01 -0.19055397419E+02 -0.46977396215E+03  0.47021664102E+03  0.00000000000E+00 0.  1.
         -3    1    1    2    0  502  0.99409954986E+01  0.30384749748E+02 -0.29774917017E+03  0.29946055624E+03  0.00000000000E+00 0. -1.
<mgrwt>
<rscale>  1 0.30000000E+03</rscale>
<asrwt>0</asrwt>
<pdfrwt beam="1">  1       21 0.44485588E-02 0.30000000E+03</pdfrwt>
<pdfrwt beam="2">0</pdfrwt>
<totfact> 0.35136745E+04</totfact>
</mgrwt>
</event>
<event>
 6    1  0.1274196E-001  0.3000000E+03  0.7818608E-02  0.1093470E+00
         21   -1    0    0  501  502  0.00000000000E+00  0.00000000000E+00  0.10703169350E+01  0.10703169350E+01  0.00000000000E+00 0. -1.
         13   -1    0    0    0    0 -0.00000000000E+00 -0.00000000000E+00 -0.10000000000E+04  0.10000000000E+04  0.00000000000E+00 0.  1.
    9000005    2    1    2  501    0 -0.17158236576E+01  0.30431638556E+02 -0.67918347360E+03  0.67987463337E+03  0.32089885417E+01 0.  0.
         13    1    3    3    0    0 -0.60290375016E+00  0.25624412228E+02 -0.54991341503E+03  0.55051043407E+03  0.00000000000E+00 0.  1.
          3    1    3    3  501    0 -0.11129199075E+01  0.48072263277E+01 -0.12927005857E+03  0.12936419930E+03  0.00000000000E+00 0.  1.
         -1    1    1    2    0  502  0.17158236576E+01 -0.30431638556E+02 -0.31974620946E+03  0.32119568357E+03  0.00000000000E+00 0. -1.
<mgrwt>
<rscale>  1 0.30000000E+03</rscale>
<asrwt>0</asrwt>
<pdfrwt beam="1">  1       21 0.38920698E-02 0.30000000E+03</pdfrwt>
<pdfrwt beam="2">0</pdfrwt>
<totfact> 0.44028139E+04</totfact>
</mgrwt>
</event>
<event>
 6    1  0.1274196E-001  0.3000000E+03  0.7818608E-02  0.1093470E+00
         21   -1    0    0  501  502  0.00000000000E+00  0.00000000000E+00  0.78744141769E+01  0.78744141769E+01  0.00000000000E+00 0. -1.
         13   -1    0    0    0    0 -0.00000000000E+00 -0.00000000000E+00 -0.10000000000E+04  0.10000000000E+04  0.00000000000E+00 0.  1.
    9000005    2    1    2  501    0  0.28919059185E+02 -0.36346532316E+02 -0.92541208273E+03  0.92658435396E+03  0.36959086822E+01 0.  0.
         13    1    3    3    0    0  0.99320448437E+01 -0.11247433659E+02 -0.33037868186E+03  0.33071925209E+03  0.00000000000E+00 0.  1.
          3    1    3    3  501    0  0.18987014342E+02 -0.25099098657E+02 -0.59503340087E+03  0.59586510186E+03  0.00000000000E+00 0.  1.
         -1    1    1    2    0  502 -0.28919059185E+02  0.36346532316E+02 -0.66713503096E+02  0.81290060222E+02  0.00000000000E+00 0. -1.
<mgrwt>
<rscale>  1 0.30000000E+03</rscale>
<asrwt>0</asrwt>
<pdfrwt beam="1">  1       21 0.28634294E-01 0.30000000E+03</pdfrwt>
<pdfrwt beam="2">0</pdfrwt>
<totfact> 0.11931388E+03</totfact>
</mgrwt>
</event>
<event>
 6    1  0.1274196E-001  0.3000000E+03  0.7818608E-02  0.1093470E+00
         21   -1    0    0  501  502  0.00000000000E+00  0.00000000000E+00  0.12573226415E+02  0.12573226415E+02  0.00000000000E+00 0. -1.
         13   -1    0    0    0    0 -0.00000000000E+00 -0.00000000000E+00 -0.10000000000E+04  0.10000000000E+04  0.00000000000E+00 0.  1.
    9000005    2    1    2  501    0 -0.26749567801E+02  0.80266924854E+02 -0.16180882295E+03  0.18263147002E+03  0.37202221717E+01 0.  0.
         13    1    3    3    0    0 -0.26832954547E+02  0.79273609064E+02 -0.15991686741E+03  0.18049298332E+03  0.00000000000E+00 0.  1.
          3    1    3    3  501    0  0.83386746359E-01  0.99331579043E+00 -0.18919555342E+01  0.21384866968E+01  0.00000000000E+00 0.  1.
         -3    1    1    2    0  502  0.26749567801E+02 -0.80266924854E+02 -0.82561795064E+03  0.82994175640E+03  0.00000000000E+00 0. -1.
<mgrwt>
<rscale>  1 0.30000000E+03</rscale>
<asrwt>0</asrwt>
<pdfrwt beam="1">  1       21 0.45720920E-01 0.30000000E+03</pdfrwt>
<pdfrwt beam="2">0</pdfrwt>
<totfact> 0.45540513E+02</totfact>
</mgrwt>
</event>
<event>
 6    1  0.1274196E-001  0.3000000E+03  0.7818608E-02  0.1093470E+00
         21   -1    0    0  501  502  0.00000000000E+00  0.00000000000E+00  0.98700756693E+01  0.98700756693E+01  0.00000000000E+00 0. -1.
         13   -1    0    0    0    0 -0.00000000000E+00 -0.00000000000E+00 -0.10000000000E+04  0.10000000000E+04  0.00000000000E+00 0.  1.
    9000005    2    1    2  501    0  0.35754459449E+02  0.53462222222E+02 -0.87983281939E+03  0.88219062574E+03  0.42331425326E+01 0.  0.
         13    1    3    3    0    0  0.54077603049E+01  0.60643555919E+01 -0.12303354728E+03  0.12330155731E+03  0.00000000000E+00 0.  1.
          3    1    3    3  501    0  0.30346699144E+02  0.47397866631E+02 -0.75679927211E+03  0.75888906843E+03  0.00000000000E+00 0.  1.
         -3    1    1    2    0  502 -0.35754459449E+02 -0.53462222222E+02 -0.11029710494E+03  0.12767944993E+03  0.00000000000E+00 0. -1.
<mgrwt>
<rscale>  1 0.30000000E+03</rscale>
<asrwt>0</asrwt>
<pdfrwt beam="1">  1       21 0.35891260E-01 0.30000000E+03</pdfrwt>
<pdfrwt beam="2">0</pdfrwt>
<totfact> 0.75583684E+02</totfact>
</mgrwt>
</event>
<event>
 6    1  0.1274196E-001  0.3000000E+03  0.7818608E-02  0.1093470E+00
         21   -1    0    0  501  502  0.00000000000E+00  0.00000000000E+00  0.31248915592E+01  0.31248915592E+01  0.00000000000E+00 0. -1.
         13   -1    0    0    0    0 -0.00000000000E+00 -0.00000000000E+00 -0.10000000000E+04  0.10000000000E+04  0.00000000000E+00 0.  1.
    9000005    2    1    2  501    0  0.47224392588E+02  0.17311766260E+02 -0.71698445548E+03  0.71875081025E+03  0.24854228505E+01 0.  0.
         13    1    3    3    0    0  0.40002193144E+01  0.10704564947E+01 -0.51329064715E+02  0.51495830085E+02  0.00000000000E+00 0.  1.
          3    1    3    3  501    0  0.43224173274E+02  0.16241309765E+02 -0.66565539076E+03  0.66725498016E+03  0.00000000000E+00 0.  1.
         -3    1    1    2    0  502 -0.47224392588E+02 -0.17311766260E+02 -0.27989065296E+03  0.28437408131E+03  0.00000000000E+00 0. -1.
<mgrwt>
<rscale>  1 0.30000000E+03</rscale>
<asrwt>0</asrwt>
<pdfrwt beam="1">  1       21 0.11363266E-01 0.30000000E+03</pdfrwt>
<pdfrwt beam="2">0</pdfrwt>
<totfact> 0.68396795E+03</totfact>
</mgrwt>
</event>
<event>
 6    1  0.1274196E-001  0.3000000E+03  0.7818608E-02  0.1093470E+00
         21   -1    0    0  501  502  0.00000000000E+00  0.00000000000E+00  0.11685644652E+01  0.11685644652E+01  0.00000000000E+00 0. -1.
         13   -1    0    0    0    0 -0.00000000000E+00 -0.00000000000E+00 -0.10000000000E+04  0.10000000000E+04  0.00000000000E+00 0.  1.
    9000005    2    1    2  501    0  0.10679543108E+02  0.31374926082E+02 -0.61957531964E+03  0.62046705400E+03  0.27110447370E+01 0.  0.
         13    1    3    3    0    0  0.16977654712E+01  0.78672374250E+01 -0.13749016844E+03  0.13772553231E+03  0.00000000000E+00 0.  1.
          1    1    3    3  501    0  0.89817776371E+01  0.23507688657E+02 -0.48208515120E+03  0.48274152169E+03  0.00000000000E+00 0.  1.
         -3    1    1    2    0  502 -0.10679543108E+02 -0.31374926082E+02 -0.37925611590E+03  0.38070151047E+03  0.00000000000E+00 0. -1.
<mgrwt>
<rscale>  1 0.30000000E+03</rscale>
<asrwt>0</asrwt>
<pdfrwt beam="1">  1       21 0.42493343E-02 0.30000000E+03</pdfrwt>
<pdfrwt beam="2">0</pdfrwt>
<totfact> 0.37969995E+04</totfact>
</mgrwt>
</event>
<event>
 6    1  0.1274196E-001  0.3000000E+03  0.7818608E-02  0.1093470E+00
         21   -1    0    0  501  502  0.00000000000E+00  0.00000000000E+00  0.14207284793E+01  0.14207284793E+01  0.00000000000E+00 0. -1.
         13   -1    0    0    0    0 -0.00000000000E+00 -0.00000000000E+00 -0.10000000000E+04  0.10000000000E+04  0.00000000000E+00 0.  1.
    9000005    2    1    2  501    0  0.43107985096E+01  0.37362330633E+02 -0.50008726973E+03  0.50151193421E+03  0.35236457530E+01 0.  0.
         13    1    3    3    0    0  0.12136260921E+01  0.21794506706E+02 -0.27392609563E+03  0.27479443094E+03  0.00000000000E+00 0.  1.
          1    1    3    3  501    0  0.30971724174E+01  0.15567823927E+02 -0.22616117410E+03  0.22671750327E+03  0.00000000000E+00 0.  1.
         -1    1    1    2    0  502 -0.43107985096E+01 -0.37362330633E+02 -0.49849200179E+03  0.49990879427E+03  0.00000000000E+00 0. -1.
<mgrwt>
<rscale>  1 0.30000000E+03</rscale>
<asrwt>0</asrwt>
<pdfrwt beam="1">  1       21 0.51662963E-02 0.30000000E+03</pdfrwt>
<pdfrwt beam="2">0</pdfrwt>
<totfact> 0.27240758E+04</totfact>
</mgrwt>
</event>
<event>
 6    1  0.1274196E-001  0.3000000E+03  0.7818608E-02  0.1093470E+00
         21   -1    0    0  501  502  0.00000000000E+00  0.00000000000E+00  0.23384227059E+01  0.23384227059E+01  0.00000000000E+00 0. -1.
         13   -1    0    0    0    0 -0.00000000000E+00 -0.00000000000E+00 -0.10000000000E+04  0.10000000000E+04  0.00000000000E+00 0.  1.
    9000005    2    1    2  501    0 -0.11172954856E+02 -0.33887007818E+02 -0.83679638379E+03  0.83756350137E+03  0.33565889501E+01 0.  0.
         13    1    3    3    0    0 -0.13059088728E+01 -0.53801753763E+01 -0.15846984069E+03  0.15856652261E+03  0.00000000000E+00 0.  1.
          3    1    3    3  501    0 -0.98670459836E+01 -0.28506832441E+02 -0.67832654310E+03  0.67899697876E+03  0.00000000000E+00 0.  1.
         -1    1    1    2    0  502  0.11172954856E+02  0.33887007818E+02 -0.16086519350E+03  0.16477492133E+03  0.00000000000E+00 0. -1.
<mgrwt>
<rscale>  1 0.30000000E+03</rscale>
<asrwt>0</asrwt>
<pdfrwt beam="1">  1       21 0.85033732E-02 0.30000000E+03</pdfrwt>
<pdfrwt beam="2">0</pdfrwt>
<totfact> 0.11473231E+04</totfact>
</mgrwt>
</event>
<event>
 6    1  0.1274196E-001  0.3000000E+03  0.7818608E-02  0.1093470E+00
         21   -1    0    0  501  502  0.00000000000E+00  0.00000000000E+00  0.56666810968E+01  0.56666810968E+01  0.00000000000E+00 0. -1.
         13   -1    0    0    0    0 -0.00000000000E+00 -0.00000000000E+00 -0.10000000000E+04  0.10000000000E+04  0.00000000000E+00 0.  1.
    9000005    2    1    2  501    0 -0.21085713055E+02  0.32429480482E+02 -0.92850298616E+03  0.92931282587E+03  0.28730670016E+01 0.  0.
         13    1    3    3    0    0 -0.15357640656E+02  0.23618137849E+02 -0.64443062323E+03  0.64504612371E+03  0.00000000000E+00 0.  1.
          1    1    3    3  501    0 -0.57280723990E+01  0.88113426324E+01 -0.28407236293E+03  0.28426670215E+03  0.00000000000E+00 0.  1.
         -3    1    1    2    0  502  0.21085713055E+02 -0.32429480482E+02 -0.65830332744E+02  0.76353855230E+02  0.00000000000E+00 0. -1.
<mgrwt>
<rscale>  1 0.30000000E+03</rscale>
<asrwt>0</asrwt>
<pdfrwt beam="1">  1       21 0.20606157E-01 0.30000000E+03</pdfrwt>
<pdfrwt beam="2">0</pdfrwt>
<totfact> 0.22661249E+03</totfact>
</mgrwt>
</event>
<event>
 6    1  0.1274196E-001  0.3000000E+03  0.7818608E-02  0.1093470E+00
         21   -1    0    0  501  502  0.00000000000E+00  0.00000000000E+00  0.11108275660E+01  0.11108275660E+01  0.00000000000E+00 0. -1.
         13   -1    0    0    0    0 -0.00000000000E+00 -0.00000000000E+00 -0.10000000000E+04  0.10000000000E+04  0.00000000000E+00 0.  1.
    9000005    2    1    2  501    0 -0.13287937618E+02  0.27105842842E+02 -0.29212831940E+03  0.29370556933E+03  0.35651726700E+01 0.  0.
         13    1    3    3    0    0 -0.12334333715E+02  0.26503247763E+02 -0.28369407444E+03  0.28519622333E+03  0.00000000000E+00 0.  1.
          1    1    3    3  501    0 -0.95360390326E+00  0.60259507951E+00 -0.84342449584E+01  0.85093459944E+01  0.00000000000E+00 0.  1.
         -3    1    1    2    0  502  0.13287937618E+02 -0.27105842842E+02 -0.70676085303E+03  0.70740525824E+03  0.00000000000E+00 0. -1.
<mgrwt>
<rscale>  1 0.30000000E+03</rscale>
<asrwt>0</asrwt>
<pdfrwt beam="1">  1       21 0.40393815E-02 0.30000000E+03</pdfrwt>
<pdfrwt beam="2">0</pdfrwt>
<totfact> 0.41359112E+04</totfact>
</mgrwt>
</event>
<event>
 6    1  0.1274196E-001  0.3000000E+03  0.7818608E-02  0.1093470E+00
         21   -1    0    0  501  502  0.00000000000E+00  0.00000000000E+00  0.38131114574E+01  0.38131114574E+01  0.00000000000E+00 0. -1.
         13   -1    0    0    0    0 -0.00000000000E+00 -0.00000000000E+00 -0.10000000000E+04  0.10000000000E+04  0.00000000000E+00 0.  1.
    9000005    2    1    2  501    0  0.96541196455E+01  0.60853225010E+02 -0.52615463646E+03  0.52975970200E+03  0.32130008701E+01 0.  0.
         13    1    3    3    0    0  0.37165004408E+01  0.33185552097E+02 -0.28887370464E+03  0.29079737013E+03  0.00000000000E+00 0.  1.
          3    1    3    3  501    0  0.59376192046E+01  0.27667672913E+02 -0.23728093182E+03  0.23896233187E+03  0.00000000000E+00 0.  1.
         -3    1    1    2    0  502 -0.96541196455E+01 -0.60853225010E+02 -0.47003225208E+03  0.47405340946E+03  0.00000000000E+00 0. -1.
<mgrwt>
<rscale>  1 0.30000000E+03</rscale>
<asrwt>0</asrwt>
<pdfrwt beam="1">  1       21 0.13865889E-01 0.30000000E+03</pdfrwt>
<pdfrwt beam="2">0</pdfrwt>
<totfact> 0.47600837E+03</totfact>
</mgrwt>
</event>
<event>
 6    1  0.1274196E-001  0.3000000E+03  0.7818608E-02  0.1093470E+00
         21   -1    0    0  501  502  0.00000000000E+00  0.00000000000E+00  0.13405837457E+01  0.13405837457E+01  0.00000000000E+00 0. -1.
         13   -1    0    0    0    0 -0.00000000000E+00 -0.00000000000E+00 -0.10000000000E+04  0.10000000000E+04  0.00000000000E+00 0.  1.
    9000005    2    1    2  501    0 -0.17798331909E+02 -0.30875145683E+02 -0.38816810627E+03  0.38980996733E+03  0.26975303114E+01 0.  0.
         13    1    3    3    0    0 -0.73733224158E+01 -0.14262995792E+02 -0.18705560112E+03  0.18774343356E+03  0.00000000000E+00 0.  1.
          1    1    3    3  501    0 -0.10425009493E+02 -0.16612149891E+02 -0.20111250515E+03  0.20206653378E+03  0.00000000000E+00 0.  1.
         -1    1    1    2    0  502  0.17798331909E+02  0.30875145683E+02 -0.61049130999E+03  0.61153061641E+03  0.00000000000E+00 0. -1.
<mgrwt>
<rscale>  1 0.30000000E+03</rscale>
<asrwt>0</asrwt>
<pdfrwt beam="1">  1       21 0.48748603E-02 0.30000000E+03</pdfrwt>
<pdfrwt beam="2">0</pdfrwt>
<totfact> 0.30075768E+04</totfact>
</mgrwt>
</event>
<event>
 6    1  0.1274196E-001  0.3000000E+03  0.7818608E-02  0.1093470E+00
         21   -1    0    0  501  502  0.00000000000E+00  0.00000000000E+00  0.25596946681E+01  0.25596946681E+01  0.00000000000E+00 0. -1.
         13   -1    0    0    0    0 -0.00000000000E+00 -0.00000000000E+00 -0.10000000000E+04  0.10000000000E+04  0.00000000000E+00 0.  1.
    9000005    2    1    2  501    0  0.36772390351E+02  0.67488026160E+01 -0.83613452410E+03  0.83697796232E+03  0.36622379438E+01 0.  0.
         13    1    3    3    0    0  0.20014008100E+02  0.41438710479E+01 -0.49590238845E+03  0.49632339362E+03  0.00000000000E+00 0.  1.
          1    1    3    3  501    0  0.16758382252E+02  0.26049315681E+01 -0.34023213565E+03  0.34065456870E+03  0.00000000000E+00 0.  1.
         -3    1    1    2    0  502 -0.36772390351E+02 -0.67488026160E+01 -0.16130578123E+03  0.16558173234E+03  0.00000000000E+00 0. -1.
<mgrwt>
<rscale>  1 0.30000000E+03</rscale>
<asrwt>0</asrwt>
<pdfrwt beam="1">  1       21 0.93080002E-02 0.30000000E+03</pdfrwt>
<pdfrwt beam="2">0</pdfrwt>
<totfact> 0.97765378E+03</totfact>
</mgrwt>
</event>
<event>
 6    1  0.1274196E-001  0.3000000E+03  0.7818608E-02  0.1093470E+00
         21   -1    0    0  501  502  0.00000000000E+00  0.00000000000E+00  0.11126921056E+01  0.11126921056E+01  0.00000000000E+00 0. -1.
         13   -1    0    0    0    0 -0.00000000000E+00 -0.00000000000E+00 -0.10000000000E+04  0.10000000000E+04  0.00000000000E+00 0.  1.
    9000005    2    1    2  501    0  0.28365550184E+02  0.16565000668E+02 -0.45659709925E+03  0.45782853619E+03  0.68595784121E+01 0.  0.
         13    1    3    3    0    0  0.19869992512E+02  0.11472286991E+02 -0.35822564777E+03  0.35895967001E+03  0.00000000000E+00 0.  1.
          3    1    3    3  501    0  0.84955576722E+01  0.50927136766E+01 -0.98371451483E+02  0.98868866180E+02  0.00000000000E+00 0.  1.
         -3    1    1    2    0  502 -0.28365550184E+02 -0.16565000668E+02 -0.54229020864E+03  0.54328415592E+03  0.00000000000E+00 0. -1.
<mgrwt>
<rscale>  1 0.30000000E+03</rscale>
<asrwt>0</asrwt>
<pdfrwt beam="1">  1       21 0.40461616E-02 0.30000000E+03</pdfrwt>
<pdfrwt beam="2">0</pdfrwt>
<totfact> 0.41242403E+04</totfact>
</mgrwt>
</event>
<event>
 6    1  0.1274196E-001  0.3000000E+03  0.7818608E-02  0.1093470E+00
         21   -1    0    0  501  502  0.00000000000E+00  0.00000000000E+00  0.81172175543E+01  0.81172175543E+01  0.00000000000E+00 0. -1.
         13   -1    0    0    0    0 -0.00000000000E+00 -0.00000000000E+00 -0.10000000000E+04  0.10000000000E+04  0.00000000000E+00 0.  1.
    9000005    2    1    2  501    0 -0.17742228119E+02  0.40957923358E+02 -0.93376690516E+03  0.93483834381E+03  0.31237385402E+01 0.  0.
         13    1    3    3    0    0 -0.14179110115E+02  0.32374881972E+02 -0.76441281912E+03  0.76522946767E+03  0.00000000000E+00 0.  1.
          1    1    3    3  501    0 -0.35631180047E+01  0.85830413861E+01 -0.16935408604E+03  0.16960887615E+03  0.00000000000E+00 0.  1.
         -3    1    1    2    0  502  0.17742228119E+02 -0.40957923358E+02 -0.58115877286E+02  0.73278873744E+02  0.00000000000E+00 0. -1.
<mgrwt>
<rscale>  1 0.30000000E+03</rscale>
<asrwt>0</asrwt>
<pdfrwt beam="1">  1       21 0.29517217E-01 0.30000000E+03</pdfrwt>
<pdfrwt beam="2">0</pdfrwt>
<totfact> 0.11231038E+03</totfact>
</mgrwt>
</event>
<event>
 6    1  0.1274196E-001  0.3000000E+03  0.7818608E-02  0.1093470E+00
         21   -1    0    0  501  502  0.00000000000E+00  0.00000000000E+00  0.19329013589E+01  0.19329013589E+01  0.00000000000E+00 0. -1.
         13   -1    0    0    0    0 -0.00000000000E+00 -0.00000000000E+00 -0.10000000000E+04  0.10000000000E+04  0.00000000000E+00 0.  1.
    9000005    2    1    2  501    0 -0.19368767507E+02 -0.27188548438E+02 -0.82480111258E+03  0.82548044814E+03  0.25939601011E+01 0.  0.
         13    1    3    3    0    0 -0.15177469509E+02 -0.21438858986E+02 -0.62143243474E+03  0.62198734007E+03  0.00000000000E+00 0.  1.
          3    1    3    3  501    0 -0.41912979980E+01 -0.57496894511E+01 -0.20336867783E+03  0.20349310807E+03  0.00000000000E+00 0.  1.
         -1    1    1    2    0  502  0.19368767507E+02  0.27188548438E+02 -0.17326598606E+03  0.17645245322E+03  0.00000000000E+00 0. -1.
<mgrwt>
<rscale>  1 0.30000000E+03</rscale>
<asrwt>0</asrwt>
<pdfrwt beam="1">  1       21 0.70287470E-02 0.30000000E+03</pdfrwt>
<pdfrwt beam="2">0</pdfrwt>
<totfact> 0.16020594E+04</totfact>
</mgrwt>
</event>
<event>
 6    1  0.1274196E-001  0.3000000E+03  0.7818608E-02  0.1093470E+00
         21   -1    0    0  501  502  0.00000000000E+00  0.00000000000E+00  0.10067789467E+01  0.10067789467E+01  0.00000000000E+00 0. -1.
         13   -1    0    0    0    0 -0.00000000000E+00 -0.00000000000E+00 -0.10000000000E+04  0.10000000000E+04  0.00000000000E+00 0.  1.
    9000005    2    1    2  501    0 -0.31030296881E+02  0.38384154430E+01 -0.58024534305E+03  0.58109321868E+03  0.26566737387E+01 0.  0.
         13    1    3    3    0    0 -0.28582211169E+00  0.14759168005E+00 -0.28385583425E+01  0.28567273316E+01  0.00000000000E+00 0.  1.
          1    1    3    3  501    0 -0.30744474769E+02  0.36908237629E+01 -0.57740678471E+03  0.57823649135E+03  0.00000000000E+00 0.  1.
         -3    1    1    2    0  502  0.31030296881E+02 -0.38384154430E+01 -0.41874787801E+03  0.41991356026E+03  0.00000000000E+00 0. -1.
<mgrwt>
<rscale>  1 0.30000000E+03</rscale>
<asrwt>0</asrwt>
<pdfrwt beam="1">  1       21 0.36610221E-02 0.30000000E+03</pdfrwt>
<pdfrwt beam="2">0</pdfrwt>
<totfact> 0.48794982E+04</totfact>
</mgrwt>
</event>
<event>
 6    1  0.1274196E-001  0.3000000E+03  0.7818608E-02  0.1093470E+00
         21   -1    0    0  501  502  0.00000000000E+00  0.00000000000E+00  0.21584046139E+01  0.21584046139E+01  0.00000000000E+00 0. -1.
         13   -1    0    0    0    0 -0.00000000000E+00 -0.00000000000E+00 -0.10000000000E+04  0.10000000000E+04  0.00000000000E+00 0.  1.
    9000005    2    1    2  501    0  0.39579098942E+02  0.10289149279E+02 -0.73541696926E+03  0.73656650703E+03  0.44417264217E+01 0.  0.
         13    1    3    3    0    0  0.32405151237E+02  0.83916732696E+01 -0.63000838157E+03  0.63089703982E+03  0.00000000000E+00 0.  1.
          3    1    3    3  501    0  0.71739477051E+01  0.18974760096E+01 -0.10540858769E+03  0.10566946721E+03  0.00000000000E+00 0.  1.
         -1    1    1    2    0  502 -0.39579098942E+02 -0.10289149279E+02 -0.26242462613E+03  0.26559189759E+03  0.00000000000E+00 0. -1.
<mgrwt>
<rscale>  1 0.30000000E+03</rscale>
<asrwt>0</asrwt>
<pdfrwt beam="1">  1       21 0.78487606E-02 0.30000000E+03</pdfrwt>
<pdfrwt beam="2">0</pdfrwt>
<totfact> 0.13209120E+04</totfact>
</mgrwt>
</event>
<event>
 6    1  0.1274196E-001  0.3000000E+03  0.7818608E-02  0.1093470E+00
         21   -1    0    0  501  502  0.00000000000E+00  0.00000000000E+00  0.15907253909E+01  0.15907253909E+01  0.00000000000E+00 0. -1.
         13   -1    0    0    0    0 -0.00000000000E+00 -0.00000000000E+00 -0.10000000000E+04  0.10000000000E+04  0.00000000000E+00 0.  1.
    9000005    2    1    2  501    0 -0.17266743702E+02 -0.26541271215E+02 -0.19647795627E+03  0.19903454738E+03  0.29298871212E+01 0.  0.
         13    1    3    3    0    0 -0.95373865974E+01 -0.12549906139E+02 -0.10322859182E+03  0.10442511220E+03  0.00000000000E+00 0.  1.
          1    1    3    3  501    0 -0.77293571047E+01 -0.13991365075E+02 -0.93249364442E+02  0.94609435188E+02  0.00000000000E+00 0.  1.
         -1    1    1    2    0  502  0.17266743702E+02  0.26541271215E+02 -0.80193131834E+03  0.80255617801E+03  0.00000000000E+00 0. -1.
<mgrwt>
<rscale>  1 0.30000000E+03</rscale>
<asrwt>0</asrwt>
<pdfrwt beam="1">  1       21 0.57844682E-02 0.30000000E+03</pdfrwt>
<pdfrwt beam="2">0</pdfrwt>
<totfact> 0.22442961E+04</totfact>
</mgrwt>
</event>
<event>
 6    1  0.1274196E-001  0.3000000E+03  0.7818608E-02  0.1093470E+00
         21   -1    0    0  501  502  0.00000000000E+00  0.00000000000E+00  0.13225390852E+01  0.13225390852E+01  0.00000000000E+00 0. -1.
         13   -1    0    0    0    0 -0.00000000000E+00 -0.00000000000E+00 -0.10000000000E+04  0.10000000000E+04  0.00000000000E+00 0.  1.
    9000005    2    1    2  501    0 -0.30859783496E+01  0.35928424301E+02 -0.55314025940E+03  0.55432838603E+03  0.39291284395E+01 0.  0.
         13    1    3    3    0    0 -0.92298902091E+00  0.21830103214E+02 -0.30862709309E+03  0.30939956028E+03  0.00000000000E+00 0.  1.
          1    1    3    3  501    0 -0.21629893287E+01  0.14098321087E+02 -0.24451316631E+03  0.24492882575E+03  0.00000000000E+00 0.  1.
         -1    1    1    2    0  502  0.30859783496E+01 -0.35928424301E+02 -0.44553720151E+03  0.44699415306E+03  0.00000000000E+00 0. -1.
<mgrwt>
<rscale>  1 0.30000000E+03</rscale>
<asrwt>0</asrwt>
<pdfrwt beam="1">  1       21 0.48092432E-02 0.30000000E+03</pdfrwt>
<pdfrwt beam="2">0</pdfrwt>
<totfact> 0.30777620E+04</totfact>
</mgrwt>
</event>
<event>
 6    1  0.1274196E-001  0.3000000E+03  0.7818608E-02  0.1093470E+00
         21   -1    0    0  501  502  0.00000000000E+00  0.00000000000E+00  0.45760608116E+01  0.45760608116E+01  0.00000000000E+00 0. -1.
         13   -1    0    0    0    0 -0.00000000000E+00 -0.00000000000E+00 -0.10000000000E+04  0.10000000000E+04  0.00000000000E+00 0.  1.
    9000005    2    1    2  501    0  0.51714560230E+02  0.16960546214E+02 -0.79578541034E+03  0.79765192479E+03  0.34810836156E+01 0.  0.
         13    1    3    3    0    0  0.41643713408E+02  0.14552082134E+02 -0.65953157086E+03  0.66100518525E+03  0.00000000000E+00 0.  1.
          3    1    3    3  501    0  0.10070846822E+02  0.24084640800E+01 -0.13625383947E+03  0.13664673954E+03  0.00000000000E+00 0.  1.
         -1    1    1    2    0  502 -0.51714560230E+02 -0.16960546214E+02 -0.19963852885E+03  0.20692413603E+03  0.00000000000E+00 0. -1.
<mgrwt>
<rscale>  1 0.30000000E+03</rscale>
<asrwt>0</asrwt>
<pdfrwt beam="1">  1       21 0.16640256E-01 0.30000000E+03</pdfrwt>
<pdfrwt beam="2">0</pdfrwt>
<totfact> 0.33947032E+03</totfact>
</mgrwt>
</event>
<event>
 6    1  0.1274196E-001  0.3000000E+03  0.7818608E-02  0.1093470E+00
         21   -1    0    0  501  502  0.00000000000E+00  0.00000000000E+00  0.21812145890E+01  0.21812145890E+01  0.00000000000E+00 0. -1.
         13   -1    0    0    0    0 -0.00000000000E+00 -0.00000000000E+00 -0.10000000000E+04  0.10000000000E+04  0.00000000000E+00 0.  1.
    9000005    2    1    2  501    0  0.38171886426E+02 -0.25530975490E+02 -0.41276633283E+03  0.41532919244E+03  0.36563584136E+01 0.  0.
         13    1    3    3    0    0  0.24537019605E+02 -0.18458563443E+02 -0.27267612436E+03  0.27439944004E+03  0.00000000000E+00 0.  1.
          1    1    3    3  501    0  0.13634866821E+02 -0.70724120465E+01 -0.14009020847E+03  0.14092975241E+03  0.00000000000E+00 0.  1.
         -1    1    1    2    0  502 -0.38171886426E+02  0.25530975490E+02 -0.58505245258E+03  0.58685202214E+03  0.00000000000E+00 0. -1.
<mgrwt>
<rscale>  1 0.30000000E+03</rscale>
<asrwt>0</asrwt>
<pdfrwt beam="1">  1       21 0.79317061E-02 0.30000000E+03</pdfrwt>
<pdfrwt beam="2">0</pdfrwt>
<totfact> 0.12967636E+04</totfact>
</mgrwt>
</event>
<event>
 6    1  0.1274196E-001  0.3000000E+03  0.7818608E-02  0.1093470E+00
         21   -1    0    0  501  502  0.00000000000E+00  0.00000000000E+00  0.14957439608E+01  0.14957439608E+01  0.00000000000E+00 0. -1.
         13   -1    0    0    0    0 -0.00000000000E+00 -0.00000000000E+00 -0.10000000000E+04  0.10000000000E+04  0.00000000000E+00 0.  1.
    9000005    2    1    2  501    0  0.10277991610E+02  0.29477013288E+02 -0.79394345624E+03  0.79456664442E+03  0.39254666303E+01 0.  0.
         13    1    3    3    0    0  0.35293821245E+01  0.11543786114E+02 -0.35499898752E+03  0.35520416196E+03  0.00000000000E+00 0.  1.
          3    1    3    3  501    0  0.67486094860E+01  0.17933227174E+02 -0.43894446872E+03  0.43936248245E+03  0.00000000000E+00 0.  1.
         -1    1    1    2    0  502 -0.10277991610E+02 -0.29477013288E+02 -0.20456079980E+03  0.20692909955E+03  0.00000000000E+00 0. -1.
<mgrwt>
<rscale>  1 0.30000000E+03</rscale>
<asrwt>0</asrwt>
<pdfrwt beam="1">  1       21 0.54390804E-02 0.30000000E+03</pdfrwt>
<pdfrwt beam="2">0</pdfrwt>
<totfact> 0.24945860E+04</totfact>
</mgrwt>
</event>
<event>
 6    1  0.1274196E-001  0.3000000E+03  0.7818608E-02  0.1093470E+00
         21   -1    0    0  501  502  0.00000000000E+00  0.00000000000E+00  0.39546846592E+01  0.39546846592E+01  0.00000000000E+00 0. -1.
         13   -1    0    0    0    0 -0.00000000000E+00 -0.00000000000E+00 -0.10000000000E+04  0.10000000000E+04  0.00000000000E+00 0.  1.
    9000005    2    1    2  501    0 -0.38876687856E+02 -0.45700730017E+01 -0.88993893649E+03  0.89085806199E+03  0.10222206685E+02 0.  0.
         13    1    3    3    0    0 -0.10456519982E+02  0.24290934860E+01 -0.30247038510E+03  0.30266082199E+03  0.00000000000E+00 0.  1.
          1    1    3    3  501    0 -0.28420167874E+02 -0.69991664877E+01 -0.58746855139E+03  0.58819724000E+03  0.00000000000E+00 0.  1.
         -3    1    1    2    0  502  0.38876687856E+02  0.45700730017E+01 -0.10610637885E+03  0.11309662267E+03  0.00000000000E+00 0. -1.
<mgrwt>
<rscale>  1 0.30000000E+03</rscale>
<asrwt>0</asrwt>
<pdfrwt beam="1">  1       21 0.14380702E-01 0.30000000E+03</pdfrwt>
<pdfrwt beam="2">0</pdfrwt>
<totfact> 0.44514415E+03</totfact>
</mgrwt>
</event>
<event>
 6    1  0.1274196E-001  0.3000000E+03  0.7818608E-02  0.1093470E+00
         21   -1    0    0  501  502  0.00000000000E+00  0.00000000000E+00  0.43378352596E+01  0.43378352596E+01  0.00000000000E+00 0. -1.
         13   -1    0    0    0    0 -0.00000000000E+00 -0.00000000000E+00 -0.10000000000E+04  0.10000000000E+04  0.00000000000E+00 0.  1.
    9000005    2    1    2  501    0 -0.55152676728E+02 -0.33312131660E+02 -0.39577025676E+03  0.40099562960E+03  0.34471667960E+01 0.  0.
         13    1    3    3    0    0 -0.18821039729E+02 -0.12005528818E+02 -0.14687042208E+03  0.14855734630E+03  0.00000000000E+00 0.  1.
          1    1    3    3  501    0 -0.36331636998E+02 -0.21306602843E+02 -0.24889983468E+03  0.25243828330E+03  0.00000000000E+00 0.  1.
         -3    1    1    2    0  502  0.55152676728E+02  0.33312131660E+02 -0.59989190798E+03  0.60334220566E+03  0.00000000000E+00 0. -1.
<mgrwt>
<rscale>  1 0.30000000E+03</rscale>
<asrwt>0</asrwt>
<pdfrwt beam="1">  1       21 0.15773980E-01 0.30000000E+03</pdfrwt>
<pdfrwt beam="2">0</pdfrwt>
<totfact> 0.37507710E+03</totfact>
</mgrwt>
</event>
<event>
 6    1  0.1274196E-001  0.3000000E+03  0.7818608E-02  0.1093470E+00
         21   -1    0    0  501  502  0.00000000000E+00  0.00000000000E+00  0.12483166159E+01  0.12483166159E+01  0.00000000000E+00 0. -1.
         13   -1    0    0    0    0 -0.00000000000E+00 -0.00000000000E+00 -0.10000000000E+04  0.10000000000E+04  0.00000000000E+00 0.  1.
    9000005    2    1    2  501    0 -0.33290698241E+01  0.33377605826E+02 -0.65428385846E+03  0.65515117753E+03  0.32481839709E+01 0.  0.
         13    1    3    3    0    0 -0.10857810825E+01  0.51519830753E+01 -0.12436662784E+03  0.12447803007E+03  0.00000000000E+00 0.  1.
          1    1    3    3  501    0 -0.22432887415E+01  0.28225622751E+02 -0.52991723063E+03  0.53067314746E+03  0.00000000000E+00 0.  1.
         -3    1    1    2    0  502  0.33290698241E+01 -0.33377605826E+02 -0.34446782492E+03  0.34609713908E+03  0.00000000000E+00 0. -1.
<mgrwt>
<rscale>  1 0.30000000E+03</rscale>
<asrwt>0</asrwt>
<pdfrwt beam="1">  1       21 0.45393427E-02 0.30000000E+03</pdfrwt>
<pdfrwt beam="2">0</pdfrwt>
<totfact> 0.33952762E+04</totfact>
</mgrwt>
</event>
<event>
 6    1  0.1274196E-001  0.3000000E+03  0.7818608E-02  0.1093470E+00
         21   -1    0    0  501  502  0.00000000000E+00  0.00000000000E+00  0.68949838900E+01  0.68949838900E+01  0.00000000000E+00 0. -1.
         13   -1    0    0    0    0 -0.00000000000E+00 -0.00000000000E+00 -0.10000000000E+04  0.10000000000E+04  0.00000000000E+00 0.  1.
    9000005    2    1    2  501    0  0.13102702355E+01 -0.74516688591E+02 -0.71827881661E+03  0.72214264656E+03  0.33301493864E+01 0.  0.
         13    1    3    3    0    0  0.99611366562E+00 -0.46747082682E+02 -0.43495454532E+03  0.43746055648E+03  0.00000000000E+00 0.  1.
          1    1    3    3  501    0  0.31415656987E+00 -0.27769605908E+02 -0.28332427129E+03  0.28468209007E+03  0.00000000000E+00 0.  1.
         -3    1    1    2    0  502 -0.13102702355E+01  0.74516688591E+02 -0.27482619950E+03  0.28475233733E+03  0.00000000000E+00 0. -1.
<mgrwt>
<rscale>  1 0.30000000E+03</rscale>
<asrwt>0</asrwt>
<pdfrwt beam="1">  1       21 0.25072722E-01 0.30000000E+03</pdfrwt>
<pdfrwt beam="2">0</pdfrwt>
<totfact> 0.15507545E+03</totfact>
</mgrwt>
</event>
<event>
 6    1  0.1274196E-001  0.3000000E+03  0.7818608E-02  0.1093470E+00
         21   -1    0    0  501  502  0.00000000000E+00  0.00000000000E+00  0.15461253348E+01  0.15461253348E+01  0.00000000000E+00 0. -1.
         13   -1    0    0    0    0 -0.00000000000E+00 -0.00000000000E+00 -0.10000000000E+04  0.10000000000E+04  0.00000000000E+00 0.  1.
    9000005    2    1    2  501    0 -0.24755179150E+02 -0.24761851414E+02 -0.72578955613E+03  0.72664287184E+03  0.36626803186E+01 0.  0.
         13    1    3    3    0    0 -0.26407291023E+01 -0.17864304676E+01 -0.86004001810E+02  0.86063076353E+02  0.00000000000E+00 0.  1.
          3    1    3    3  501    0 -0.22114450048E+02 -0.22975420946E+02 -0.63978555432E+03  0.64057979549E+03  0.00000000000E+00 0.  1.
         -1    1    1    2    0  502  0.24755179150E+02  0.24761851414E+02 -0.27266431853E+03  0.27490325350E+03  0.00000000000E+00 0. -1.
<mgrwt>
<rscale>  1 0.30000000E+03</rscale>
<asrwt>0</asrwt>
<pdfrwt beam="1">  1       21 0.56222858E-02 0.30000000E+03</pdfrwt>
<pdfrwt beam="2">0</pdfrwt>
<totfact> 0.23567764E+04</totfact>
</mgrwt>
</event>
<event>
 6    1  0.1274196E-001  0.3000000E+03  0.7818608E-02  0.1093470E+00
         21   -1    0    0  501  502  0.00000000000E+00  0.00000000000E+00  0.50960899409E+01  0.50960899409E+01  0.00000000000E+00 0. -1.
         13   -1    0    0    0    0 -0.00000000000E+00 -0.00000000000E+00 -0.10000000000E+04  0.10000000000E+04  0.00000000000E+00 0.  1.
    9000005    2    1    2  501    0  0.29931667178E+02 -0.53526679151E+02 -0.75440197757E+03  0.75689820596E+03  0.33971083091E+01 0.  0.
         13    1    3    3    0    0  0.28558744752E+02 -0.50084913709E+02 -0.71622363385E+03  0.71854046105E+03  0.00000000000E+00 0.  1.
          1    1    3    3  501    0  0.13729224261E+01 -0.34417654428E+01 -0.38178343717E+02  0.38357744907E+02  0.00000000000E+00 0.  1.
         -3    1    1    2    0  502 -0.29931667178E+02  0.53526679151E+02 -0.24050193249E+03  0.24819788398E+03  0.00000000000E+00 0. -1.
<mgrwt>
<rscale>  1 0.30000000E+03</rscale>
<asrwt>0</asrwt>
<pdfrwt beam="1">  1       21 0.18531275E-01 0.30000000E+03</pdfrwt>
<pdfrwt beam="2">0</pdfrwt>
<totfact> 0.27731293E+03</totfact>
</mgrwt>
</event>
<event>
 6    1  0.1274196E-001  0.3000000E+03  0.7818608E-02  0.1093470E+00
         21   -1    0    0  501  502  0.00000000000E+00  0.00000000000E+00  0.34588132771E+01  0.34588132771E+01  0.00000000000E+00 0. -1.
         13   -1    0    0    0    0 -0.00000000000E+00 -0.00000000000E+00 -0.10000000000E+04  0.10000000000E+04  0.00000000000E+00 0.  1.
    9000005    2    1    2  501    0  0.20100933099E+02 -0.34065852734E+02 -0.86815971913E+03  0.86912217994E+03  0.10369952586E+02 0.  0.
         13    1    3    3    0    0  0.90422403968E+00 -0.55406022458E+01 -0.71138576321E+02  0.71359743101E+02  0.00000000000E+00 0.  1.
          3    1    3    3  501    0  0.19196709060E+02 -0.28525250489E+02 -0.79702114281E+03  0.79776243684E+03  0.00000000000E+00 0.  1.
         -3    1    1    2    0  502 -0.20100933099E+02  0.34065852734E+02 -0.12838146759E+03  0.13433663333E+03  0.00000000000E+00 0. -1.
<mgrwt>
<rscale>  1 0.30000000E+03</rscale>
<asrwt>0</asrwt>
<pdfrwt beam="1">  1       21 0.12577529E-01 0.30000000E+03</pdfrwt>
<pdfrwt beam="2">0</pdfrwt>
<totfact> 0.56892477E+03</totfact>
</mgrwt>
</event>
<event>
 6    1  0.1274196E-001  0.3000000E+03  0.7818608E-02  0.1093470E+00
         21   -1    0    0  501  502  0.00000000000E+00  0.00000000000E+00  0.46052917212E+01  0.46052917212E+01  0.00000000000E+00 0. -1.
         13   -1    0    0    0    0 -0.00000000000E+00 -0.00000000000E+00 -0.10000000000E+04  0.10000000000E+04  0.00000000000E+00 0.  1.
    9000005    2    1    2  501    0  0.45083340963E+02 -0.21531594660E+02 -0.83749509364E+03  0.83899005841E+03  0.31888935277E+01 0.  0.
         13    1    3    3    0    0  0.30198247279E+02 -0.12883098799E+02 -0.53921198752E+03  0.54021058474E+03  0.00000000000E+00 0.  1.
          1    1    3    3  501    0  0.14885093683E+02 -0.86484958605E+01 -0.29828310612E+03  0.29877947368E+03  0.00000000000E+00 0.  1.
         -3    1    1    2    0  502 -0.45083340963E+02  0.21531594660E+02 -0.15789961464E+03  0.16561523331E+03  0.00000000000E+00 0. -1.
<mgrwt>
<rscale>  1 0.30000000E+03</rscale>
<asrwt>0</asrwt>
<pdfrwt beam="1">  1       21 0.16746551E-01 0.30000000E+03</pdfrwt>
<pdfrwt beam="2">0</pdfrwt>
<totfact> 0.33545209E+03</totfact>
</mgrwt>
</event>
<event>
 6    1  0.1274196E-001  0.3000000E+03  0.7818608E-02  0.1093470E+00
         21   -1    0    0  501  502  0.00000000000E+00  0.00000000000E+00  0.18729582479E+01  0.18729582479E+01  0.00000000000E+00 0. -1.
         13   -1    0    0    0    0 -0.00000000000E+00 -0.00000000000E+00 -0.10000000000E+04  0.10000000000E+04  0.00000000000E+00 0.  1.
    9000005    2    1    2  501    0 -0.15749893221E+01 -0.43097480714E+02 -0.53277099689E+03  0.53452285188E+03  0.31417536718E+01 0.  0.
         13    1    3    3    0    0  0.20091952100E-01 -0.46499213536E+01 -0.70361740129E+02  0.70515222798E+02  0.00000000000E+00 0.  1.
          3    1    3    3  501    0 -0.15950812742E+01 -0.38447559361E+02 -0.46240925677E+03  0.46400762908E+03  0.00000000000E+00 0.  1.
         -1    1    1    2    0  502  0.15749893221E+01  0.43097480714E+02 -0.46535604486E+03  0.46735010637E+03  0.00000000000E+00 0. -1.
<mgrwt>
<rscale>  1 0.30000000E+03</rscale>
<asrwt>0</asrwt>
<pdfrwt beam="1">  1       21 0.68107716E-02 0.30000000E+03</pdfrwt>
<pdfrwt beam="2">0</pdfrwt>
<totfact> 0.16922617E+04</totfact>
</mgrwt>
</event>
<event>
 6    1  0.1274196E-001  0.3000000E+03  0.7818608E-02  0.1093470E+00
         21   -1    0    0  501  502  0.00000000000E+00  0.00000000000E+00  0.16422556125E+01  0.16422556125E+01  0.00000000000E+00 0. -1.
         13   -1    0    0    0    0 -0.00000000000E+00 -0.00000000000E+00 -0.10000000000E+04  0.10000000000E+04  0.00000000000E+00 0.  1.
    9000005    2    1    2  501    0 -0.61134939356E+01 -0.39220974825E+02 -0.59694294097E+03  0.59826959407E+03  0.31579652598E+01 0.  0.
         13    1    3    3    0    0 -0.16670426319E+01 -0.10006011484E+02 -0.17411124834E+03  0.17440649671E+03  0.00000000000E+00 0.  1.
          1    1    3    3  501    0 -0.44464513037E+01 -0.29214963341E+02 -0.42283169263E+03  0.42386309736E+03  0.00000000000E+00 0.  1.
         -1    1    1    2    0  502  0.61134939356E+01  0.39220974825E+02 -0.40141480342E+03  0.40337266154E+03  0.00000000000E+00 0. -1.
<mgrwt>
<rscale>  1 0.30000000E+03</rscale>
<asrwt>0</asrwt>
<pdfrwt beam="1">  1       21 0.59718512E-02 0.30000000E+03</pdfrwt>
<pdfrwt beam="2">0</pdfrwt>
<totfact> 0.21243238E+04</totfact>
</mgrwt>
</event>
<event>
 6    1  0.1274196E-001  0.3000000E+03  0.7818608E-02  0.1093470E+00
         21   -1    0    0  501  502  0.00000000000E+00  0.00000000000E+00  0.17435263785E+01  0.17435263785E+01  0.00000000000E+00 0. -1.
         13   -1    0    0    0    0 -0.00000000000E+00 -0.00000000000E+00 -0.10000000000E+04  0.10000000000E+04  0.00000000000E+00 0.  1.
    9000005    2    1    2  501    0  0.14577079529E+02 -0.35228661564E+02 -0.70215215225E+03  0.70319483859E+03  0.34331140697E+01 0.  0.
         13    1    3    3    0    0  0.70591847830E+00 -0.32457703930E+01 -0.48391933363E+02  0.48505799250E+02  0.00000000000E+00 0.  1.
          3    1    3    3  501    0  0.13871161051E+02 -0.31982891171E+02 -0.65376021889E+03  0.65468903934E+03  0.00000000000E+00 0.  1.
         -1    1    1    2    0  502 -0.14577079529E+02  0.35228661564E+02 -0.29610432137E+03  0.29854868778E+03  0.00000000000E+00 0. -1.
<mgrwt>
<rscale>  1 0.30000000E+03</rscale>
<asrwt>0</asrwt>
<pdfrwt beam="1">  1       21 0.63401093E-02 0.30000000E+03</pdfrwt>
<pdfrwt beam="2">0</pdfrwt>
<totfact> 0.19158070E+04</totfact>
</mgrwt>
</event>
<event>
 6    1  0.1274196E-001  0.3000000E+03  0.7818608E-02  0.1093470E+00
         21   -1    0    0  501  502  0.00000000000E+00  0.00000000000E+00  0.20972705719E+01  0.20972705719E+01  0.00000000000E+00 0. -1.
         13   -1    0    0    0    0 -0.00000000000E+00 -0.00000000000E+00 -0.10000000000E+04  0.10000000000E+04  0.00000000000E+00 0.  1.
    9000005    2    1    2  501    0 -0.28975940331E+02  0.32775011407E+02 -0.64291076110E+03  0.64441989630E+03  0.53804752746E+01 0.  0.
         13    1    3    3    0    0 -0.20581962186E+02  0.24166480843E+02 -0.43015219516E+03  0.43132186006E+03  0.00000000000E+00 0.  1.
          1    1    3    3  501    0 -0.83939781455E+01  0.86085305638E+01 -0.21275856594E+03  0.21309803623E+03  0.00000000000E+00 0.  1.
         -3    1    1    2    0  502  0.28975940331E+02 -0.32775011407E+02 -0.35499196833E+03  0.35767737427E+03  0.00000000000E+00 0. -1.
<mgrwt>
<rscale>  1 0.30000000E+03</rscale>
<asrwt>0</asrwt>
<pdfrwt beam="1">  1       21 0.76264545E-02 0.30000000E+03</pdfrwt>
<pdfrwt beam="2">0</pdfrwt>
<totfact> 0.13891628E+04</totfact>
</mgrwt>
</event>
<event>
 6    1  0.1274196E-001  0.3000000E+03  0.7818608E-02  0.1093470E+00
         21   -1    0    0  501  502  0.00000000000E+00  0.00000000000E+00  0.19900842162E+01  0.19900842162E+01  0.00000000000E+00 0. -1.
         13   -1    0    0    0    0 -0.00000000000E+00 -0.00000000000E+00 -0.10000000000E+04  0.10000000000E+04  0.00000000000E+00 0.  1.
    9000005    2    1    2  501    0  0.56533135598E+01  0.38215512633E+02 -0.74888682370E+03  0.74988950832E+03  0.32271675236E+01 0.  0.
         13    1    3    3    0    0  0.51533734028E+01  0.29436099942E+02 -0.59893943102E+03  0.59968448643E+03  0.00000000000E+00 0.  1.
          3    1    3    3  501    0  0.49994015698E+00  0.87794126908E+01 -0.14994739268E+03  0.15020502189E+03  0.00000000000E+00 0.  1.
         -1    1    1    2    0  502 -0.56533135598E+01 -0.38215512633E+02 -0.24912309208E+03  0.25210057590E+03  0.00000000000E+00 0. -1.
<mgrwt>
<rscale>  1 0.30000000E+03</rscale>
<asrwt>0</asrwt>
<pdfrwt beam="1">  1       21 0.72366851E-02 0.30000000E+03</pdfrwt>
<pdfrwt beam="2">0</pdfrwt>
<totfact> 0.15226780E+04</totfact>
</mgrwt>
</event>
<event>
 6    1  0.1274196E-001  0.3000000E+03  0.7818608E-02  0.1093470E+00
         21   -1    0    0  501  502  0.00000000000E+00  0.00000000000E+00  0.16390716242E+01  0.16390716242E+01  0.00000000000E+00 0. -1.
         13   -1    0    0    0    0 -0.00000000000E+00 -0.00000000000E+00 -0.10000000000E+04  0.10000000000E+04  0.00000000000E+00 0.  1.
    9000005    2    1    2  501    0  0.36057738578E+02  0.67026362852E+01 -0.70977541557E+03  0.71073241297E+03  0.37863521332E+01 0.  0.
         13    1    3    3    0    0  0.15409234484E+02  0.44004168077E+01 -0.28774502127E+03  0.28819091838E+03  0.00000000000E+00 0.  1.
          3    1    3    3  501    0  0.20648504093E+02  0.23022194775E+01 -0.42203039430E+03  0.42254149459E+03  0.00000000000E+00 0.  1.
         -1    1    1    2    0  502 -0.36057738578E+02 -0.67026362852E+01 -0.28858551281E+03  0.29090665865E+03  0.00000000000E+00 0. -1.
<mgrwt>
<rscale>  1 0.30000000E+03</rscale>
<asrwt>0</asrwt>
<pdfrwt beam="1">  1       21 0.59602730E-02 0.30000000E+03</pdfrwt>
<pdfrwt beam="2">0</pdfrwt>
<totfact> 0.21314442E+04</totfact>
</mgrwt>
</event>
<event>
 6    1  0.1274196E-001  0.3000000E+03  0.7818608E-02  0.1093470E+00
         21   -1    0    0  501  502  0.00000000000E+00  0.00000000000E+00  0.16867343845E+01  0.16867343845E+01  0.00000000000E+00 0. -1.
         13   -1    0    0    0    0 -0.00000000000E+00 -0.00000000000E+00 -0.10000000000E+04  0.10000000000E+04  0.00000000000E+00 0.  1.
    9000005    2    1    2  501    0  0.31009896985E+02 -0.26510201354E+02 -0.55014901386E+03  0.55166940023E+03  0.32840848871E+01 0.  0.
         13    1    3    3    0    0  0.17436134460E+02 -0.13836851920E+02 -0.31893418967E+03  0.31971001642E+03  0.00000000000E+00 0.  1.
          3    1    3    3  501    0  0.13573762525E+02 -0.12673349434E+02 -0.23121482419E+03  0.23195938381E+03  0.00000000000E+00 0.  1.
         -1    1    1    2    0  502 -0.31009896985E+02  0.26510201354E+02 -0.44816425175E+03  0.45001733415E+03  0.00000000000E+00 0. -1.
<mgrwt>
<rscale>  1 0.30000000E+03</rscale>
<asrwt>0</asrwt>
<pdfrwt beam="1">  1       21 0.61335925E-02 0.30000000E+03</pdfrwt>
<pdfrwt beam="2">0</pdfrwt>
<totfact> 0.20286050E+04</totfact>
</mgrwt>
</event>
<event>
 6    1  0.1274196E-001  0.3000000E+03  0.7818608E-02  0.1093470E+00
         21   -1    0    0  501  502  0.00000000000E+00  0.00000000000E+00  0.53514242731E+01  0.53514242731E+01  0.00000000000E+00 0. -1.
         13   -1    0    0    0    0 -0.00000000000E+00 -0.00000000000E+00 -0.10000000000E+04  0.10000000000E+04  0.00000000000E+00 0.  1.
    9000005    2    1    2  501    0  0.28073777277E+02  0.60314312674E+02 -0.70583650047E+03  0.70897604052E+03  0.39884011283E+01 0.  0.
         13    1    3    3    0    0  0.19614345096E+02  0.37875593974E+02 -0.44483564109E+03  0.44687585607E+03  0.00000000000E+00 0.  1.
          3    1    3    3  501    0  0.84594321809E+01  0.22438718701E+02 -0.26100085938E+03  0.26210018445E+03  0.00000000000E+00 0.  1.
         -3    1    1    2    0  502 -0.28073777277E+02 -0.60314312674E+02 -0.28881207525E+03  0.29637538376E+03  0.00000000000E+00 0. -1.
<mgrwt>
<rscale>  1 0.30000000E+03</rscale>
<asrwt>0</asrwt>
<pdfrwt beam="1">  1       21 0.19459766E-01 0.30000000E+03</pdfrwt>
<pdfrwt beam="2">0</pdfrwt>
<totfact> 0.25277112E+03</totfact>
</mgrwt>
</event>
<event>
 6    1  0.1274196E-001  0.3000000E+03  0.7818608E-02  0.1093470E+00
         21   -1    0    0  501  502  0.00000000000E+00  0.00000000000E+00  0.11091143179E+01  0.11091143179E+01  0.00000000000E+00 0. -1.
         13   -1    0    0    0    0 -0.00000000000E+00 -0.00000000000E+00 -0.10000000000E+04  0.10000000000E+04  0.00000000000E+00 0.  1.
    9000005    2    1    2  501    0  0.15776161991E+02 -0.26843816342E+02 -0.67401135247E+03  0.67474093440E+03  0.38141228547E+01 0.  0.
         13    1    3    3    0    0  0.12172511063E+02 -0.21958499396E+02 -0.51065152856E+03  0.51126835355E+03  0.00000000000E+00 0.  1.
          3    1    3    3  501    0  0.36036509285E+01 -0.48853169459E+01 -0.16335982391E+03  0.16347258085E+03  0.00000000000E+00 0.  1.
         -3    1    1    2    0  502 -0.15776161991E+02  0.26843816342E+02 -0.32487953321E+03  0.32636817992E+03  0.00000000000E+00 0. -1.
<mgrwt>
<rscale>  1 0.30000000E+03</rscale>
<asrwt>0</asrwt>
<pdfrwt beam="1">  1       21 0.40331515E-02 0.30000000E+03</pdfrwt>
<pdfrwt beam="2">0</pdfrwt>
<totfact> 0.41466808E+04</totfact>
</mgrwt>
</event>
<event>
 6    1  0.1274196E-001  0.3000000E+03  0.7818608E-02  0.1093470E+00
         21   -1    0    0  501  502  0.00000000000E+00  0.00000000000E+00  0.39327456584E+01  0.39327456584E+01  0.00000000000E+00 0. -1.
         13   -1    0    0    0    0 -0.00000000000E+00 -0.00000000000E+00 -0.10000000000E+04  0.10000000000E+04  0.00000000000E+00 0.  1.
    9000005    2    1    2  501    0 -0.12275807385E+02  0.35376702658E+02 -0.90060707620E+03  0.90139079255E+03  0.31699592171E+01 0.  0.
         13    1    3    3    0    0 -0.73779665677E+00  0.41971035903E+01 -0.85846420502E+02  0.85952125835E+02  0.00000000000E+00 0.  1.
          1    1    3    3  501    0 -0.11538010728E+02  0.31179599067E+02 -0.81476065570E+03  0.81543866671E+03  0.00000000000E+00 0.  1.
         -3    1    1    2    0  502  0.12275807385E+02 -0.35376702658E+02 -0.95460178138E+02  0.10254195311E+03  0.00000000000E+00 0. -1.
<mgrwt>
<rscale>  1 0.30000000E+03</rscale>
<asrwt>0</asrwt>
<pdfrwt beam="1">  1       21 0.14300923E-01 0.30000000E+03</pdfrwt>
<pdfrwt beam="2">0</pdfrwt>
<totfact> 0.44972826E+03</totfact>
</mgrwt>
</event>
<event>
 6    1  0.1274196E-001  0.3000000E+03  0.7818608E-02  0.1093470E+00
         21   -1    0    0  501  502  0.00000000000E+00  0.00000000000E+00  0.30510389847E+01  0.30510389847E+01  0.00000000000E+00 0. -1.
         13   -1    0    0    0    0 -0.00000000000E+00 -0.00000000000E+00 -0.10000000000E+04  0.10000000000E+04  0.00000000000E+00 0.  1.
    9000005    2    1    2  501    0  0.17326395699E+02  0.47452108460E+02 -0.70067572965E+03  0.70250198441E+03  0.32639526445E+01 0.  0.
         13    1    3    3    0    0  0.10604323623E+02  0.26603054535E+02 -0.41607280630E+03  0.41705725546E+03  0.00000000000E+00 0.  1.
          1    1    3    3  501    0  0.67220720762E+01  0.20849053925E+02 -0.28460292335E+03  0.28544472895E+03  0.00000000000E+00 0.  1.
         -1    1    1    2    0  502 -0.17326395699E+02 -0.47452108460E+02 -0.29627323136E+03  0.30054905458E+03  0.00000000000E+00 0. -1.
<mgrwt>
<rscale>  1 0.30000000E+03</rscale>
<asrwt>0</asrwt>
<pdfrwt beam="1">  1       21 0.11094711E-01 0.30000000E+03</pdfrwt>
<pdfrwt beam="2">0</pdfrwt>
<totfact> 0.71409826E+03</totfact>
</mgrwt>
</event>
<event>
 6    1  0.1274196E-001  0.3000000E+03  0.7818608E-02  0.1093470E+00
         21   -1    0    0  501  502  0.00000000000E+00  0.00000000000E+00  0.19865423800E+01  0.19865423800E+01  0.00000000000E+00 0. -1.
         13   -1    0    0    0    0 -0.00000000000E+00 -0.00000000000E+00 -0.10000000000E+04  0.10000000000E+04  0.00000000000E+00 0.  1.
    9000005    2    1    2  501    0 -0.40878673772E+02 -0.16545565782E+02 -0.56727245735E+03  0.56899389691E+03  0.33454652799E+01 0.  0.
         13    1    3    3    0    0 -0.39796906539E+02 -0.16617364055E+02 -0.55552821441E+03  0.55719971964E+03  0.00000000000E+00 0.  1.
          1    1    3    3  501    0 -0.10817672326E+01  0.71798272594E-01 -0.11744242935E+02  0.11794177269E+02  0.00000000000E+00 0.  1.
         -3    1    1    2    0  502  0.40878673772E+02  0.16545565782E+02 -0.43074100027E+03  0.43299264547E+03  0.00000000000E+00 0. -1.
<mgrwt>
<rscale>  1 0.30000000E+03</rscale>
<asrwt>0</asrwt>
<pdfrwt beam="1">  1       21 0.72238057E-02 0.30000000E+03</pdfrwt>
<pdfrwt beam="2">0</pdfrwt>
<totfact> 0.15274190E+04</totfact>
</mgrwt>
</event>
<event>
 6    1  0.1274196E-001  0.3000000E+03  0.7818608E-02  0.1093470E+00
         21   -1    0    0  501  502  0.00000000000E+00  0.00000000000E+00  0.26790722268E+01  0.26790722268E+01  0.00000000000E+00 0. -1.
         13   -1    0    0    0    0 -0.00000000000E+00 -0.00000000000E+00 -0.10000000000E+04  0.10000000000E+04  0.00000000000E+00 0.  1.
    9000005    2    1    2  501    0 -0.31281135523E+02 -0.35997132189E+02 -0.30639572415E+03  0.31010998544E+03  0.39446583116E+01 0.  0.
         13    1    3    3    0    0 -0.21446840121E+02 -0.26574100395E+02 -0.22707549739E+03  0.22962889905E+03  0.00000000000E+00 0.  1.
          3    1    3    3  501    0 -0.98342954017E+01 -0.94230317947E+01 -0.79320226751E+02  0.80481086387E+02  0.00000000000E+00 0.  1.
         -1    1    1    2    0  502  0.31281135523E+02  0.35997132189E+02 -0.69092520363E+03  0.69256908679E+03  0.00000000000E+00 0. -1.
<mgrwt>
<rscale>  1 0.30000000E+03</rscale>
<asrwt>0</asrwt>
<pdfrwt beam="1">  1       21 0.97421014E-02 0.30000000E+03</pdfrwt>
<pdfrwt beam="2">0</pdfrwt>
<totfact> 0.90140621E+03</totfact>
</mgrwt>
</event>
<event>
 6    1  0.1274196E-001  0.3000000E+03  0.7818608E-02  0.1093470E+00
         21   -1    0    0  501  502  0.00000000000E+00  0.00000000000E+00  0.14421183858E+01  0.14421183858E+01  0.00000000000E+00 0. -1.
         13   -1    0    0    0    0 -0.00000000000E+00 -0.00000000000E+00 -0.10000000000E+04  0.10000000000E+04  0.00000000000E+00 0.  1.
    9000005    2    1    2  501    0  0.16452575386E+02 -0.30115995936E+02 -0.70937283381E+03  0.71022801790E+03  0.60298934350E+01 0.  0.
         13    1    3    3    0    0  0.56126509205E+01 -0.10297423320E+02 -0.18739373734E+03  0.18776035676E+03  0.00000000000E+00 0.  1.
          1    1    3    3  501    0  0.10839924466E+02 -0.19818572616E+02 -0.52197909647E+03  0.52246766114E+03  0.00000000000E+00 0.  1.
         -3    1    1    2    0  502 -0.16452575386E+02  0.30115995936E+02 -0.28918504780E+03  0.29121410048E+03  0.00000000000E+00 0. -1.
<mgrwt>
<rscale>  1 0.30000000E+03</rscale>
<asrwt>0</asrwt>
<pdfrwt beam="1">  1       21 0.52440779E-02 0.30000000E+03</pdfrwt>
<pdfrwt beam="2">0</pdfrwt>
<totfact> 0.26554110E+04</totfact>
</mgrwt>
</event>
<event>
 6    1  0.1274196E-001  0.3000000E+03  0.7818608E-02  0.1093470E+00
         21   -1    0    0  501  502  0.00000000000E+00  0.00000000000E+00  0.26231027499E+01  0.26231027499E+01  0.00000000000E+00 0. -1.
         13   -1    0    0    0    0 -0.00000000000E+00 -0.00000000000E+00 -0.10000000000E+04  0.10000000000E+04  0.00000000000E+00 0.  1.
    9000005    2    1    2  501    0 -0.45725710804E+02 -0.92827476904E+01 -0.29378477891E+03  0.29748561330E+03  0.33442143794E+01 0.  0.
         13    1    3    3    0    0 -0.36732713124E+02 -0.62429416404E+01 -0.23005979261E+03  0.23305744937E+03  0.00000000000E+00 0.  1.
          1    1    3    3  501    0 -0.89929976799E+01 -0.30398060500E+01 -0.63724986297E+02  0.64428163924E+02  0.00000000000E+00 0.  1.
         -1    1    1    2    0  502  0.45725710804E+02  0.92827476904E+01 -0.70359211834E+03  0.70513748945E+03  0.00000000000E+00 0. -1.
<mgrwt>
<rscale>  1 0.30000000E+03</rscale>
<asrwt>0</asrwt>
<pdfrwt beam="1">  1       21 0.95385756E-02 0.30000000E+03</pdfrwt>
<pdfrwt beam="2">0</pdfrwt>
<totfact> 0.93598975E+03</totfact>
</mgrwt>
</event>
<event>
 6    1  0.1274196E-001  0.3000000E+03  0.7818608E-02  0.1093470E+00
         21   -1    0    0  501  502  0.00000000000E+00  0.00000000000E+00  0.46455038909E+01  0.46455038909E+01  0.00000000000E+00 0. -1.
         13   -1    0    0    0    0 -0.00000000000E+00 -0.00000000000E+00 -0.10000000000E+04  0.10000000000E+04  0.00000000000E+00 0.  1.
    9000005    2    1    2  501    0  0.37967186662E+02 -0.72321503862E+01 -0.91130175010E+03  0.91213239469E+03  0.45622852875E+01 0.  0.
         13    1    3    3    0    0  0.21127938666E+02 -0.17122278769E+01 -0.49531813833E+03  0.49577149946E+03  0.00000000000E+00 0.  1.
          3    1    3    3  501    0  0.16839247996E+02 -0.55199225093E+01 -0.41598361177E+03  0.41636089523E+03  0.00000000000E+00 0.  1.
         -3    1    1    2    0  502 -0.37967186662E+02  0.72321503862E+01 -0.84052746012E+02  0.92513109203E+02  0.00000000000E+00 0. -1.
<mgrwt>
<rscale>  1 0.30000000E+03</rscale>
<asrwt>0</asrwt>
<pdfrwt beam="1">  1       21 0.16892777E-01 0.30000000E+03</pdfrwt>
<pdfrwt beam="2">0</pdfrwt>
<totfact> 0.33003908E+03</totfact>
</mgrwt>
</event>
<event>
 6    1  0.1274196E-001  0.3000000E+03  0.7818608E-02  0.1093470E+00
         21   -1    0    0  501  502  0.00000000000E+00  0.00000000000E+00  0.14247385443E+01  0.14247385443E+01  0.00000000000E+00 0. -1.
         13   -1    0    0    0    0 -0.00000000000E+00 -0.00000000000E+00 -0.10000000000E+04  0.10000000000E+04  0.00000000000E+00 0.  1.
    9000005    2    1    2  501    0  0.31406859779E+02  0.96175399263E+01 -0.74468727079E+03  0.74542083287E+03  0.37681410211E+01 0.  0.
         13    1    3    3    0    0  0.10556439260E+02  0.23132108928E+01 -0.28051449013E+03  0.28072258286E+03  0.00000000000E+00 0.  1.
          3    1    3    3  501    0  0.20850420520E+02  0.73043290335E+01 -0.46417278066E+03  0.46469825001E+03  0.00000000000E+00 0.  1.
         -3    1    1    2    0  502 -0.31406859779E+02 -0.96175399263E+01 -0.25388799067E+03  0.25600390567E+03  0.00000000000E+00 0. -1.
<mgrwt>
<rscale>  1 0.30000000E+03</rscale>
<asrwt>0</asrwt>
<pdfrwt beam="1">  1       21 0.51808784E-02 0.30000000E+03</pdfrwt>
<pdfrwt beam="2">0</pdfrwt>
<totfact> 0.27109946E+04</totfact>
</mgrwt>
</event>
<event>
 6    1  0.1274196E-001  0.3000000E+03  0.7818608E-02  0.1093470E+00
         21   -1    0    0  501  502  0.00000000000E+00  0.00000000000E+00  0.51060609050E+01  0.51060609050E+01  0.00000000000E+00 0. -1.
         13   -1    0    0    0    0 -0.00000000000E+00 -0.00000000000E+00 -0.10000000000E+04  0.10000000000E+04  0.00000000000E+00 0.  1.
    9000005    2    1    2  501    0 -0.44917112269E+02 -0.26692530625E+02 -0.84017545896E+03  0.84180313300E+03  0.27703305510E+01 0.  0.
         13    1    3    3    0    0 -0.16106777179E+02 -0.94367257204E+01 -0.32178443227E+03  0.32232545806E+03  0.00000000000E+00 0.  1.
          1    1    3    3  501    0 -0.28810335090E+02 -0.17255804904E+02 -0.51839102669E+03  0.51947767494E+03  0.00000000000E+00 0.  1.
         -1    1    1    2    0  502  0.44917112269E+02  0.26692530625E+02 -0.15471848014E+03  0.16330292790E+03  0.00000000000E+00 0. -1.
<mgrwt>
<rscale>  1 0.30000000E+03</rscale>
<asrwt>0</asrwt>
<pdfrwt beam="1">  1       21 0.18567533E-01 0.30000000E+03</pdfrwt>
<pdfrwt beam="2">0</pdfrwt>
<totfact> 0.27629044E+03</totfact>
</mgrwt>
</event>
<event>
 6    1  0.1274196E-001  0.3000000E+03  0.7818608E-02  0.1093470E+00
         21   -1    0    0  501  502  0.00000000000E+00  0.00000000000E+00  0.24843698359E+01  0.24843698359E+01  0.00000000000E+00 0. -1.
         13   -1    0    0    0    0 -0.00000000000E+00 -0.00000000000E+00 -0.10000000000E+04  0.10000000000E+04  0.00000000000E+00 0.  1.
    9000005    2    1    2  501    0  0.16519264864E+02 -0.31631355581E+02 -0.84821714776E+03  0.84898041022E+03  0.46881155111E+01 0.  0.
         13    1    3    3    0    0  0.15663858881E+02 -0.28348164648E+02 -0.79096563708E+03  0.79162845702E+03  0.00000000000E+00 0.  1.
          1    1    3    3  501    0  0.85540598293E+00 -0.32831909336E+01 -0.57251510677E+02  0.57351953209E+02  0.00000000000E+00 0.  1.
         -1    1    1    2    0  502 -0.16519264864E+02  0.31631355581E+02 -0.14929848241E+03  0.15350395961E+03  0.00000000000E+00 0. -1.
<mgrwt>
<rscale>  1 0.30000000E+03</rscale>
<asrwt>0</asrwt>
<pdfrwt beam="1">  1       21 0.90340912E-02 0.30000000E+03</pdfrwt>
<pdfrwt beam="2">0</pdfrwt>
<totfact> 0.10308795E+04</totfact>
</mgrwt>
</event>
<event>
 6    1  0.1274196E-001  0.3000000E+03  0.7818608E-02  0.1093470E+00
         21   -1    0    0  501  502  0.00000000000E+00  0.00000000000E+00  0.32152306781E+01  0.32152306781E+01  0.00000000000E+00 0. -1.
         13   -1    0    0    0    0 -0.00000000000E+00 -0.00000000000E+00 -0.10000000000E+04  0.10000000000E+04  0.00000000000E+00 0.  1.
    9000005    2    1    2  501    0 -0.40774569152E+01  0.34672342139E+02 -0.89355468883E+03  0.89424162616E+03  0.30507465716E+01 0.  0.
         13    1    3    3    0    0 -0.89938853992E+00  0.16038278709E+02 -0.44031601018E+03  0.44060892423E+03  0.00000000000E+00 0.  1.
          3    1    3    3  501    0 -0.31780683753E+01  0.18634063430E+02 -0.45323867865E+03  0.45363270193E+03  0.00000000000E+00 0.  1.
         -1    1    1    2    0  502  0.40774569152E+01 -0.34672342139E+02 -0.10323008049E+03  0.10897360452E+03  0.00000000000E+00 0. -1.
<mgrwt>
<rscale>  1 0.30000000E+03</rscale>
<asrwt>0</asrwt>
<pdfrwt beam="1">  1       21 0.11691773E-01 0.30000000E+03</pdfrwt>
<pdfrwt beam="2">0</pdfrwt>
<totfact> 0.64963585E+03</totfact>
</mgrwt>
</event>
<event>
 6    1  0.1274196E-001  0.3000000E+03  0.7818608E-02  0.1093470E+00
         21   -1    0    0  501  502  0.00000000000E+00  0.00000000000E+00  0.24993041532E+01  0.24993041532E+01  0.00000000000E+00 0. -1.
         13   -1    0    0    0    0 -0.00000000000E+00 -0.00000000000E+00 -0.10000000000E+04  0.10000000000E+04  0.00000000000E+00 0.  1.
    9000005    2    1    2  501    0 -0.22138187361E+01  0.42922974023E+02 -0.75415696276E+03  0.75538909569E+03  0.35607191536E+01 0.  0.
         13    1    3    3    0    0 -0.64630633122E+00  0.24239298409E+02 -0.45407914084E+03  0.45472610157E+03  0.00000000000E+00 0.  1.
          1    1    3    3  501    0 -0.15675124049E+01  0.18683675614E+02 -0.30007782192E+03  0.30066299413E+03  0.00000000000E+00 0.  1.
         -1    1    1    2    0  502  0.22138187361E+01 -0.42922974023E+02 -0.24334373309E+03  0.24711020846E+03  0.00000000000E+00 0. -1.
<mgrwt>
<rscale>  1 0.30000000E+03</rscale>
<asrwt>0</asrwt>
<pdfrwt beam="1">  1       21 0.90883979E-02 0.30000000E+03</pdfrwt>
<pdfrwt beam="2">0</pdfrwt>
<totfact> 0.10199847E+04</totfact>
</mgrwt>
</event>
<event>
 6    1  0.1274196E-001  0.3000000E+03  0.7818608E-02  0.1093470E+00
         21   -1    0    0  501  502  0.00000000000E+00  0.00000000000E+00  0.16776304112E+01  0.16776304112E+01  0.00000000000E+00 0. -1.
         13   -1    0    0    0    0 -0.00000000000E+00 -0.00000000000E+00 -0.10000000000E+04  0.10000000000E+04  0.00000000000E+00 0.  1.
    9000005    2    1    2  501    0 -0.28512394947E+02  0.12467466463E+02 -0.82221385565E+03  0.82284082472E+03  0.79375077363E+01 0.  0.
         13    1    3    3    0    0 -0.13737099673E+02  0.81876111980E+01 -0.50656238657E+03  0.50681475548E+03  0.00000000000E+00 0.  1.
          3    1    3    3  501    0 -0.14775295273E+02  0.42798552651E+01 -0.31565146908E+03  0.31602606925E+03  0.00000000000E+00 0.  1.
         -3    1    1    2    0  502  0.28512394947E+02 -0.12467466463E+02 -0.17610851394E+03  0.17883680569E+03  0.00000000000E+00 0. -1.
<mgrwt>
<rscale>  1 0.30000000E+03</rscale>
<asrwt>0</asrwt>
<pdfrwt beam="1">  1       21 0.61004871E-02 0.30000000E+03</pdfrwt>
<pdfrwt beam="2">0</pdfrwt>
<totfact> 0.20476436E+04</totfact>
</mgrwt>
</event>
<event>
 6    1  0.1274196E-001  0.3000000E+03  0.7818608E-02  0.1093470E+00
         21   -1    0    0  501  502  0.00000000000E+00  0.00000000000E+00  0.14314558633E+01  0.14314558633E+01  0.00000000000E+00 0. -1.
         13   -1    0    0    0    0 -0.00000000000E+00 -0.00000000000E+00 -0.10000000000E+04  0.10000000000E+04  0.00000000000E+00 0.  1.
    9000005    2    1    2  501    0  0.50908245861E+01 -0.36684708656E+02 -0.59666717063E+03  0.59782719626E+03  0.37362728903E+01 0.  0.
         13    1    3    3    0    0  0.22458201891E+01 -0.61969887163E+01 -0.99862505346E+02  0.10007979992E+03  0.00000000000E+00 0.  1.
          3    1    3    3  501    0  0.28450043970E+01 -0.30487719940E+02 -0.49680466528E+03  0.49774739634E+03  0.00000000000E+00 0.  1.
         -1    1    1    2    0  502 -0.50908245861E+01  0.36684708656E+02 -0.40190137351E+03  0.40360425961E+03  0.00000000000E+00 0. -1.
<mgrwt>
<rscale>  1 0.30000000E+03</rscale>
<asrwt>0</asrwt>
<pdfrwt beam="1">  1       21 0.52053050E-02 0.30000000E+03</pdfrwt>
<pdfrwt beam="2">0</pdfrwt>
<totfact> 0.26892995E+04</totfact>
</mgrwt>
</event>
<event>
 6    1  0.1274196E-001  0.3000000E+03  0.7818608E-02  0.1093470E+00
         21   -1    0    0  501  502  0.00000000000E+00  0.00000000000E+00  0.12537654251E+01  0.12537654251E+01  0.00000000000E+00 0. -1.
         13   -1    0    0    0    0 -0.00000000000E+00 -0.00000000000E+00 -0.10000000000E+04  0.10000000000E+04  0.00000000000E+00 0.  1.
    9000005    2    1    2  501    0 -0.89167800385E+01 -0.30682710726E+02 -0.70706500121E+03  0.70782765956E+03  0.76250903826E+01 0.  0.
         13    1    3    3    0    0 -0.28236894524E+01 -0.19334258590E+01 -0.63818455463E+02  0.63910144855E+02  0.00000000000E+00 0.  1.
          1    1    3    3  501    0 -0.60930905862E+01 -0.28749284867E+02 -0.64324654574E+03  0.64391751470E+03  0.00000000000E+00 0.  1.
         -1    1    1    2    0  502  0.89167800385E+01  0.30682710726E+02 -0.29168123337E+03  0.29342610587E+03  0.00000000000E+00 0. -1.
<mgrwt>
<rscale>  1 0.30000000E+03</rscale>
<asrwt>0</asrwt>
<pdfrwt beam="1">  1       21 0.45591566E-02 0.30000000E+03</pdfrwt>
<pdfrwt beam="2">0</pdfrwt>
<totfact> 0.33702540E+04</totfact>
</mgrwt>
</event>
<event>
 6    1  0.1274196E-001  0.3000000E+03  0.7818608E-02  0.1093470E+00
         21   -1    0    0  501  502  0.00000000000E+00  0.00000000000E+00  0.24020130826E+01  0.24020130826E+01  0.00000000000E+00 0. -1.
         13   -1    0    0    0    0 -0.00000000000E+00 -0.00000000000E+00 -0.10000000000E+04  0.10000000000E+04  0.00000000000E+00 0.  1.
    9000005    2    1    2  501    0 -0.47340969791E+02  0.10249618534E+02 -0.57300913089E+03  0.57505915452E+03  0.27101687313E+01 0.  0.
         13    1    3    3    0    0 -0.37219465547E+01  0.10545166710E+01 -0.54668521655E+02  0.54805220112E+02  0.00000000000E+00 0.  1.
          3    1    3    3  501    0 -0.43619023236E+02  0.91951018631E+01 -0.51834060923E+03  0.52025393441E+03  0.00000000000E+00 0.  1.
         -3    1    1    2    0  502  0.47340969791E+02 -0.10249618534E+02 -0.42458885603E+03  0.42734285856E+03  0.00000000000E+00 0. -1.
<mgrwt>
<rscale>  1 0.30000000E+03</rscale>
<asrwt>0</asrwt>
<pdfrwt beam="1">  1       21 0.87346114E-02 0.30000000E+03</pdfrwt>
<pdfrwt beam="2">0</pdfrwt>
<totfact> 0.10942505E+04</totfact>
</mgrwt>
</event>
<event>
 6    1  0.1274196E-001  0.3000000E+03  0.7818608E-02  0.1093470E+00
         21   -1    0    0  501  502  0.00000000000E+00  0.00000000000E+00  0.98087704487E+00  0.98087704487E+00  0.00000000000E+00 0. -1.
         13   -1    0    0    0    0 -0.00000000000E+00 -0.00000000000E+00 -0.10000000000E+04  0.10000000000E+04  0.00000000000E+00 0.  1.
    9000005    2    1    2  501    0  0.16979545887E+01 -0.30756323910E+02 -0.58384904524E+03  0.58466966180E+03  0.31735294528E+01 0.  0.
         13    1    3    3    0    0  0.19768829492E+01 -0.10999484849E+02 -0.22379401129E+03  0.22407288150E+03  0.00000000000E+00 0.  1.
          1    1    3    3  501    0 -0.27892836044E+00 -0.19756839061E+02 -0.36005503395E+03  0.36059678030E+03  0.00000000000E+00 0.  1.
         -3    1    1    2    0  502 -0.16979545887E+01  0.30756323910E+02 -0.41517007771E+03  0.41631121524E+03  0.00000000000E+00 0. -1.
<mgrwt>
<rscale>  1 0.30000000E+03</rscale>
<asrwt>0</asrwt>
<pdfrwt beam="1">  1       21 0.35668331E-02 0.30000000E+03</pdfrwt>
<pdfrwt beam="2">0</pdfrwt>
<totfact> 0.50975303E+04</totfact>
</mgrwt>
</event>
<event>
 6    1  0.1274196E-001  0.3000000E+03  0.7818608E-02  0.1093470E+00
         21   -1    0    0  501  502  0.00000000000E+00  0.00000000000E+00  0.17476148381E+01  0.17476148381E+01  0.00000000000E+00 0. -1.
         13   -1    0    0    0    0 -0.00000000000E+00 -0.00000000000E+00 -0.10000000000E+04  0.10000000000E+04  0.00000000000E+00 0.  1.
    9000005    2    1    2  501    0 -0.28331677716E+02  0.13168833751E+02 -0.83105902791E+03  0.83166022302E+03  0.48493862522E+01 0.  0.
         13    1    3    3    0    0 -0.23540411369E+02  0.10790114377E+02 -0.63404679763E+03  0.63457538490E+03  0.00000000000E+00 0.  1.
          1    1    3    3  501    0 -0.47912663476E+01  0.23787193737E+01 -0.19701223028E+03  0.19708483812E+03  0.00000000000E+00 0.  1.
         -1    1    1    2    0  502  0.28331677716E+02 -0.13168833751E+02 -0.16719335726E+03  0.17008739182E+03  0.00000000000E+00 0. -1.
<mgrwt>
<rscale>  1 0.30000000E+03</rscale>
<asrwt>0</asrwt>
<pdfrwt beam="1">  1       21 0.63549764E-02 0.30000000E+03</pdfrwt>
<pdfrwt beam="2">0</pdfrwt>
<totfact> 0.19080638E+04</totfact>
</mgrwt>
</event>
<event>
 6    1  0.1274196E-001  0.3000000E+03  0.7818608E-02  0.1093470E+00
         21   -1    0    0  501  502  0.00000000000E+00  0.00000000000E+00  0.19758896264E+01  0.19758896264E+01  0.00000000000E+00 0. -1.
         13   -1    0    0    0    0 -0.00000000000E+00 -0.00000000000E+00 -0.10000000000E+04  0.10000000000E+04  0.00000000000E+00 0.  1.
    9000005    2    1    2  501    0  0.25913481815E+01 -0.39895264759E+02 -0.71707149708E+03  0.71819301814E+03  0.33663240293E+01 0.  0.
         13    1    3    3    0    0  0.74525059205E+00 -0.98479869151E+01 -0.15245444411E+03  0.15277400228E+03  0.00000000000E+00 0.  1.
          1    1    3    3  501    0  0.18460975895E+01 -0.30047277843E+02 -0.56461705298E+03  0.56541901586E+03  0.00000000000E+00 0.  1.
         -3    1    1    2    0  502 -0.25913481815E+01  0.39895264759E+02 -0.28095261329E+03  0.28378287149E+03  0.00000000000E+00 0. -1.
<mgrwt>
<rscale>  1 0.30000000E+03</rscale>
<asrwt>0</asrwt>
<pdfrwt beam="1">  1       21 0.71850683E-02 0.30000000E+03</pdfrwt>
<pdfrwt beam="2">0</pdfrwt>
<totfact> 0.15418147E+04</totfact>
</mgrwt>
</event>
<event>
 6    1  0.1274196E-001  0.3000000E+03  0.7818608E-02  0.1093470E+00
         21   -1    0    0  501  502  0.00000000000E+00  0.00000000000E+00  0.30780239848E+01  0.30780239848E+01  0.00000000000E+00 0. -1.
         13   -1    0    0    0    0 -0.00000000000E+00 -0.00000000000E+00 -0.10000000000E+04  0.10000000000E+04  0.00000000000E+00 0.  1.
    9000005    2    1    2  501    0  0.11996876101E+02 -0.37394455713E+02 -0.85254764848E+03  0.85345778202E+03  0.32283754201E+01 0.  0.
         13    1    3    3    0    0  0.90120554906E+01 -0.28809699769E+02 -0.62461714976E+03  0.62534614392E+03  0.00000000000E+00 0.  1.
          1    1    3    3  501    0  0.29848206108E+01 -0.85847559441E+01 -0.22793049872E+03  0.22811163810E+03  0.00000000000E+00 0.  1.
         -1    1    1    2    0  502 -0.11996876101E+02  0.37394455713E+02 -0.14437432753E+03  0.14962024196E+03  0.00000000000E+00 0. -1.
<mgrwt>
<rscale>  1 0.30000000E+03</rscale>
<asrwt>0</asrwt>
<pdfrwt beam="1">  1       21 0.11192838E-01 0.30000000E+03</pdfrwt>
<pdfrwt beam="2">0</pdfrwt>
<totfact> 0.70286160E+03</totfact>
</mgrwt>
</event>
<event>
 6    1  0.1274196E-001  0.3000000E+03  0.7818608E-02  0.1093470E+00
         21   -1    0    0  501  502  0.00000000000E+00  0.00000000000E+00  0.40311484927E+01  0.40311484927E+01  0.00000000000E+00 0. -1.
         13   -1    0    0    0    0 -0.00000000000E+00 -0.00000000000E+00 -0.10000000000E+04  0.10000000000E+04  0.00000000000E+00 0.  1.
    9000005    2    1    2  501    0 -0.34083494120E+02 -0.48318545258E+02 -0.68028538726E+03  0.68285765023E+03  0.31616404569E+01 0.  0.
         13    1    3    3    0    0 -0.39694580334E+01 -0.50838597970E+01 -0.64079814112E+02  0.64403608626E+02  0.00000000000E+00 0.  1.
          3    1    3    3  501    0 -0.30114036086E+02 -0.43234685461E+02 -0.61620557315E+03  0.61845404161E+03  0.00000000000E+00 0.  1.
         -1    1    1    2    0  502  0.34083494120E+02  0.48318545258E+02 -0.31568346424E+03  0.32117349826E+03  0.00000000000E+00 0. -1.
<mgrwt>
<rscale>  1 0.30000000E+03</rscale>
<asrwt>0</asrwt>
<pdfrwt beam="1">  1       21 0.14658753E-01 0.30000000E+03</pdfrwt>
<pdfrwt beam="2">0</pdfrwt>
<totfact> 0.42969823E+03</totfact>
</mgrwt>
</event>
<event>
 6    1  0.1274196E-001  0.3000000E+03  0.7818608E-02  0.1093470E+00
         21   -1    0    0  501  502  0.00000000000E+00  0.00000000000E+00  0.99749151780E+01  0.99749151780E+01  0.00000000000E+00 0. -1.
         13   -1    0    0    0    0 -0.00000000000E+00 -0.00000000000E+00 -0.10000000000E+04  0.10000000000E+04  0.00000000000E+00 0.  1.
    9000005    2    1    2  501    0 -0.73522097432E+02  0.32357087262E+02 -0.19513570212E+03  0.21103711369E+03  0.24982409240E+01 0.  0.
         13    1    3    3    0    0 -0.10677975396E+02  0.41797696875E+01 -0.25973713639E+02  0.28392312927E+02  0.00000000000E+00 0.  1.
          1    1    3    3  501    0 -0.62844122036E+02  0.28177317575E+02 -0.16916198848E+03  0.18264480077E+03  0.00000000000E+00 0.  1.
         -1    1    1    2    0  502  0.73522097432E+02 -0.32357087262E+02 -0.79488938270E+03  0.79893780148E+03  0.00000000000E+00 0. -1.
<mgrwt>
<rscale>  1 0.30000000E+03</rscale>
<asrwt>0</asrwt>
<pdfrwt beam="1">  1       21 0.36272495E-01 0.30000000E+03</pdfrwt>
<pdfrwt beam="2">0</pdfrwt>
<totfact> 0.73961468E+02</totfact>
</mgrwt>
</event>
<event>
 6    1  0.1274196E-001  0.3000000E+03  0.7818608E-02  0.1093470E+00
         21   -1    0    0  501  502  0.00000000000E+00  0.00000000000E+00  0.30462280552E+01  0.30462280552E+01  0.00000000000E+00 0. -1.
         13   -1    0    0    0    0 -0.00000000000E+00 -0.00000000000E+00 -0.10000000000E+04  0.10000000000E+04  0.00000000000E+00 0.  1.
    9000005    2    1    2  501    0  0.51132607692E+02  0.18220279219E+02 -0.58691488150E+03  0.58942996408E+03  0.34759588430E+01 0.  0.
         13    1    3    3    0    0  0.43326268566E+02  0.16725932454E+02 -0.49921920294E+03  0.50137484475E+03  0.00000000000E+00 0.  1.
          1    1    3    3  501    0  0.78063391258E+01  0.14943467649E+01 -0.87695678558E+02  0.88055119332E+02  0.00000000000E+00 0.  1.
         -1    1    1    2    0  502 -0.51132607692E+02 -0.18220279219E+02 -0.41003889044E+03  0.41361626397E+03  0.00000000000E+00 0. -1.
<mgrwt>
<rscale>  1 0.30000000E+03</rscale>
<asrwt>0</asrwt>
<pdfrwt beam="1">  1       21 0.11077216E-01 0.30000000E+03</pdfrwt>
<pdfrwt beam="2">0</pdfrwt>
<totfact> 0.71612994E+03</totfact>
</mgrwt>
</event>
<event>
 6    1  0.1274196E-001  0.3000000E+03  0.7818608E-02  0.1093470E+00
         21   -1    0    0  501  502  0.00000000000E+00  0.00000000000E+00  0.38448426877E+01  0.38448426877E+01  0.00000000000E+00 0. -1.
         13   -1    0    0    0    0 -0.00000000000E+00 -0.00000000000E+00 -0.10000000000E+04  0.10000000000E+04  0.00000000000E+00 0.  1.
    9000005    2    1    2  501    0  0.52206101039E+02  0.24385821112E+02 -0.68290616483E+03  0.68534040544E+03  0.32397692937E+01 0.  0.
         13    1    3    3    0    0  0.38371811884E+02  0.19442870514E+02 -0.50535924702E+03  0.50718674048E+03  0.00000000000E+00 0.  1.
          1    1    3    3  501    0  0.13834289156E+02  0.49429505980E+01 -0.17754691780E+03  0.17815366496E+03  0.00000000000E+00 0.  1.
         -3    1    1    2    0  502 -0.52206101039E+02 -0.24385821112E+02 -0.31324899248E+03  0.31850443725E+03  0.00000000000E+00 0. -1.
<mgrwt>
<rscale>  1 0.30000000E+03</rscale>
<asrwt>0</asrwt>
<pdfrwt beam="1">  1       21 0.13981276E-01 0.30000000E+03</pdfrwt>
<pdfrwt beam="2">0</pdfrwt>
<totfact> 0.46881903E+03</totfact>
</mgrwt>
</event>
<event>
 6    1  0.1274196E-001  0.3000000E+03  0.7818608E-02  0.1093470E+00
         21   -1    0    0  501  502  0.00000000000E+00  0.00000000000E+00  0.15679813241E+01  0.15679813241E+01  0.00000000000E+00 0. -1.
         13   -1    0    0    0    0 -0.00000000000E+00 -0.00000000000E+00 -0.10000000000E+04  0.10000000000E+04  0.00000000000E+00 0.  1.
    9000005    2    1    2  501    0 -0.19215003452E+01 -0.38682350554E+02 -0.39966624231E+03  0.40155092210E+03  0.31656582934E+01 0.  0.
         13    1    3    3    0    0  0.32719148853E-01 -0.10746471834E+02 -0.97898227318E+02  0.98486296709E+02  0.00000000000E+00 0.  1.
          1    1    3    3  501    0 -0.19542194941E+01 -0.27935878720E+02 -0.30176801499E+03  0.30306462539E+03  0.00000000000E+00 0.  1.
         -3    1    1    2    0  502  0.19215003452E+01  0.38682350554E+02 -0.59876577637E+03  0.60001705922E+03  0.00000000000E+00 0. -1.
<mgrwt>
<rscale>  1 0.30000000E+03</rscale>
<asrwt>0</asrwt>
<pdfrwt beam="1">  1       21 0.57017623E-02 0.30000000E+03</pdfrwt>
<pdfrwt beam="2">0</pdfrwt>
<totfact> 0.23006028E+04</totfact>
</mgrwt>
</event>
<event>
 6    1  0.1274196E-001  0.3000000E+03  0.7818608E-02  0.1093470E+00
         21   -1    0    0  501  502  0.00000000000E+00  0.00000000000E+00  0.34775545391E+01  0.34775545391E+01  0.00000000000E+00 0. -1.
         13   -1    0    0    0    0 -0.00000000000E+00 -0.00000000000E+00 -0.10000000000E+04  0.10000000000E+04  0.00000000000E+00 0.  1.
    9000005    2    1    2  501    0  0.11664401005E+02 -0.47899423137E+02 -0.77330770894E+03  0.77488352228E+03  0.30409531625E+01 0.  0.
         13    1    3    3    0    0  0.56271040535E+01 -0.27996368437E+02 -0.43231504391E+03  0.43325715013E+03  0.00000000000E+00 0.  1.
          1    1    3    3  501    0  0.60372969515E+01 -0.19903054700E+02 -0.34099266503E+03  0.34162637215E+03  0.00000000000E+00 0.  1.
         -1    1    1    2    0  502 -0.11664401005E+02  0.47899423137E+02 -0.22321473652E+03  0.22859403226E+03  0.00000000000E+00 0. -1.
<mgrwt>
<rscale>  1 0.30000000E+03</rscale>
<asrwt>0</asrwt>
<pdfrwt beam="1">  1       21 0.12645680E-01 0.30000000E+03</pdfrwt>
<pdfrwt beam="2">0</pdfrwt>
<totfact> 0.56334960E+03</totfact>
</mgrwt>
</event>
<event>
 6    1  0.1274196E-001  0.3000000E+03  0.7818608E-02  0.1093470E+00
         21   -1    0    0  501  502  0.00000000000E+00  0.00000000000E+00  0.27418496060E+01  0.27418496060E+01  0.00000000000E+00 0. -1.
         13   -1    0    0    0    0 -0.00000000000E+00 -0.00000000000E+00 -0.10000000000E+04  0.10000000000E+04  0.00000000000E+00 0.  1.
    9000005    2    1    2  501    0  0.12830733772E+02 -0.41197279715E+02 -0.78202165351E+03  0.78322284547E+03  0.42796642366E+01 0.  0.
         13    1    3    3    0    0  0.53697465625E+01 -0.18053903300E+02 -0.37991806842E+03  0.38038469517E+03  0.00000000000E+00 0.  1.
          1    1    3    3  501    0  0.74609872090E+01 -0.23143376415E+02 -0.40210358509E+03  0.40283815031E+03  0.00000000000E+00 0.  1.
         -3    1    1    2    0  502 -0.12830733772E+02  0.41197279715E+02 -0.21523649688E+03  0.21951900413E+03  0.00000000000E+00 0. -1.
<mgrwt>
<rscale>  1 0.30000000E+03</rscale>
<asrwt>0</asrwt>
<pdfrwt beam="1">  1       21 0.99703832E-02 0.30000000E+03</pdfrwt>
<pdfrwt beam="2">0</pdfrwt>
<totfact> 0.86489106E+03</totfact>
</mgrwt>
</event>
<event>
 6    1  0.1274196E-001  0.3000000E+03  0.7818608E-02  0.1093470E+00
         21   -1    0    0  501  502  0.00000000000E+00  0.00000000000E+00  0.16305313387E+01  0.16305313387E+01  0.00000000000E+00 0. -1.
         13   -1    0    0    0    0 -0.00000000000E+00 -0.00000000000E+00 -0.10000000000E+04  0.10000000000E+04  0.00000000000E+00 0.  1.
    9000005    2    1    2  501    0  0.18256893991E+02  0.35720778010E+02 -0.55014496403E+03  0.55161442640E+03  0.31154126488E+01 0.  0.
         13    1    3    3    0    0  0.37109205065E+01  0.10105656251E+02 -0.14085227428E+03  0.14126308219E+03  0.00000000000E+00 0.  1.
          3    1    3    3  501    0  0.14545973485E+02  0.25615121758E+02 -0.40929268975E+03  0.41035134420E+03  0.00000000000E+00 0.  1.
         -1    1    1    2    0  502 -0.18256893991E+02 -0.35720778010E+02 -0.44822450463E+03  0.45001610494E+03  0.00000000000E+00 0. -1.
<mgrwt>
<rscale>  1 0.30000000E+03</rscale>
<asrwt>0</asrwt>
<pdfrwt beam="1">  1       21 0.59292174E-02 0.30000000E+03</pdfrwt>
<pdfrwt beam="2">0</pdfrwt>
<totfact> 0.21507276E+04</totfact>
</mgrwt>
</event>
<event>
 6    1  0.1274196E-001  0.3000000E+03  0.7818608E-02  0.1093470E+00
         21   -1    0    0  501  502  0.00000000000E+00  0.00000000000E+00  0.15979275202E+01  0.15979275202E+01  0.00000000000E+00 0. -1.
         13   -1    0    0    0    0 -0.00000000000E+00 -0.00000000000E+00 -0.10000000000E+04  0.10000000000E+04  0.00000000000E+00 0.  1.
    9000005    2    1    2  501    0 -0.28263650081E+02  0.12424626958E+02 -0.18278199123E+03  0.18539371153E+03  0.28925220729E+01 0.  0.
         13    1    3    3    0    0 -0.26495038544E+02  0.11013303909E+02 -0.16630061981E+03  0.16875774377E+03  0.00000000000E+00 0.  1.
          1    1    3    3  501    0 -0.17686115370E+01  0.14113230496E+01 -0.16481371419E+02  0.16635967762E+02  0.00000000000E+00 0.  1.
         -1    1    1    2    0  502  0.28263650081E+02 -0.12424626958E+02 -0.81562008125E+03  0.81620421599E+03  0.00000000000E+00 0. -1.
<mgrwt>
<rscale>  1 0.30000000E+03</rscale>
<asrwt>0</asrwt>
<pdfrwt beam="1">  1       21 0.58106578E-02 0.30000000E+03</pdfrwt>
<pdfrwt beam="2">0</pdfrwt>
<totfact> 0.22269049E+04</totfact>
</mgrwt>
</event>
<event>
 6    1  0.1274196E-001  0.3000000E+03  0.7818608E-02  0.1093470E+00
         21   -1    0    0  501  502  0.00000000000E+00  0.00000000000E+00  0.19608723054E+01  0.19608723054E+01  0.00000000000E+00 0. -1.
         13   -1    0    0    0    0 -0.00000000000E+00 -0.00000000000E+00 -0.10000000000E+04  0.10000000000E+04  0.00000000000E+00 0.  1.
    9000005    2    1    2  501    0  0.23382810740E+02  0.23134973534E+02 -0.83399546753E+03  0.83465186096E+03  0.36477798562E+01 0.  0.
         13    1    3    3    0    0  0.87628980708E+01  0.67899428729E+01 -0.25329349844E+03  0.25353596995E+03  0.00000000000E+00 0.  1.
          3    1    3    3  501    0  0.14619912669E+02  0.16345030661E+02 -0.58070196910E+03  0.58111589101E+03  0.00000000000E+00 0.  1.
         -1    1    1    2    0  502 -0.23382810740E+02 -0.23134973534E+02 -0.16404366016E+03  0.16730901135E+03  0.00000000000E+00 0. -1.
<mgrwt>
<rscale>  1 0.30000000E+03</rscale>
<asrwt>0</asrwt>
<pdfrwt beam="1">  1       21 0.71304598E-02 0.30000000E+03</pdfrwt>
<pdfrwt beam="2">0</pdfrwt>
<totfact> 0.15624618E+04</totfact>
</mgrwt>
</event>
<event>
 6    1  0.1274196E-001  0.3000000E+03  0.7818608E-02  0.1093470E+00
         21   -1    0    0  501  502  0.00000000000E+00  0.00000000000E+00  0.53407355913E+01  0.53407355913E+01  0.00000000000E+00 0. -1.
         13   -1    0    0    0    0 -0.00000000000E+00 -0.00000000000E+00 -0.10000000000E+04  0.10000000000E+04  0.00000000000E+00 0.  1.
    9000005    2    1    2  501    0 -0.71829134334E+02  0.12895457150E+02 -0.51905306108E+03  0.52416823222E+03  0.32462439371E+01 0.  0.
         13    1    3    3    0    0 -0.42738602662E+02  0.61586781385E+01 -0.31093674711E+03  0.31392065586E+03  0.00000000000E+00 0.  1.
          3    1    3    3  501    0 -0.29090531672E+02  0.67367790113E+01 -0.20811631397E+03  0.21024757636E+03  0.00000000000E+00 0.  1.
         -1    1    1    2    0  502  0.71829134334E+02 -0.12895457150E+02 -0.47560620333E+03  0.48117250337E+03  0.00000000000E+00 0. -1.
<mgrwt>
<rscale>  1 0.30000000E+03</rscale>
<asrwt>0</asrwt>
<pdfrwt beam="1">  1       21 0.19420898E-01 0.30000000E+03</pdfrwt>
<pdfrwt beam="2">0</pdfrwt>
<totfact> 0.25373376E+03</totfact>
</mgrwt>
</event>
<event>
 6    1  0.1274196E-001  0.3000000E+03  0.7818608E-02  0.1093470E+00
         21   -1    0    0  501  502  0.00000000000E+00  0.00000000000E+00  0.77601908604E+01  0.77601908604E+01  0.00000000000E+00 0. -1.
         13   -1    0    0    0    0 -0.00000000000E+00 -0.00000000000E+00 -0.10000000000E+04  0.10000000000E+04  0.00000000000E+00 0.  1.
    9000005    2    1    2  501    0  0.34936097909E+01  0.56642767154E+02 -0.88141693380E+03  0.88325188560E+03  0.41801731085E+01 0.  0.
         13    1    3    3    0    0  0.18612415623E+01  0.80907717091E+01 -0.12009839920E+03  0.12038500861E+03  0.00000000000E+00 0.  1.
          1    1    3    3  501    0  0.16323682286E+01  0.48551995445E+02 -0.76131853459E+03  0.76286687699E+03  0.00000000000E+00 0.  1.
         -3    1    1    2    0  502 -0.34936097909E+01 -0.56642767154E+02 -0.11082287534E+03  0.12450830526E+03  0.00000000000E+00 0. -1.
<mgrwt>
<rscale>  1 0.30000000E+03</rscale>
<asrwt>0</asrwt>
<pdfrwt beam="1">  1       21 0.28218935E-01 0.30000000E+03</pdfrwt>
<pdfrwt beam="2">0</pdfrwt>
<totfact> 0.12282750E+03</totfact>
</mgrwt>
</event>
<event>
 6    1  0.1274196E-001  0.3000000E+03  0.7818608E-02  0.1093470E+00
         21   -1    0    0  501  502  0.00000000000E+00  0.00000000000E+00  0.20748861690E+01  0.20748861690E+01  0.00000000000E+00 0. -1.
         13   -1    0    0    0    0 -0.00000000000E+00 -0.00000000000E+00 -0.10000000000E+04  0.10000000000E+04  0.00000000000E+00 0.  1.
    9000005    2    1    2  501    0  0.99359451482E+00 -0.32272799299E+02 -0.85212362868E+03  0.85274105250E+03  0.31785637747E+01 0.  0.
         13    1    3    3    0    0 -0.15339718369E+00 -0.19646101091E+00 -0.15422259982E+02  0.15424274070E+02  0.00000000000E+00 0.  1.
          3    1    3    3  501    0  0.11469916985E+01 -0.32076338288E+02 -0.83670136869E+03  0.83731677843E+03  0.00000000000E+00 0.  1.
         -1    1    1    2    0  502 -0.99359451482E+00  0.32272799299E+02 -0.14580148516E+03  0.14933383367E+03  0.00000000000E+00 0. -1.
<mgrwt>
<rscale>  1 0.30000000E+03</rscale>
<asrwt>0</asrwt>
<pdfrwt beam="1">  1       21 0.75450565E-02 0.30000000E+03</pdfrwt>
<pdfrwt beam="2">0</pdfrwt>
<totfact> 0.14155218E+04</totfact>
</mgrwt>
</event>
<event>
 6    1  0.1274196E-001  0.3000000E+03  0.7818608E-02  0.1093470E+00
         21   -1    0    0  501  502  0.00000000000E+00  0.00000000000E+00  0.13732192497E+01  0.13732192497E+01  0.00000000000E+00 0. -1.
         13   -1    0    0    0    0 -0.00000000000E+00 -0.00000000000E+00 -0.10000000000E+04  0.10000000000E+04  0.00000000000E+00 0.  1.
    9000005    2    1    2  501    0 -0.15804368828E+02 -0.30271764754E+02 -0.69207196905E+03  0.69292223385E+03  0.33843770825E+01 0.  0.
         13    1    3    3    0    0 -0.73012413293E+01 -0.17238897807E+02 -0.36260982703E+03  0.36309279032E+03  0.00000000000E+00 0.  1.
          1    1    3    3  501    0 -0.85031274986E+01 -0.13032866946E+02 -0.32946214202E+03  0.32982944353E+03  0.00000000000E+00 0.  1.
         -3    1    1    2    0  502  0.15804368828E+02  0.30271764754E+02 -0.30655481170E+03  0.30845098540E+03  0.00000000000E+00 0. -1.
<mgrwt>
<rscale>  1 0.30000000E+03</rscale>
<asrwt>0</asrwt>
<pdfrwt beam="1">  1       21 0.49935351E-02 0.30000000E+03</pdfrwt>
<pdfrwt beam="2">0</pdfrwt>
<totfact> 0.28868255E+04</totfact>
</mgrwt>
</event>
<event>
 6    1  0.1274196E-001  0.3000000E+03  0.7818608E-02  0.1093470E+00
         21   -1    0    0  501  502  0.00000000000E+00  0.00000000000E+00  0.12074353885E+01  0.12074353885E+01  0.00000000000E+00 0. -1.
         13   -1    0    0    0    0 -0.00000000000E+00 -0.00000000000E+00 -0.10000000000E+04  0.10000000000E+04  0.00000000000E+00 0.  1.
    9000005    2    1    2  501    0  0.27945417597E+02  0.15411616678E+02 -0.69561732116E+03  0.69635715651E+03  0.33715908868E+01 0.  0.
         13    1    3    3    0    0  0.26151538372E+02  0.14518473478E+02 -0.66658263682E+03  0.66725340069E+03  0.00000000000E+00 0.  1.
          3    1    3    3  501    0  0.17938792243E+01  0.89314320068E+00 -0.29034684345E+02  0.29103755814E+02  0.00000000000E+00 0.  1.
         -3    1    1    2    0  502 -0.27945417597E+02 -0.15411616678E+02 -0.30317524345E+03  0.30485027888E+03  0.00000000000E+00 0. -1.
<mgrwt>
<rscale>  1 0.30000000E+03</rscale>
<asrwt>0</asrwt>
<pdfrwt beam="1">  1       21 0.43906834E-02 0.30000000E+03</pdfrwt>
<pdfrwt beam="2">0</pdfrwt>
<totfact> 0.35925157E+04</totfact>
</mgrwt>
</event>
<event>
 6    1  0.1274196E-001  0.3000000E+03  0.7818608E-02  0.1093470E+00
         21   -1    0    0  501  502  0.00000000000E+00  0.00000000000E+00  0.13105629585E+01  0.13105629585E+01  0.00000000000E+00 0. -1.
         13   -1    0    0    0    0 -0.00000000000E+00 -0.00000000000E+00 -0.10000000000E+04  0.10000000000E+04  0.00000000000E+00 0.  1.
    9000005    2    1    2  501    0  0.33969447778E+02  0.11737230366E+02 -0.44962399002E+03  0.45107011455E+03  0.32908773400E+01 0.  0.
         13    1    3    3    0    0  0.25755554301E+01  0.42483936023E+00 -0.24580787527E+02  0.24719002603E+02  0.00000000000E+00 0.  1.
          3    1    3    3  501    0  0.31393892348E+02  0.11312391006E+02 -0.42504320250E+03  0.42635111194E+03  0.00000000000E+00 0.  1.
         -3    1    1    2    0  502 -0.33969447778E+02 -0.11737230366E+02 -0.54906544702E+03  0.55024044841E+03  0.00000000000E+00 0. -1.
<mgrwt>
<rscale>  1 0.30000000E+03</rscale>
<asrwt>0</asrwt>
<pdfrwt beam="1">  1       21 0.47656935E-02 0.30000000E+03</pdfrwt>
<pdfrwt beam="2">0</pdfrwt>
<totfact> 0.31257679E+04</totfact>
</mgrwt>
</event>
<event>
 6    1  0.1274196E-001  0.3000000E+03  0.7818608E-02  0.1093470E+00
         21   -1    0    0  501  502  0.00000000000E+00  0.00000000000E+00  0.19121734233E+01  0.19121734233E+01  0.00000000000E+00 0. -1.
         13   -1    0    0    0    0 -0.00000000000E+00 -0.00000000000E+00 -0.10000000000E+04  0.10000000000E+04  0.00000000000E+00 0.  1.
    9000005    2    1    2  501    0  0.31765313430E+02  0.72146587021E+01 -0.83290321909E+03  0.83354637824E+03  0.32719822202E+01 0.  0.
         13    1    3    3    0    0  0.14860667606E+02  0.18807908546E+01 -0.40014457161E+03  0.40042484314E+03  0.00000000000E+00 0.  1.
          1    1    3    3  501    0  0.16904645823E+02  0.53338678475E+01 -0.43275864748E+03  0.43312153510E+03  0.00000000000E+00 0.  1.
         -1    1    1    2    0  502 -0.31765313430E+02 -0.72146587021E+01 -0.16518460749E+03  0.16836579519E+03  0.00000000000E+00 0. -1.
<mgrwt>
<rscale>  1 0.30000000E+03</rscale>
<asrwt>0</asrwt>
<pdfrwt beam="1">  1       21 0.69533726E-02 0.30000000E+03</pdfrwt>
<pdfrwt beam="2">0</pdfrwt>
<totfact> 0.16324005E+04</totfact>
</mgrwt>
</event>
<event>
 6    1  0.1274196E-001  0.3000000E+03  0.7818608E-02  0.1093470E+00
         21   -1    0    0  501  502  0.00000000000E+00  0.00000000000E+00  0.20136526819E+01  0.20136526819E+01  0.00000000000E+00 0. -1.
         13   -1    0    0    0    0 -0.00000000000E+00 -0.00000000000E+00 -0.10000000000E+04  0.10000000000E+04  0.00000000000E+00 0.  1.
    9000005    2    1    2  501    0 -0.21674154357E+02  0.38057731995E+02 -0.39500907774E+03  0.39744790145E+03  0.38082726129E+01 0.  0.
         13    1    3    3    0    0 -0.11219791265E+02  0.21604642006E+02 -0.23407407402E+03  0.23533660234E+03  0.00000000000E+00 0.  1.
          3    1    3    3  501    0 -0.10454363092E+02  0.16453089988E+02 -0.16093500372E+03  0.16211129911E+03  0.00000000000E+00 0.  1.
         -3    1    1    2    0  502  0.21674154357E+02 -0.38057731995E+02 -0.60297726958E+03  0.60456575123E+03  0.00000000000E+00 0. -1.
<mgrwt>
<rscale>  1 0.30000000E+03</rscale>
<asrwt>0</asrwt>
<pdfrwt beam="1">  1       21 0.73223888E-02 0.30000000E+03</pdfrwt>
<pdfrwt beam="2">0</pdfrwt>
<totfact> 0.14916915E+04</totfact>
</mgrwt>
</event>
<event>
 6    1  0.1274196E-001  0.3000000E+03  0.7818608E-02  0.1093470E+00
         21   -1    0    0  501  502  0.00000000000E+00  0.00000000000E+00  0.14783594175E+01  0.14783594175E+01  0.00000000000E+00 0. -1.
         13   -1    0    0    0    0 -0.00000000000E+00 -0.00000000000E+00 -0.10000000000E+04  0.10000000000E+04  0.00000000000E+00 0.  1.
    9000005    2    1    2  501    0 -0.34303301922E+02  0.24936059834E+01 -0.72187232686E+03  0.72269927595E+03  0.34135882631E+01 0.  0.
         13    1    3    3    0    0 -0.15181920643E+02  0.68610409397E+00 -0.35362226990E+03  0.35394868444E+03  0.00000000000E+00 0.  1.
          1    1    3    3  501    0 -0.19121381279E+02  0.18075018895E+01 -0.36825005696E+03  0.36875059151E+03  0.00000000000E+00 0.  1.
         -3    1    1    2    0  502  0.34303301922E+02 -0.24936059834E+01 -0.27664931372E+03  0.27877908346E+03  0.00000000000E+00 0. -1.
<mgrwt>
<rscale>  1 0.30000000E+03</rscale>
<asrwt>0</asrwt>
<pdfrwt beam="1">  1       21 0.53758638E-02 0.30000000E+03</pdfrwt>
<pdfrwt beam="2">0</pdfrwt>
<totfact> 0.25450349E+04</totfact>
</mgrwt>
</event>
<event>
 6    1  0.1274196E-001  0.3000000E+03  0.7818608E-02  0.1093470E+00
         21   -1    0    0  501  502  0.00000000000E+00  0.00000000000E+00  0.11264975322E+01  0.11264975322E+01  0.00000000000E+00 0. -1.
         13   -1    0    0    0    0 -0.00000000000E+00 -0.00000000000E+00 -0.10000000000E+04  0.10000000000E+04  0.00000000000E+00 0.  1.
    9000005    2    1    2  501    0  0.31547734406E+02 -0.16956670102E+01 -0.66556182633E+03  0.66632086992E+03  0.35808081589E+01 0.  0.
         13    1    3    3    0    0  0.18616687079E+02  0.22796272253E+00 -0.36409608695E+03  0.36457179476E+03  0.00000000000E+00 0.  1.
          3    1    3    3  501    0  0.12931047327E+02 -0.19236297328E+01 -0.30146573938E+03  0.30174907515E+03  0.00000000000E+00 0.  1.
         -3    1    1    2    0  502 -0.31547734406E+02  0.16956670102E+01 -0.33331167614E+03  0.33480562762E+03  0.00000000000E+00 0. -1.
<mgrwt>
<rscale>  1 0.30000000E+03</rscale>
<asrwt>0</asrwt>
<pdfrwt beam="1">  1       21 0.40963633E-02 0.30000000E+03</pdfrwt>
<pdfrwt beam="2">0</pdfrwt>
<totfact> 0.40394033E+04</totfact>
</mgrwt>
</event>
<event>
 6    1  0.1274196E-001  0.3000000E+03  0.7818608E-02  0.1093470E+00
         21   -1    0    0  501  502  0.00000000000E+00  0.00000000000E+00  0.10340488207E+01  0.10340488207E+01  0.00000000000E+00 0. -1.
         13   -1    0    0    0    0 -0.00000000000E+00 -0.00000000000E+00 -0.10000000000E+04  0.10000000000E+04  0.00000000000E+00 0.  1.
    9000005    2    1    2  501    0  0.87211276310E+01 -0.30365659431E+02 -0.58850075868E+03  0.58935479795E+03  0.27934863019E+01 0.  0.
         13    1    3    3    0    0  0.66641110703E+01 -0.23780744359E+02 -0.48002004638E+03  0.48065494807E+03  0.00000000000E+00 0.  1.
          3    1    3    3  501    0  0.20570165607E+01 -0.65849150729E+01 -0.10848071230E+03  0.10869984988E+03  0.00000000000E+00 0.  1.
         -3    1    1    2    0  502 -0.87211276310E+01  0.30365659431E+02 -0.41046519250E+03  0.41167925087E+03  0.00000000000E+00 0. -1.
<mgrwt>
<rscale>  1 0.30000000E+03</rscale>
<asrwt>0</asrwt>
<pdfrwt beam="1">  1       21 0.37601855E-02 0.30000000E+03</pdfrwt>
<pdfrwt beam="2">0</pdfrwt>
<totfact> 0.46654271E+04</totfact>
</mgrwt>
</event>
<event>
 6    1  0.1274196E-001  0.3000000E+03  0.7818608E-02  0.1093470E+00
         21   -1    0    0  501  502  0.00000000000E+00  0.00000000000E+00  0.28848636969E+01  0.28848636969E+01  0.00000000000E+00 0. -1.
         13   -1    0    0    0    0 -0.00000000000E+00 -0.00000000000E+00 -0.10000000000E+04  0.10000000000E+04  0.00000000000E+00 0.  1.
    9000005    2    1    2  501    0  0.12765767313E+02 -0.46511816399E+02 -0.71822405347E+03  0.71985385840E+03  0.41800215233E+01 0.  0.
         13    1    3    3    0    0  0.10715876708E+02 -0.32238696113E+02 -0.49460296560E+03  0.49576835026E+03  0.00000000000E+00 0.  1.
          1    1    3    3  501    0  0.20498906053E+01 -0.14273120286E+02 -0.22362108788E+03  0.22408550814E+03  0.00000000000E+00 0.  1.
         -1    1    1    2    0  502 -0.12765767313E+02  0.46511816399E+02 -0.27889108283E+03  0.28303100530E+03  0.00000000000E+00 0. -1.
<mgrwt>
<rscale>  1 0.30000000E+03</rscale>
<asrwt>0</asrwt>
<pdfrwt beam="1">  1       21 0.10490436E-01 0.30000000E+03</pdfrwt>
<pdfrwt beam="2">0</pdfrwt>
<totfact> 0.78967578E+03</totfact>
</mgrwt>
</event>
<event>
 6    1  0.1274196E-001  0.3000000E+03  0.7818608E-02  0.1093470E+00
         21   -1    0    0  501  502  0.00000000000E+00  0.00000000000E+00  0.26420855001E+01  0.26420855001E+01  0.00000000000E+00 0. -1.
         13   -1    0    0    0    0 -0.00000000000E+00 -0.00000000000E+00 -0.10000000000E+04  0.10000000000E+04  0.00000000000E+00 0.  1.
    9000005    2    1    2  501    0  0.33849809858E+02  0.30888776468E+02 -0.72528184105E+03  0.72673391983E+03  0.29180706765E+01 0.  0.
         13    1    3    3    0    0  0.31877743273E+02  0.28979457968E+02 -0.69152553638E+03  0.69286619701E+03  0.00000000000E+00 0.  1.
          3    1    3    3  501    0  0.19720665851E+01  0.19093184996E+01 -0.33756304669E+02  0.33867722815E+02  0.00000000000E+00 0.  1.
         -3    1    1    2    0  502 -0.33849809858E+02 -0.30888776468E+02 -0.27207607345E+03  0.27590816567E+03  0.00000000000E+00 0. -1.
<mgrwt>
<rscale>  1 0.30000000E+03</rscale>
<asrwt>0</asrwt>
<pdfrwt beam="1">  1       21 0.96076039E-02 0.30000000E+03</pdfrwt>
<pdfrwt beam="2">0</pdfrwt>
<totfact> 0.92403585E+03</totfact>
</mgrwt>
</event>
<event>
 6    1  0.1274196E-001  0.3000000E+03  0.7818608E-02  0.1093470E+00
         21   -1    0    0  501  502  0.00000000000E+00  0.00000000000E+00  0.10214501448E+01  0.10214501448E+01  0.00000000000E+00 0. -1.
         13   -1    0    0    0    0 -0.00000000000E+00 -0.00000000000E+00 -0.10000000000E+04  0.10000000000E+04  0.00000000000E+00 0.  1.
    9000005    2    1    2  501    0  0.25582220344E+02 -0.15894056493E+02 -0.66308931269E+03  0.66378466290E+03  0.39460188059E+01 0.  0.
         13    1    3    3    0    0  0.11965561866E+02 -0.81173828633E+01 -0.27714040111E+03  0.27751733010E+03  0.00000000000E+00 0.  1.
          3    1    3    3  501    0  0.13616658478E+02 -0.77766736300E+01 -0.38594891158E+03  0.38626733280E+03  0.00000000000E+00 0.  1.
         -1    1    1    2    0  502 -0.25582220344E+02  0.15894056493E+02 -0.33588923717E+03  0.33723678725E+03  0.00000000000E+00 0. -1.
<mgrwt>
<rscale>  1 0.30000000E+03</rscale>
<asrwt>0</asrwt>
<pdfrwt beam="1">  1       21 0.37143720E-02 0.30000000E+03</pdfrwt>
<pdfrwt beam="2">0</pdfrwt>
<totfact> 0.47624512E+04</totfact>
</mgrwt>
</event>
<event>
 6    1  0.1274196E-001  0.3000000E+03  0.7818608E-02  0.1093470E+00
         21   -1    0    0  501  502  0.00000000000E+00  0.00000000000E+00  0.16478875621E+01  0.16478875621E+01  0.00000000000E+00 0. -1.
         13   -1    0    0    0    0 -0.00000000000E+00 -0.00000000000E+00 -0.10000000000E+04  0.10000000000E+04  0.00000000000E+00 0.  1.
    9000005    2    1    2  501    0  0.18088741806E+02  0.32200933580E+02 -0.70592061066E+03  0.70689326769E+03  0.31750036221E+01 0.  0.
         13    1    3    3    0    0  0.40288105625E+01  0.48953771384E+01 -0.12910613225E+03  0.12926170902E+03  0.00000000000E+00 0.  1.
          1    1    3    3  501    0  0.14059931244E+02  0.27305556441E+02 -0.57681447840E+03  0.57763155867E+03  0.00000000000E+00 0.  1.
         -3    1    1    2    0  502 -0.18088741806E+02 -0.32200933580E+02 -0.29243150178E+03  0.29475461988E+03  0.00000000000E+00 0. -1.
<mgrwt>
<rscale>  1 0.30000000E+03</rscale>
<asrwt>0</asrwt>
<pdfrwt beam="1">  1       21 0.59923310E-02 0.30000000E+03</pdfrwt>
<pdfrwt beam="2">0</pdfrwt>
<totfact> 0.21118195E+04</totfact>
</mgrwt>
</event>
<event>
 6    1  0.1274196E-001  0.3000000E+03  0.7818608E-02  0.1093470E+00
         21   -1    0    0  501  502  0.00000000000E+00  0.00000000000E+00  0.10467128298E+01  0.10467128298E+01  0.00000000000E+00 0. -1.
         13   -1    0    0    0    0 -0.00000000000E+00 -0.00000000000E+00 -0.10000000000E+04  0.10000000000E+04  0.00000000000E+00 0.  1.
    9000005    2    1    2  501    0 -0.68698488217E+01  0.31049618162E+02 -0.41382804822E+03  0.41505795964E+03  0.28605514083E+01 0.  0.
         13    1    3    3    0    0 -0.25417211993E+01  0.17711707812E+02 -0.23790978294E+03  0.23858170458E+03  0.00000000000E+00 0.  1.
          3    1    3    3  501    0 -0.43281276224E+01  0.13337910350E+02 -0.17591826528E+03  0.17647625506E+03  0.00000000000E+00 0.  1.
         -3    1    1    2    0  502  0.68698488217E+01 -0.31049618162E+02 -0.58512523895E+03  0.58598875319E+03  0.00000000000E+00 0. -1.
<mgrwt>
<rscale>  1 0.30000000E+03</rscale>
<asrwt>0</asrwt>
<pdfrwt beam="1">  1       21 0.38062365E-02 0.30000000E+03</pdfrwt>
<pdfrwt beam="2">0</pdfrwt>
<totfact> 0.45709965E+04</totfact>
</mgrwt>
</event>
<event>
 6    1  0.1274196E-001  0.3000000E+03  0.7818608E-02  0.1093470E+00
         21   -1    0    0  501  502  0.00000000000E+00  0.00000000000E+00  0.10477169639E+01  0.10477169639E+01  0.00000000000E+00 0. -1.
         13   -1    0    0    0    0 -0.00000000000E+00 -0.00000000000E+00 -0.10000000000E+04  0.10000000000E+04  0.00000000000E+00 0.  1.
    9000005    2    1    2  501    0 -0.31403995972E+02 -0.41314343684E+01 -0.59709632614E+03  0.59794538528E+03  0.33736300101E+01 0.  0.
         13    1    3    3    0    0 -0.10343391645E+02 -0.11351262571E+01 -0.22672358008E+03  0.22696223480E+03  0.00000000000E+00 0.  1.
          1    1    3    3  501    0 -0.21060604327E+02 -0.29963081113E+01 -0.37037274605E+03  0.37098315048E+03  0.00000000000E+00 0.  1.
         -3    1    1    2    0  502  0.31403995972E+02  0.41314343684E+01 -0.40185595690E+03  0.40310233168E+03  0.00000000000E+00 0. -1.
<mgrwt>
<rscale>  1 0.30000000E+03</rscale>
<asrwt>0</asrwt>
<pdfrwt beam="1">  1       21 0.38098879E-02 0.30000000E+03</pdfrwt>
<pdfrwt beam="2">0</pdfrwt>
<totfact> 0.45636378E+04</totfact>
</mgrwt>
</event>
<event>
 6    1  0.1274196E-001  0.3000000E+03  0.7818608E-02  0.1093470E+00
         21   -1    0    0  501  502  0.00000000000E+00  0.00000000000E+00  0.18346905764E+01  0.18346905764E+01  0.00000000000E+00 0. -1.
         13   -1    0    0    0    0 -0.00000000000E+00 -0.00000000000E+00 -0.10000000000E+04  0.10000000000E+04  0.00000000000E+00 0.  1.
    9000005    2    1    2  501    0 -0.16611205569E+02 -0.39169039532E+02 -0.54915582820E+03  0.55081400364E+03  0.37144529629E+01 0.  0.
         13    1    3    3    0    0 -0.66195741058E+01 -0.15096196509E+02 -0.19001484237E+03  0.19072848301E+03  0.00000000000E+00 0.  1.
          1    1    3    3  501    0 -0.99916314634E+01 -0.24072843023E+02 -0.35914098583E+03  0.36008552064E+03  0.00000000000E+00 0.  1.
         -3    1    1    2    0  502  0.16611205569E+02  0.39169039532E+02 -0.44900948123E+03  0.45102068693E+03  0.00000000000E+00 0. -1.
<mgrwt>
<rscale>  1 0.30000000E+03</rscale>
<asrwt>0</asrwt>
<pdfrwt beam="1">  1       21 0.66716162E-02 0.30000000E+03</pdfrwt>
<pdfrwt beam="2">0</pdfrwt>
<totfact> 0.17539860E+04</totfact>
</mgrwt>
</event>
<event>
 6    1  0.1274196E-001  0.3000000E+03  0.7818608E-02  0.1093470E+00
         21   -1    0    0  501  502  0.00000000000E+00  0.00000000000E+00  0.48440221307E+01  0.48440221307E+01  0.00000000000E+00 0. -1.
         13   -1    0    0    0    0 -0.00000000000E+00 -0.00000000000E+00 -0.10000000000E+04  0.10000000000E+04  0.00000000000E+00 0.  1.
    9000005    2    1    2  501    0 -0.31556333576E+02  0.30649450075E+02 -0.88676697546E+03  0.88786809802E+03  0.43473823928E+01 0.  0.
         13    1    3    3    0    0 -0.35180243994E+01  0.46503780451E+01 -0.95635829040E+02  0.95813434903E+02  0.00000000000E+00 0.  1.
          3    1    3    3  501    0 -0.28038309177E+02  0.25999072030E+02 -0.79113114642E+03  0.79205466312E+03  0.00000000000E+00 0.  1.
         -3    1    1    2    0  502  0.31556333576E+02 -0.30649450075E+02 -0.10838900241E+03  0.11697592411E+03  0.00000000000E+00 0. -1.
<mgrwt>
<rscale>  1 0.30000000E+03</rscale>
<asrwt>0</asrwt>
<pdfrwt beam="1">  1       21 0.17614663E-01 0.30000000E+03</pdfrwt>
<pdfrwt beam="2">0</pdfrwt>
<totfact> 0.30512786E+03</totfact>
</mgrwt>
</event>
<event>
 6    1  0.1274196E-001  0.3000000E+03  0.7818608E-02  0.1093470E+00
         21   -1    0    0  501  502  0.00000000000E+00  0.00000000000E+00  0.98601185474E+00  0.98601185474E+00  0.00000000000E+00 0. -1.
         13   -1    0    0    0    0 -0.00000000000E+00 -0.00000000000E+00 -0.10000000000E+04  0.10000000000E+04  0.00000000000E+00 0.  1.
    9000005    2    1    2  501    0 -0.29060007283E+02 -0.11558341606E+02 -0.51181548105E+03  0.51278475766E+03  0.38783707112E+01 0.  0.
         13    1    3    3    0    0 -0.17716737672E+02 -0.52275396418E+01 -0.28590248227E+03  0.28649858522E+03  0.00000000000E+00 0.  1.
          3    1    3    3  501    0 -0.11343269611E+02 -0.63308019640E+01 -0.22591299878E+03  0.22628617244E+03  0.00000000000E+00 0.  1.
         -3    1    1    2    0  502  0.29060007283E+02  0.11558341606E+02 -0.48719850709E+03  0.48820125419E+03  0.00000000000E+00 0. -1.
<mgrwt>
<rscale>  1 0.30000000E+03</rscale>
<asrwt>0</asrwt>
<pdfrwt beam="1">  1       21 0.35855052E-02 0.30000000E+03</pdfrwt>
<pdfrwt beam="2">0</pdfrwt>
<totfact> 0.50531009E+04</totfact>
</mgrwt>
</event>
<event>
 6    1  0.1274196E-001  0.3000000E+03  0.7818608E-02  0.1093470E+00
         21   -1    0    0  501  502  0.00000000000E+00  0.00000000000E+00  0.26242718254E+01  0.26242718254E+01  0.00000000000E+00 0. -1.
         13   -1    0    0    0    0 -0.00000000000E+00 -0.00000000000E+00 -0.10000000000E+04  0.10000000000E+04  0.00000000000E+00 0.  1.
    9000005    2    1    2  501    0 -0.15191183197E+02  0.46392183556E+02 -0.64730885118E+03  0.64917013744E+03  0.54874212635E+01 0.  0.
         13    1    3    3    0    0  0.43781869763E+00  0.19366760592E+01 -0.23173772988E+02  0.23258679109E+02  0.00000000000E+00 0.  1.
          3    1    3    3  501    0 -0.15629001895E+02  0.44455507497E+02 -0.62413507819E+03  0.62591145833E+03  0.00000000000E+00 0.  1.
         -1    1    1    2    0  502  0.15191183197E+02 -0.46392183556E+02 -0.35006687700E+03  0.35345413438E+03  0.00000000000E+00 0. -1.
<mgrwt>
<rscale>  1 0.30000000E+03</rscale>
<asrwt>0</asrwt>
<pdfrwt beam="1">  1       21 0.95428268E-02 0.30000000E+03</pdfrwt>
<pdfrwt beam="2">0</pdfrwt>
<totfact> 0.93524675E+03</totfact>
</mgrwt>
</event>
<event>
 6    1  0.1274196E-001  0.3000000E+03  0.7818608E-02  0.1093470E+00
         21   -1    0    0  501  502  0.00000000000E+00  0.00000000000E+00  0.48060436013E+01  0.48060436013E+01  0.00000000000E+00 0. -1.
         13   -1    0    0    0    0 -0.00000000000E+00 -0.00000000000E+00 -0.10000000000E+04  0.10000000000E+04  0.00000000000E+00 0.  1.
    9000005    2    1    2  501    0  0.32292365894E+02 -0.31959190699E+02 -0.87684802635E+03  0.87803875317E+03  0.50402363237E+01 0.  0.
         13    1    3    3    0    0  0.31502365264E+01 -0.29023825181E+01 -0.58481092395E+02  0.58637752192E+02  0.00000000000E+00 0.  1.
          1    1    3    3  501    0  0.29142129367E+02 -0.29056808181E+02 -0.81836693396E+03  0.81940100098E+03  0.00000000000E+00 0.  1.
         -3    1    1    2    0  502 -0.32292365894E+02  0.31959190699E+02 -0.11834593004E+03  0.12676729043E+03  0.00000000000E+00 0. -1.
<mgrwt>
<rscale>  1 0.30000000E+03</rscale>
<asrwt>0</asrwt>
<pdfrwt beam="1">  1       21 0.17476559E-01 0.30000000E+03</pdfrwt>
<pdfrwt beam="2">0</pdfrwt>
<totfact> 0.30967294E+03</totfact>
</mgrwt>
</event>
<event>
 6    1  0.1274196E-001  0.3000000E+03  0.7818608E-02  0.1093470E+00
         21   -1    0    0  501  502  0.00000000000E+00  0.00000000000E+00  0.14466565136E+01  0.14466565136E+01  0.00000000000E+00 0. -1.
         13   -1    0    0    0    0 -0.00000000000E+00 -0.00000000000E+00 -0.10000000000E+04  0.10000000000E+04  0.00000000000E+00 0.  1.
    9000005    2    1    2  501    0  0.77187260786E+01  0.37143911744E+02 -0.51041296237E+03  0.51183427861E+03  0.36996893542E+01 0.  0.
         13    1    3    3    0    0  0.18536204226E+01  0.16271812231E+02 -0.23395114166E+03  0.23452365439E+03  0.00000000000E+00 0.  1.
          3    1    3    3  501    0  0.58651056560E+01  0.20872099513E+02 -0.27646182070E+03  0.27731062423E+03  0.00000000000E+00 0.  1.
         -3    1    1    2    0  502 -0.77187260786E+01 -0.37143911744E+02 -0.48814038112E+03  0.48961237790E+03  0.00000000000E+00 0. -1.
<mgrwt>
<rscale>  1 0.30000000E+03</rscale>
<asrwt>0</asrwt>
<pdfrwt beam="1">  1       21 0.52605802E-02 0.30000000E+03</pdfrwt>
<pdfrwt beam="2">0</pdfrwt>
<totfact> 0.26411879E+04</totfact>
</mgrwt>
</event>
<event>
 6    1  0.1274196E-001  0.3000000E+03  0.7818608E-02  0.1093470E+00
         21   -1    0    0  501  502  0.00000000000E+00  0.00000000000E+00  0.20225913305E+01  0.20225913305E+01  0.00000000000E+00 0. -1.
         13   -1    0    0    0    0 -0.00000000000E+00 -0.00000000000E+00 -0.10000000000E+04  0.10000000000E+04  0.00000000000E+00 0.  1.
    9000005    2    1    2  501    0 -0.15252644163E+02 -0.30571605796E+02 -0.82444206650E+03  0.82515602802E+03  0.32377971312E+01 0.  0.
         13    1    3    3    0    0 -0.17484512634E+01 -0.61456462420E+01 -0.16438725068E+03  0.16451138026E+03  0.00000000000E+00 0.  1.
          3    1    3    3  501    0 -0.13504192899E+02 -0.24425959554E+02 -0.66005481582E+03  0.66064464776E+03  0.00000000000E+00 0.  1.
         -1    1    1    2    0  502  0.15252644163E+02  0.30571605796E+02 -0.17353534217E+03  0.17686656331E+03  0.00000000000E+00 0. -1.
<mgrwt>
<rscale>  1 0.30000000E+03</rscale>
<asrwt>0</asrwt>
<pdfrwt beam="1">  1       21 0.73548931E-02 0.30000000E+03</pdfrwt>
<pdfrwt beam="2">0</pdfrwt>
<totfact> 0.14801892E+04</totfact>
</mgrwt>
</event>
<event>
 6    1  0.1274196E-001  0.3000000E+03  0.7818608E-02  0.1093470E+00
         21   -1    0    0  501  502  0.00000000000E+00  0.00000000000E+00  0.19762498455E+01  0.19762498455E+01  0.00000000000E+00 0. -1.
         13   -1    0    0    0    0 -0.00000000000E+00 -0.00000000000E+00 -0.10000000000E+04  0.10000000000E+04  0.00000000000E+00 0.  1.
    9000005    2    1    2  501    0  0.98280679712E+00  0.33771798865E+02 -0.82424780947E+03  0.82494637139E+03  0.32502205769E+01 0.  0.
         13    1    3    3    0    0  0.93246899487E+00  0.28704192259E+02 -0.72621940004E+03  0.72678705076E+03  0.00000000000E+00 0.  1.
          1    1    3    3  501    0  0.50337802251E-01  0.50676066057E+01 -0.98028409433E+02  0.98159320630E+02  0.00000000000E+00 0.  1.
         -1    1    1    2    0  502 -0.98280679712E+00 -0.33771798865E+02 -0.17377594068E+03  0.17702987846E+03  0.00000000000E+00 0. -1.
<mgrwt>
<rscale>  1 0.30000000E+03</rscale>
<asrwt>0</asrwt>
<pdfrwt beam="1">  1       21 0.71863782E-02 0.30000000E+03</pdfrwt>
<pdfrwt beam="2">0</pdfrwt>
<totfact> 0.15413245E+04</totfact>
</mgrwt>
</event>
<event>
 6    1  0.1274196E-001  0.3000000E+03  0.7818608E-02  0.1093470E+00
         21   -1    0    0  501  502  0.00000000000E+00  0.00000000000E+00  0.13994303589E+01  0.13994303589E+01  0.00000000000E+00 0. -1.
         13   -1    0    0    0    0 -0.00000000000E+00 -0.00000000000E+00 -0.10000000000E+04  0.10000000000E+04  0.00000000000E+00 0.  1.
    9000005    2    1    2  501    0  0.11385844876E+02 -0.30377848052E+02 -0.74775178446E+03  0.74846156419E+03  0.30871976064E+01 0.  0.
         13    1    3    3    0    0  0.10371820307E+02 -0.26651561893E+02 -0.67810756401E+03  0.67871035705E+03  0.00000000000E+00 0.  1.
          1    1    3    3  501    0  0.10140245691E+01 -0.37262861598E+01 -0.69644220452E+02  0.69751207135E+02  0.00000000000E+00 0.  1.
         -3    1    1    2    0  502 -0.11385844876E+02  0.30377848052E+02 -0.25084878518E+03  0.25293786617E+03  0.00000000000E+00 0. -1.
<mgrwt>
<rscale>  1 0.30000000E+03</rscale>
<asrwt>0</asrwt>
<pdfrwt beam="1">  1       21 0.50888484E-02 0.30000000E+03</pdfrwt>
<pdfrwt beam="2">0</pdfrwt>
<totfact> 0.27952236E+04</totfact>
</mgrwt>
</event>
<event>
 6    1  0.1274196E-001  0.3000000E+03  0.7818608E-02  0.1093470E+00
         21   -1    0    0  501  502  0.00000000000E+00  0.00000000000E+00  0.15115581274E+01  0.15115581274E+01  0.00000000000E+00 0. -1.
         13   -1    0    0    0    0 -0.00000000000E+00 -0.00000000000E+00 -0.10000000000E+04  0.10000000000E+04  0.00000000000E+00 0.  1.
    9000005    2    1    2  501    0 -0.34833477926E+01 -0.37800749811E+02 -0.60253109835E+03  0.60373869796E+03  0.39573393280E+01 0.  0.
         13    1    3    3    0    0 -0.14884495062E+01 -0.38875325619E+01 -0.58443903179E+02  0.58591963700E+02  0.00000000000E+00 0.  1.
          3    1    3    3  501    0 -0.19948982864E+01 -0.33913217249E+02 -0.54408719517E+03  0.54514673426E+03  0.00000000000E+00 0.  1.
         -3    1    1    2    0  502  0.34833477926E+01  0.37800749811E+02 -0.39595734352E+03  0.39777286017E+03  0.00000000000E+00 0. -1.
<mgrwt>
<rscale>  1 0.30000000E+03</rscale>
<asrwt>0</asrwt>
<pdfrwt beam="1">  1       21 0.54965866E-02 0.30000000E+03</pdfrwt>
<pdfrwt beam="2">0</pdfrwt>
<totfact> 0.24500215E+04</totfact>
</mgrwt>
</event>
<event>
 6    1  0.1274196E-001  0.3000000E+03  0.7818608E-02  0.1093470E+00
         21   -1    0    0  501  502  0.00000000000E+00  0.00000000000E+00  0.44554046176E+01  0.44554046176E+01  0.00000000000E+00 0. -1.
         13   -1    0    0    0    0 -0.00000000000E+00 -0.00000000000E+00 -0.10000000000E+04  0.10000000000E+04  0.00000000000E+00 0.  1.
    9000005    2    1    2  501    0  0.35892787955E+01 -0.63283498950E+02 -0.65433799534E+03  0.65741127476E+03  0.36997113219E+01 0.  0.
         13    1    3    3    0    0 -0.37465788456E+00 -0.12978436446E+02 -0.12386041586E+03  0.12453908141E+03  0.00000000000E+00 0.  1.
          3    1    3    3  501    0  0.39639366801E+01 -0.50305062504E+02 -0.53047757948E+03  0.53287219335E+03  0.00000000000E+00 0.  1.
         -3    1    1    2    0  502 -0.35892787955E+01  0.63283498950E+02 -0.34120660004E+03  0.34704412986E+03  0.00000000000E+00 0. -1.
<mgrwt>
<rscale>  1 0.30000000E+03</rscale>
<asrwt>0</asrwt>
<pdfrwt beam="1">  1       21 0.16201506E-01 0.30000000E+03</pdfrwt>
<pdfrwt beam="2">0</pdfrwt>
<totfact> 0.35684044E+03</totfact>
</mgrwt>
</event>
<event>
 6    1  0.1274196E-001  0.3000000E+03  0.7818608E-02  0.1093470E+00
         21   -1    0    0  501  502  0.00000000000E+00  0.00000000000E+00  0.29612375887E+01  0.29612375887E+01  0.00000000000E+00 0. -1.
         13   -1    0    0    0    0 -0.00000000000E+00 -0.00000000000E+00 -0.10000000000E+04  0.10000000000E+04  0.00000000000E+00 0.  1.
    9000005    2    1    2  501    0  0.26744020794E+02 -0.28290815765E+02 -0.84863524321E+03  0.84953628063E+03  0.38083057477E+01 0.  0.
         13    1    3    3    0    0  0.20885024967E+02 -0.20560832313E+02 -0.66391964707E+03  0.66456619674E+03  0.00000000000E+00 0.  1.
          1    1    3    3  501    0  0.58589958273E+01 -0.77299834522E+01 -0.18471559614E+03  0.18497008389E+03  0.00000000000E+00 0.  1.
         -3    1    1    2    0  502 -0.26744020794E+02  0.28290815765E+02 -0.14840351921E+03  0.15342495696E+03  0.00000000000E+00 0. -1.
<mgrwt>
<rscale>  1 0.30000000E+03</rscale>
<asrwt>0</asrwt>
<pdfrwt beam="1">  1       21 0.10768159E-01 0.30000000E+03</pdfrwt>
<pdfrwt beam="2">0</pdfrwt>
<totfact> 0.75350914E+03</totfact>
</mgrwt>
</event>
<event>
 6    1  0.1274196E-001  0.3000000E+03  0.7818608E-02  0.1093470E+00
         21   -1    0    0  501  502  0.00000000000E+00  0.00000000000E+00  0.95929540111E+00  0.95929540111E+00  0.00000000000E+00 0. -1.
         13   -1    0    0    0    0 -0.00000000000E+00 -0.00000000000E+00 -0.10000000000E+04  0.10000000000E+04  0.00000000000E+00 0.  1.
    9000005    2    1    2  501    0 -0.28871354250E+02 -0.97792069768E+01 -0.58129843936E+03  0.58210635205E+03  0.32774245332E+01 0.  0.
         13    1    3    3    0    0 -0.21189133339E+02 -0.63227890025E+01 -0.39670004141E+03  0.39731584400E+03  0.00000000000E+00 0.  1.
          1    1    3    3  501    0 -0.76822209110E+01 -0.34564179743E+01 -0.18459839794E+03  0.18479050805E+03  0.00000000000E+00 0.  1.
         -3    1    1    2    0  502  0.28871354250E+02  0.97792069768E+01 -0.41774226524E+03  0.41885294335E+03  0.00000000000E+00 0. -1.
<mgrwt>
<rscale>  1 0.30000000E+03</rscale>
<asrwt>0</asrwt>
<pdfrwt beam="1">  1       21 0.34883543E-02 0.30000000E+03</pdfrwt>
<pdfrwt beam="2">0</pdfrwt>
<totfact> 0.52911238E+04</totfact>
</mgrwt>
</event>
<event>
 6    1  0.1274196E-001  0.3000000E+03  0.7818608E-02  0.1093470E+00
         21   -1    0    0  501  502  0.00000000000E+00  0.00000000000E+00  0.21792973401E+01  0.21792973401E+01  0.00000000000E+00 0. -1.
         13   -1    0    0    0    0 -0.00000000000E+00 -0.00000000000E+00 -0.10000000000E+04  0.10000000000E+04  0.00000000000E+00 0.  1.
    9000005    2    1    2  501    0  0.38596293843E+02 -0.11835833515E+02 -0.74988368354E+03  0.75097713512E+03  0.33701308656E+01 0.  0.
         13    1    3    3    0    0  0.13548838882E+02 -0.28387195424E+01 -0.27517735004E+03  0.27552532250E+03  0.00000000000E+00 0.  1.
          1    1    3    3  501    0  0.25047454961E+02 -0.89971139721E+01 -0.47470633350E+03  0.47545181262E+03  0.00000000000E+00 0.  1.
         -1    1    1    2    0  502 -0.38596293843E+02  0.11835833515E+02 -0.24793701912E+03  0.25120216222E+03  0.00000000000E+00 0. -1.
<mgrwt>
<rscale>  1 0.30000000E+03</rscale>
<asrwt>0</asrwt>
<pdfrwt beam="1">  1       21 0.79247343E-02 0.30000000E+03</pdfrwt>
<pdfrwt beam="2">0</pdfrwt>
<totfact> 0.12987671E+04</totfact>
</mgrwt>
</event>
<event>
 6    1  0.1274196E-001  0.3000000E+03  0.7818608E-02  0.1093470E+00
         21   -1    0    0  501  502  0.00000000000E+00  0.00000000000E+00  0.17130249057E+02  0.17130249057E+02  0.00000000000E+00 0. -1.
         13   -1    0    0    0    0 -0.00000000000E+00 -0.00000000000E+00 -0.10000000000E+04  0.10000000000E+04  0.00000000000E+00 0.  1.
    9000005    2    1    2  501    0 -0.31150795133E+02  0.28350880015E+02 -0.97293902148E+03  0.97385480772E+03  0.29500118927E+01 0.  0.
         13    1    3    3    0    0 -0.21085349921E+02  0.20822085842E+02 -0.69685354884E+03  0.69748334731E+03  0.00000000000E+00 0.  1.
          1    1    3    3  501    0 -0.10065445212E+02  0.75287941725E+01 -0.27608547264E+03  0.27637146042E+03  0.00000000000E+00 0.  1.
         -1    1    1    2    0  502  0.31150795133E+02 -0.28350880015E+02 -0.99307294613E+01  0.43275441334E+02  0.00000000000E+00 0. -1.
<mgrwt>
<rscale>  1 0.30000000E+03</rscale>
<asrwt>0</asrwt>
<pdfrwt beam="1">  1       21 0.62291946E-01 0.30000000E+03</pdfrwt>
<pdfrwt beam="2">0</pdfrwt>
<totfact> 0.23073894E+02</totfact>
</mgrwt>
</event>
<event>
 6    1  0.1274196E-001  0.3000000E+03  0.7818608E-02  0.1093470E+00
         21   -1    0    0  501  502  0.00000000000E+00  0.00000000000E+00  0.55895773037E+01  0.55895773037E+01  0.00000000000E+00 0. -1.
         13   -1    0    0    0    0 -0.00000000000E+00 -0.00000000000E+00 -0.10000000000E+04  0.10000000000E+04  0.00000000000E+00 0.  1.
    9000005    2    1    2  501    0  0.30656553837E+02 -0.65887334907E+01 -0.95361312306E+03  0.95413420480E+03  0.32949339706E+01 0.  0.
         13    1    3    3    0    0  0.11639688355E+02 -0.34377966530E+01 -0.40911898961E+03  0.40929897197E+03  0.00000000000E+00 0.  1.
          3    1    3    3  501    0  0.19016865482E+02 -0.31509368377E+01 -0.54449413345E+03  0.54483523283E+03  0.00000000000E+00 0.  1.
         -3    1    1    2    0  502 -0.30656553837E+02  0.65887334907E+01 -0.40797299636E+02  0.51455372507E+02  0.00000000000E+00 0. -1.
<mgrwt>
<rscale>  1 0.30000000E+03</rscale>
<asrwt>0</asrwt>
<pdfrwt beam="1">  1       21 0.20325779E-01 0.30000000E+03</pdfrwt>
<pdfrwt beam="2">0</pdfrwt>
<totfact> 0.23262922E+03</totfact>
</mgrwt>
</event>
<event>
 6    1  0.1274196E-001  0.3000000E+03  0.7818608E-02  0.1093470E+00
         21   -1    0    0  501  502  0.00000000000E+00  0.00000000000E+00  0.94871680714E+00  0.94871680714E+00  0.00000000000E+00 0. -1.
         13   -1    0    0    0    0 -0.00000000000E+00 -0.00000000000E+00 -0.10000000000E+04  0.10000000000E+04  0.00000000000E+00 0.  1.
    9000005    2    1    2  501    0  0.25348393890E+02  0.17375038530E+02 -0.50684443517E+03  0.50778341564E+03  0.28779675843E+01 0.  0.
         13    1    3    3    0    0  0.64817517673E+01  0.58944309099E+01 -0.13589596981E+03  0.13617808939E+03  0.00000000000E+00 0.  1.
          3    1    3    3  501    0  0.18866642122E+02  0.11480607621E+02 -0.37094846536E+03  0.37160532624E+03  0.00000000000E+00 0.  1.
         -3    1    1    2    0  502 -0.25348393890E+02 -0.17375038530E+02 -0.49220684802E+03  0.49316530117E+03  0.00000000000E+00 0. -1.
<mgrwt>
<rscale>  1 0.30000000E+03</rscale>
<asrwt>0</asrwt>
<pdfrwt beam="1">  1       21 0.34498866E-02 0.30000000E+03</pdfrwt>
<pdfrwt beam="2">0</pdfrwt>
<totfact> 0.53902219E+04</totfact>
</mgrwt>
</event>
<event>
 6    1  0.1274196E-001  0.3000000E+03  0.7818608E-02  0.1093470E+00
         21   -1    0    0  501  502  0.00000000000E+00  0.00000000000E+00  0.26573194574E+01  0.26573194574E+01  0.00000000000E+00 0. -1.
         13   -1    0    0    0    0 -0.00000000000E+00 -0.00000000000E+00 -0.10000000000E+04  0.10000000000E+04  0.00000000000E+00 0.  1.
    9000005    2    1    2  501    0 -0.15769434000E+02  0.48165179329E+02 -0.58411479629E+03  0.58633311422E+03  0.52788284058E+01 0.  0.
         13    1    3    3    0    0 -0.13220006744E+02  0.33598398753E+02 -0.42714691955E+03  0.42867016675E+03  0.00000000000E+00 0.  1.
          3    1    3    3  501    0 -0.25494272555E+01  0.14566780576E+02 -0.15696787674E+03  0.15766294747E+03  0.00000000000E+00 0.  1.
         -1    1    1    2    0  502  0.15769434000E+02 -0.48165179329E+02 -0.41322788425E+03  0.41632420524E+03  0.00000000000E+00 0. -1.
<mgrwt>
<rscale>  1 0.30000000E+03</rscale>
<asrwt>0</asrwt>
<pdfrwt beam="1">  1       21 0.96630002E-02 0.30000000E+03</pdfrwt>
<pdfrwt beam="2">0</pdfrwt>
<totfact> 0.91461100E+03</totfact>
</mgrwt>
</event>
<event>
 6    1  0.1274196E-001  0.3000000E+03  0.7818608E-02  0.1093470E+00
         21   -1    0    0  501  502  0.00000000000E+00  0.00000000000E+00  0.91719998883E+01  0.91719998883E+01  0.00000000000E+00 0. -1.
         13   -1    0    0    0    0 -0.00000000000E+00 -0.00000000000E+00 -0.10000000000E+04  0.10000000000E+04  0.00000000000E+00 0.  1.
    9000005    2    1    2  501    0  0.37069057313E+02 -0.10507979992E+01 -0.96062119920E+03  0.96134240646E+03  0.33037726606E+01 0.  0.
         13    1    3    3    0    0  0.16987208058E+00  0.22347807829E+00 -0.46230125141E+01  0.46315271435E+01  0.00000000000E+00 0.  1.
          1    1    3    3  501    0  0.36899185233E+02 -0.12742760775E+01 -0.95599818668E+03  0.95671087931E+03  0.00000000000E+00 0.  1.
         -1    1    1    2    0  502 -0.37069057313E+02  0.10507979992E+01 -0.30206800913E+02  0.47829593433E+02  0.00000000000E+00 0. -1.
<mgrwt>
<rscale>  1 0.30000000E+03</rscale>
<asrwt>0</asrwt>
<pdfrwt beam="1">  1       21 0.33352797E-01 0.30000000E+03</pdfrwt>
<pdfrwt beam="2">0</pdfrwt>
<totfact> 0.87802490E+02</totfact>
</mgrwt>
</event>
<event>
 6    1  0.1274196E-001  0.3000000E+03  0.7818608E-02  0.1093470E+00
         21   -1    0    0  501  502  0.00000000000E+00  0.00000000000E+00  0.49939625323E+01  0.49939625323E+01  0.00000000000E+00 0. -1.
         13   -1    0    0    0    0 -0.00000000000E+00 -0.00000000000E+00 -0.10000000000E+04  0.10000000000E+04  0.00000000000E+00 0.  1.
    9000005    2    1    2  501    0  0.34825598379E+02  0.22954477457E+02 -0.90305882265E+03  0.90402851968E+03  0.35492097399E+01 0.  0.
         13    1    3    3    0    0  0.19404812454E+02  0.13261135416E+02 -0.47132654121E+03  0.47191218771E+03  0.00000000000E+00 0.  1.
          3    1    3    3  501    0  0.15420785925E+02  0.96933420410E+01 -0.43173228144E+03  0.43211633197E+03  0.00000000000E+00 0.  1.
         -3    1    1    2    0  502 -0.34825598379E+02 -0.22954477457E+02 -0.91947214819E+02  0.10096544285E+03  0.00000000000E+00 0. -1.
<mgrwt>
<rscale>  1 0.30000000E+03</rscale>
<asrwt>0</asrwt>
<pdfrwt beam="1">  1       21 0.18159902E-01 0.30000000E+03</pdfrwt>
<pdfrwt beam="2">0</pdfrwt>
<totfact> 0.28811349E+03</totfact>
</mgrwt>
</event>
<event>
 6    1  0.1274196E-001  0.3000000E+03  0.7818608E-02  0.1093470E+00
         21   -1    0    0  501  502  0.00000000000E+00  0.00000000000E+00  0.17579899768E+02  0.17579899768E+02  0.00000000000E+00 0. -1.
         13   -1    0    0    0    0 -0.00000000000E+00 -0.00000000000E+00 -0.10000000000E+04  0.10000000000E+04  0.00000000000E+00 0.  1.
    9000005    2    1    2  501    0  0.11509977535E+02 -0.31796673564E+02 -0.98312289424E+03  0.98375680186E+03  0.10164250832E+02 0.  0.
         13    1    3    3    0    0 -0.94299504237E+00 -0.19927317061E+00 -0.62903117302E+02  0.62910500838E+02  0.00000000000E+00 0.  1.
          3    1    3    3  501    0  0.12452972578E+02 -0.31597400393E+02 -0.92021977694E+03  0.92084630102E+03  0.00000000000E+00 0.  1.
         -3    1    1    2    0  502 -0.11509977535E+02  0.31796673564E+02  0.70279400836E+00  0.33823097906E+02  0.00000000000E+00 0. -1.
<mgrwt>
<rscale>  1 0.30000000E+03</rscale>
<asrwt>0</asrwt>
<pdfrwt beam="1">  1       21 0.63927043E-01 0.30000000E+03</pdfrwt>
<pdfrwt beam="2">0</pdfrwt>
<totfact> 0.21754060E+02</totfact>
</mgrwt>
</event>
<event>
 6    1  0.1274196E-001  0.3000000E+03  0.7818608E-02  0.1093470E+00
         21   -1    0    0  501  502  0.00000000000E+00  0.00000000000E+00  0.16520864783E+01  0.16520864783E+01  0.00000000000E+00 0. -1.
         13   -1    0    0    0    0 -0.00000000000E+00 -0.00000000000E+00 -0.10000000000E+04  0.10000000000E+04  0.00000000000E+00 0.  1.
    9000005    2    1    2  501    0  0.10742538185E+02  0.37094877831E+02 -0.38130961716E+03  0.38340643040E+03  0.10584641812E+02 0.  0.
         13    1    3    3    0    0  0.31864890843E+00 -0.31437554747E-01 -0.27450356684E+02  0.27452224090E+02  0.00000000000E+00 0.  1.
          3    1    3    3  501    0  0.10423889277E+02  0.37126315386E+02 -0.35385926048E+03  0.35595420631E+03  0.00000000000E+00 0.  1.
         -3    1    1    2    0  502 -0.10742538185E+02 -0.37094877831E+02 -0.61703829636E+03  0.61824565608E+03  0.00000000000E+00 0. -1.
<mgrwt>
<rscale>  1 0.30000000E+03</rscale>
<asrwt>0</asrwt>
<pdfrwt beam="1">  1       21 0.60075999E-02 0.30000000E+03</pdfrwt>
<pdfrwt beam="2">0</pdfrwt>
<totfact> 0.21025712E+04</totfact>
</mgrwt>
</event>
<event>
 6    1  0.1274196E-001  0.3000000E+03  0.7818608E-02  0.1093470E+00
         21   -1    0    0  501  502  0.00000000000E+00  0.00000000000E+00  0.23803198679E+01  0.23803198679E+01  0.00000000000E+00 0. -1.
         13   -1    0    0    0    0 -0.00000000000E+00 -0.00000000000E+00 -0.10000000000E+04  0.10000000000E+04  0.00000000000E+00 0.  1.
    9000005    2    1    2  501    0  0.26176161794E+02 -0.18225986642E+02 -0.87788291121E+03  0.87846796428E+03  0.31906796891E+01 0.  0.
         13    1    3    3    0    0  0.17106681884E+02 -0.12740437674E+02 -0.62202121085E+03  0.62238681225E+03  0.00000000000E+00 0.  1.
          3    1    3    3  501    0  0.90694799093E+01 -0.54855489689E+01 -0.25586170036E+03  0.25608115203E+03  0.00000000000E+00 0.  1.
         -3    1    1    2    0  502 -0.26176161794E+02  0.18225986642E+02 -0.11973676892E+03  0.12391235559E+03  0.00000000000E+00 0. -1.
<mgrwt>
<rscale>  1 0.30000000E+03</rscale>
<asrwt>0</asrwt>
<pdfrwt beam="1">  1       21 0.86557269E-02 0.30000000E+03</pdfrwt>
<pdfrwt beam="2">0</pdfrwt>
<totfact> 0.11119279E+04</totfact>
</mgrwt>
</event>
<event>
 6    1  0.1274196E-001  0.3000000E+03  0.7818608E-02  0.1093470E+00
         21   -1    0    0  501  502  0.00000000000E+00  0.00000000000E+00  0.15794429402E+01  0.15794429402E+01  0.00000000000E+00 0. -1.
         13   -1    0    0    0    0 -0.00000000000E+00 -0.00000000000E+00 -0.10000000000E+04  0.10000000000E+04  0.00000000000E+00 0.  1.
    9000005    2    1    2  501    0  0.32627124667E+02  0.39601270252E+01 -0.78014719156E+03  0.78084549911E+03  0.31370557413E+01 0.  0.
         13    1    3    3    0    0  0.24486329317E+02  0.26444983678E+01 -0.61407337990E+03  0.61456707494E+03  0.00000000000E+00 0.  1.
          3    1    3    3  501    0  0.81407953500E+01  0.13156286574E+01 -0.16607381166E+03  0.16627842417E+03  0.00000000000E+00 0.  1.
         -3    1    1    2    0  502 -0.32627124667E+02 -0.39601270252E+01 -0.21827336550E+03  0.22073394383E+03  0.00000000000E+00 0. -1.
<mgrwt>
<rscale>  1 0.30000000E+03</rscale>
<asrwt>0</asrwt>
<pdfrwt beam="1">  1       21 0.57434410E-02 0.30000000E+03</pdfrwt>
<pdfrwt beam="2">0</pdfrwt>
<totfact> 0.22719608E+04</totfact>
</mgrwt>
</event>
<event>
 6    1  0.1274196E-001  0.3000000E+03  0.7818608E-02  0.1093470E+00
         21   -1    0    0  501  502  0.00000000000E+00  0.00000000000E+00  0.29973032798E+01  0.29973032798E+01  0.00000000000E+00 0. -1.
         13   -1    0    0    0    0 -0.00000000000E+00 -0.00000000000E+00 -0.10000000000E+04  0.10000000000E+04  0.00000000000E+00 0.  1.
    9000005    2    1    2  501    0 -0.49278573315E+02  0.17785158780E+02 -0.35433625562E+03  0.35819900600E+03  0.27669822183E+01 0.  0.
         13    1    3    3    0    0 -0.13829033334E+02  0.43749249774E+01 -0.10571367713E+03  0.10670409394E+03  0.00000000000E+00 0.  1.
          1    1    3    3  501    0 -0.35449539981E+02  0.13410233802E+02 -0.24862257849E+03  0.25149491206E+03  0.00000000000E+00 0.  1.
         -1    1    1    2    0  502  0.49278573315E+02 -0.17785158780E+02 -0.64266644110E+03  0.64479829728E+03  0.00000000000E+00 0. -1.
<mgrwt>
<rscale>  1 0.30000000E+03</rscale>
<asrwt>0</asrwt>
<pdfrwt beam="1">  1       21 0.10899308E-01 0.30000000E+03</pdfrwt>
<pdfrwt beam="2">0</pdfrwt>
<totfact> 0.73729568E+03</totfact>
</mgrwt>
</event>
<event>
 6    1  0.1274196E-001  0.3000000E+03  0.7818608E-02  0.1093470E+00
         21   -1    0    0  501  502  0.00000000000E+00  0.00000000000E+00  0.14971759142E+01  0.14971759142E+01  0.00000000000E+00 0. -1.
         13   -1    0    0    0    0 -0.00000000000E+00 -0.00000000000E+00 -0.10000000000E+04  0.10000000000E+04  0.00000000000E+00 0.  1.
    9000005    2    1    2  501    0  0.41420948476E+01 -0.38016439989E+02 -0.57004028977E+03  0.57133145207E+03  0.33599855351E+01 0.  0.
         13    1    3    3    0    0  0.32125889018E+01 -0.25383734954E+02 -0.35800583650E+03  0.35891897929E+03  0.00000000000E+00 0.  1.
          1    1    3    3  501    0  0.92950594581E+00 -0.12632705035E+02 -0.21203445327E+03  0.21241247278E+03  0.00000000000E+00 0.  1.
         -1    1    1    2    0  502 -0.41420948476E+01  0.38016439989E+02 -0.42846253432E+03  0.43016572385E+03  0.00000000000E+00 0. -1.
<mgrwt>
<rscale>  1 0.30000000E+03</rscale>
<asrwt>0</asrwt>
<pdfrwt beam="1">  1       21 0.54442875E-02 0.30000000E+03</pdfrwt>
<pdfrwt beam="2">0</pdfrwt>
<totfact> 0.24904995E+04</totfact>
</mgrwt>
</event>
<event>
 6    1  0.1274196E-001  0.3000000E+03  0.7818608E-02  0.1093470E+00
         21   -1    0    0  501  502  0.00000000000E+00  0.00000000000E+00  0.22138342132E+01  0.22138342132E+01  0.00000000000E+00 0. -1.
         13   -1    0    0    0    0 -0.00000000000E+00 -0.00000000000E+00 -0.10000000000E+04  0.10000000000E+04  0.00000000000E+00 0.  1.
    9000005    2    1    2  501    0 -0.32145975434E+02  0.20279299941E+02 -0.79383406991E+03  0.79475041297E+03  0.33278549501E+01 0.  0.
         13    1    3    3    0    0 -0.15883747619E+02  0.11454764194E+02 -0.38444392405E+03  0.38494237985E+03  0.00000000000E+00 0.  1.
          1    1    3    3  501    0 -0.16262227815E+02  0.88245357467E+01 -0.40939014586E+03  0.40980803312E+03  0.00000000000E+00 0.  1.
         -1    1    1    2    0  502  0.32145975434E+02 -0.20279299941E+02 -0.20395209587E+03  0.20746342124E+03  0.00000000000E+00 0. -1.
<mgrwt>
<rscale>  1 0.30000000E+03</rscale>
<asrwt>0</asrwt>
<pdfrwt beam="1">  1       21 0.80503232E-02 0.30000000E+03</pdfrwt>
<pdfrwt beam="2">0</pdfrwt>
<totfact> 0.12633921E+04</totfact>
</mgrwt>
</event>
<event>
 6    1  0.1274196E-001  0.3000000E+03  0.7818608E-02  0.1093470E+00
         21   -1    0    0  501  502  0.00000000000E+00  0.00000000000E+00  0.28151214698E+01  0.28151214698E+01  0.00000000000E+00 0. -1.
         13   -1    0    0    0    0 -0.00000000000E+00 -0.00000000000E+00 -0.10000000000E+04  0.10000000000E+04  0.00000000000E+00 0.  1.
    9000005    2    1    2  501    0  0.23106459339E+02  0.38663321883E+02 -0.76279481333E+03  0.76413654349E+03  0.44686609063E+01 0.  0.
         13    1    3    3    0    0  0.14144038788E+02  0.23574192790E+02 -0.42796867403E+03  0.42885076933E+03  0.00000000000E+00 0.  1.
          3    1    3    3  501    0  0.89624205510E+01  0.15089129094E+02 -0.33482613930E+03  0.33528577417E+03  0.00000000000E+00 0.  1.
         -1    1    1    2    0  502 -0.23106459339E+02 -0.38663321883E+02 -0.23439006520E+03  0.23867857798E+03  0.00000000000E+00 0. -1.
<mgrwt>
<rscale>  1 0.30000000E+03</rscale>
<asrwt>0</asrwt>
<pdfrwt beam="1">  1       21 0.10236827E-01 0.30000000E+03</pdfrwt>
<pdfrwt beam="2">0</pdfrwt>
<totfact> 0.82505522E+03</totfact>
</mgrwt>
</event>
<event>
 6    1  0.1274196E-001  0.3000000E+03  0.7818608E-02  0.1093470E+00
         21   -1    0    0  501  502  0.00000000000E+00  0.00000000000E+00  0.10634764791E+01  0.10634764791E+01  0.00000000000E+00 0. -1.
         13   -1    0    0    0    0 -0.00000000000E+00 -0.00000000000E+00 -0.10000000000E+04  0.10000000000E+04  0.00000000000E+00 0.  1.
    9000005    2    1    2  501    0  0.31454089986E+02 -0.66217015186E+01 -0.57706256506E+03  0.57796674577E+03  0.33389393908E+01 0.  0.
         13    1    3    3    0    0  0.14814219584E+02 -0.48187220628E+01 -0.28044729460E+03  0.28087962944E+03  0.00000000000E+00 0.  1.
          1    1    3    3  501    0  0.16639870402E+02 -0.18029794559E+01 -0.29661527046E+03  0.29708711634E+03  0.00000000000E+00 0.  1.
         -1    1    1    2    0  502 -0.31454089986E+02  0.66217015186E+01 -0.42187395846E+03  0.42309673070E+03  0.00000000000E+00 0. -1.
<mgrwt>
<rscale>  1 0.30000000E+03</rscale>
<asrwt>0</asrwt>
<pdfrwt beam="1">  1       21 0.38671954E-02 0.30000000E+03</pdfrwt>
<pdfrwt beam="2">0</pdfrwt>
<totfact> 0.44505407E+04</totfact>
</mgrwt>
</event>
<event>
 6    1  0.1274196E-001  0.3000000E+03  0.7818608E-02  0.1093470E+00
         21   -1    0    0  501  502  0.00000000000E+00  0.00000000000E+00  0.24938968611E+01  0.24938968611E+01  0.00000000000E+00 0. -1.
         13   -1    0    0    0    0 -0.00000000000E+00 -0.00000000000E+00 -0.10000000000E+04  0.10000000000E+04  0.00000000000E+00 0.  1.
    9000005    2    1    2  501    0 -0.40366246130E+02  0.16978337231E+02 -0.25897442155E+03  0.26266503660E+03  0.27336192445E+01 0.  0.
         13    1    3    3    0    0 -0.39645418286E+02  0.16881968960E+02 -0.25255878293E+03  0.25620831154E+03  0.00000000000E+00 0.  1.
          1    1    3    3  501    0 -0.72082784379E+00  0.96368271428E-01 -0.64156386205E+01  0.64567250625E+01  0.00000000000E+00 0.  1.
         -3    1    1    2    0  502  0.40366246130E+02 -0.16978337231E+02 -0.73853168159E+03  0.73982886026E+03  0.00000000000E+00 0. -1.
<mgrwt>
<rscale>  1 0.30000000E+03</rscale>
<asrwt>0</asrwt>
<pdfrwt beam="1">  1       21 0.90687350E-02 0.30000000E+03</pdfrwt>
<pdfrwt beam="2">0</pdfrwt>
<totfact> 0.10239092E+04</totfact>
</mgrwt>
</event>
<event>
 6    1  0.1274196E-001  0.3000000E+03  0.7818608E-02  0.1093470E+00
         21   -1    0    0  501  502  0.00000000000E+00  0.00000000000E+00  0.13619110746E+01  0.13619110746E+01  0.00000000000E+00 0. -1.
         13   -1    0    0    0    0 -0.00000000000E+00 -0.00000000000E+00 -0.10000000000E+04  0.10000000000E+04  0.00000000000E+00 0.  1.
    9000005    2    1    2  501    0  0.21298714934E+02 -0.29553496748E+02 -0.57388495927E+03  0.57504950734E+03  0.33083205944E+01 0.  0.
         13    1    3    3    0    0  0.66458207897E+01 -0.10683609054E+02 -0.21924152657E+03  0.21960226185E+03  0.00000000000E+00 0.  1.
          3    1    3    3  501    0  0.14652894144E+02 -0.18869887694E+02 -0.35464343270E+03  0.35544724549E+03  0.00000000000E+00 0.  1.
         -3    1    1    2    0  502 -0.21298714934E+02  0.29553496748E+02 -0.42475312965E+03  0.42631240373E+03  0.00000000000E+00 0. -1.
<mgrwt>
<rscale>  1 0.30000000E+03</rscale>
<asrwt>0</asrwt>
<pdfrwt beam="1">  1       21 0.49524144E-02 0.30000000E+03</pdfrwt>
<pdfrwt beam="2">0</pdfrwt>
<totfact> 0.29277960E+04</totfact>
</mgrwt>
</event>
<event>
 6    1  0.1274196E-001  0.3000000E+03  0.7818608E-02  0.1093470E+00
         21   -1    0    0  501  502  0.00000000000E+00  0.00000000000E+00  0.17846035054E+01  0.17846035054E+01  0.00000000000E+00 0. -1.
         13   -1    0    0    0    0 -0.00000000000E+00 -0.00000000000E+00 -0.10000000000E+04  0.10000000000E+04  0.00000000000E+00 0.  1.
    9000005    2    1    2  501    0 -0.26790701194E+02  0.14328754552E+02 -0.84682085354E+03  0.84737164254E+03  0.31761162397E+01 0.  0.
         13    1    3    3    0    0 -0.20797777917E+02  0.10043174735E+02 -0.61388774648E+03  0.61432204763E+03  0.00000000000E+00 0.  1.
          3    1    3    3  501    0 -0.59929232774E+01  0.42855798173E+01 -0.23293310705E+03  0.23304959490E+03  0.00000000000E+00 0.  1.
         -1    1    1    2    0  502  0.26790701194E+02 -0.14328754552E+02 -0.15139454296E+03  0.15441296097E+03  0.00000000000E+00 0. -1.
<mgrwt>
<rscale>  1 0.30000000E+03</rscale>
<asrwt>0</asrwt>
<pdfrwt beam="1">  1       21 0.64894810E-02 0.30000000E+03</pdfrwt>
<pdfrwt beam="2">0</pdfrwt>
<totfact> 0.18401572E+04</totfact>
</mgrwt>
</event>
<event>
 6    1  0.1274196E-001  0.3000000E+03  0.7818608E-02  0.1093470E+00
         21   -1    0    0  501  502  0.00000000000E+00  0.00000000000E+00  0.18810757685E+01  0.18810757685E+01  0.00000000000E+00 0. -1.
         13   -1    0    0    0    0 -0.00000000000E+00 -0.00000000000E+00 -0.10000000000E+04  0.10000000000E+04  0.00000000000E+00 0.  1.
    9000005    2    1    2  501    0  0.39374198368E+02 -0.30221437301E+01 -0.70518057886E+03  0.70629295855E+03  0.32609279389E+01 0.  0.
         13    1    3    3    0    0  0.28466558614E+02 -0.36119189419E+01 -0.50518153477E+03  0.50599582408E+03  0.00000000000E+00 0.  1.
          1    1    3    3  501    0  0.10907639753E+02  0.58977521187E+00 -0.19999904409E+03  0.20029713447E+03  0.00000000000E+00 0.  1.
         -1    1    1    2    0  502 -0.39374198368E+02  0.30221437301E+01 -0.29293834537E+03  0.29558811722E+03  0.00000000000E+00 0. -1.
<mgrwt>
<rscale>  1 0.30000000E+03</rscale>
<asrwt>0</asrwt>
<pdfrwt beam="1">  1       21 0.68402899E-02 0.30000000E+03</pdfrwt>
<pdfrwt beam="2">0</pdfrwt>
<totfact> 0.16795973E+04</totfact>
</mgrwt>
</event>
<event>
 6    1  0.1274196E-001  0.3000000E+03  0.7818608E-02  0.1093470E+00
         21   -1    0    0  501  502  0.00000000000E+00  0.00000000000E+00  0.22011193549E+01  0.22011193549E+01  0.00000000000E+00 0. -1.
         13   -1    0    0    0    0 -0.00000000000E+00 -0.00000000000E+00 -0.10000000000E+04  0.10000000000E+04  0.00000000000E+00 0.  1.
    9000005    2    1    2  501    0  0.35068581890E+02 -0.27509012410E+02 -0.65378573226E+03  0.65531266832E+03  0.35154451235E+01 0.  0.
         13    1    3    3    0    0  0.30792463127E+02 -0.25101070306E+02 -0.59292246574E+03  0.59425187412E+03  0.00000000000E+00 0.  1.
          3    1    3    3  501    0  0.42761187636E+01 -0.24079421039E+01 -0.60863266520E+02  0.61060794200E+02  0.00000000000E+00 0.  1.
         -1    1    1    2    0  502 -0.35068581890E+02  0.27509012410E+02 -0.34401314839E+03  0.34688845104E+03  0.00000000000E+00 0. -1.
<mgrwt>
<rscale>  1 0.30000000E+03</rscale>
<asrwt>0</asrwt>
<pdfrwt beam="1">  1       21 0.80040873E-02 0.30000000E+03</pdfrwt>
<pdfrwt beam="2">0</pdfrwt>
<totfact> 0.12762414E+04</totfact>
</mgrwt>
</event>
<event>
 6    1  0.1274196E-001  0.3000000E+03  0.7818608E-02  0.1093470E+00
         21   -1    0    0  501  502  0.00000000000E+00  0.00000000000E+00  0.22346748765E+01  0.22346748765E+01  0.00000000000E+00 0. -1.
         13   -1    0    0    0    0 -0.00000000000E+00 -0.00000000000E+00 -0.10000000000E+04  0.10000000000E+04  0.00000000000E+00 0.  1.
    9000005    2    1    2  501    0 -0.19060900068E+02 -0.32617973941E+02 -0.79965577163E+03  0.80055511389E+03  0.34477724188E+01 0.  0.
         13    1    3    3    0    0 -0.70266028060E+01 -0.15091557807E+02 -0.33584353542E+03  0.33625586767E+03  0.00000000000E+00 0.  1.
          3    1    3    3  501    0 -0.12034297262E+02 -0.17526416134E+02 -0.46381223621E+03  0.46429924621E+03  0.00000000000E+00 0.  1.
         -1    1    1    2    0  502  0.19060900068E+02  0.32617973941E+02 -0.19810955350E+03  0.20167956099E+03  0.00000000000E+00 0. -1.
<mgrwt>
<rscale>  1 0.30000000E+03</rscale>
<asrwt>0</asrwt>
<pdfrwt beam="1">  1       21 0.81261076E-02 0.30000000E+03</pdfrwt>
<pdfrwt beam="2">0</pdfrwt>
<totfact> 0.12427567E+04</totfact>
</mgrwt>
</event>
<event>
 6    1  0.1274196E-001  0.3000000E+03  0.7818608E-02  0.1093470E+00
         21   -1    0    0  501  502  0.00000000000E+00  0.00000000000E+00  0.21286438173E+01  0.21286438173E+01  0.00000000000E+00 0. -1.
         13   -1    0    0    0    0 -0.00000000000E+00 -0.00000000000E+00 -0.10000000000E+04  0.10000000000E+04  0.00000000000E+00 0.  1.
    9000005    2    1    2  501    0 -0.38228907331E+02 -0.10123495589E+02 -0.75620857990E+03  0.75725146653E+03  0.37990418429E+01 0.  0.
         13    1    3    3    0    0 -0.12268893534E+02 -0.48747769769E+01 -0.23550949550E+03  0.23587923111E+03  0.00000000000E+00 0.  1.
          1    1    3    3  501    0 -0.25960013797E+02 -0.52487186125E+01 -0.52069908441E+03  0.52137223542E+03  0.00000000000E+00 0.  1.
         -1    1    1    2    0  502  0.38228907331E+02  0.10123495589E+02 -0.24166277628E+03  0.24487717729E+03  0.00000000000E+00 0. -1.
<mgrwt>
<rscale>  1 0.30000000E+03</rscale>
<asrwt>0</asrwt>
<pdfrwt beam="1">  1       21 0.77405393E-02 0.30000000E+03</pdfrwt>
<pdfrwt beam="2">0</pdfrwt>
<totfact> 0.13534752E+04</totfact>
</mgrwt>
</event>
<event>
 6    1  0.1274196E-001  0.3000000E+03  0.7818608E-02  0.1093470E+00
         21   -1    0    0  501  502  0.00000000000E+00  0.00000000000E+00  0.92565665543E+00  0.92565665543E+00  0.00000000000E+00 0. -1.
         13   -1    0    0    0    0 -0.00000000000E+00 -0.00000000000E+00 -0.10000000000E+04  0.10000000000E+04  0.00000000000E+00 0.  1.
    9000005    2    1    2  501    0 -0.12780127012E+01 -0.30235274811E+02 -0.53234470998E+03  0.53321596484E+03  0.35453850393E+01 0.  0.
         13    1    3    3    0    0  0.11343270696E+01 -0.54613354864E+01 -0.98278150981E+02  0.98436313642E+02  0.00000000000E+00 0.  1.
          3    1    3    3  501    0 -0.24123397708E+01 -0.24773939324E+02 -0.43406655900E+03  0.43477965120E+03  0.00000000000E+00 0.  1.
         -1    1    1    2    0  502  0.12780127012E+01  0.30235274811E+02 -0.46672963336E+03  0.46770969182E+03  0.00000000000E+00 0. -1.
<mgrwt>
<rscale>  1 0.30000000E+03</rscale>
<asrwt>0</asrwt>
<pdfrwt beam="1">  1       21 0.33660313E-02 0.30000000E+03</pdfrwt>
<pdfrwt beam="2">0</pdfrwt>
<totfact> 0.56165292E+04</totfact>
</mgrwt>
</event>
<event>
 6    1  0.1274196E-001  0.3000000E+03  0.7818608E-02  0.1093470E+00
         21   -1    0    0  501  502  0.00000000000E+00  0.00000000000E+00  0.13192221207E+01  0.13192221207E+01  0.00000000000E+00 0. -1.
         13   -1    0    0    0    0 -0.00000000000E+00 -0.00000000000E+00 -0.10000000000E+04  0.10000000000E+04  0.00000000000E+00 0.  1.
    9000005    2    1    2  501    0 -0.32578668755E+02  0.81706670212E+01 -0.68759168766E+03  0.68842219192E+03  0.38283058698E+01 0.  0.
         13    1    3    3    0    0 -0.24729429751E+02  0.77447732632E+01 -0.53958805898E+03  0.54020995881E+03  0.00000000000E+00 0.  1.
          1    1    3    3  501    0 -0.78492390039E+01  0.42589375805E+00 -0.14800362868E+03  0.14821223310E+03  0.00000000000E+00 0.  1.
         -3    1    1    2    0  502  0.32578668755E+02 -0.81706670212E+01 -0.31108909022E+03  0.31289703020E+03  0.00000000000E+00 0. -1.
<mgrwt>
<rscale>  1 0.30000000E+03</rscale>
<asrwt>0</asrwt>
<pdfrwt beam="1">  1       21 0.47971815E-02 0.30000000E+03</pdfrwt>
<pdfrwt beam="2">0</pdfrwt>
<totfact> 0.30909419E+04</totfact>
</mgrwt>
</event>
<event>
 6    1  0.1274196E-001  0.3000000E+03  0.7818608E-02  0.1093470E+00
         21   -1    0    0  501  502  0.00000000000E+00  0.00000000000E+00  0.24340086302E+01  0.24340086302E+01  0.00000000000E+00 0. -1.
         13   -1    0    0    0    0 -0.00000000000E+00 -0.00000000000E+00 -0.10000000000E+04  0.10000000000E+04  0.00000000000E+00 0.  1.
    9000005    2    1    2  501    0  0.18400653663E+02  0.45262654996E+02 -0.55016127530E+03  0.55236926667E+03  0.68619189319E+01 0.  0.
         13    1    3    3    0    0  0.52156192769E+01  0.74722346013E+01 -0.83964608052E+02  0.84457636598E+02  0.00000000000E+00 0.  1.
          3    1    3    3  501    0  0.13185034387E+02  0.37790420395E+02 -0.46619666725E+03  0.46791163007E+03  0.00000000000E+00 0.  1.
         -1    1    1    2    0  502 -0.18400653663E+02 -0.45262654996E+02 -0.44740471607E+03  0.45006474196E+03  0.00000000000E+00 0. -1.
<mgrwt>
<rscale>  1 0.30000000E+03</rscale>
<asrwt>0</asrwt>
<pdfrwt beam="1">  1       21 0.88509591E-02 0.30000000E+03</pdfrwt>
<pdfrwt beam="2">0</pdfrwt>
<totfact> 0.10689471E+04</totfact>
</mgrwt>
</event>
<event>
 6    1  0.1274196E-001  0.3000000E+03  0.7818608E-02  0.1093470E+00
         21   -1    0    0  501  502  0.00000000000E+00  0.00000000000E+00  0.15711347205E+01  0.15711347205E+01  0.00000000000E+00 0. -1.
         13   -1    0    0    0    0 -0.00000000000E+00 -0.00000000000E+00 -0.10000000000E+04  0.10000000000E+04  0.00000000000E+00 0.  1.
    9000005    2    1    2  501    0 -0.30269488848E+02  0.13797814848E+02 -0.77068117192E+03  0.77140677284E+03  0.35098120232E+01 0.  0.
         13    1    3    3    0    0 -0.65478302938E+00 -0.41247722695E-01 -0.86717318634E+01  0.86965151469E+01  0.00000000000E+00 0.  1.
          1    1    3    3  501    0 -0.29614705819E+02  0.13839062571E+02 -0.76200944006E+03  0.76271025769E+03  0.00000000000E+00 0.  1.
         -3    1    1    2    0  502  0.30269488848E+02 -0.13797814848E+02 -0.22774769336E+03  0.23016436188E+03  0.00000000000E+00 0. -1.
<mgrwt>
<rscale>  1 0.30000000E+03</rscale>
<asrwt>0</asrwt>
<pdfrwt beam="1">  1       21 0.57132292E-02 0.30000000E+03</pdfrwt>
<pdfrwt beam="2">0</pdfrwt>
<totfact> 0.22926677E+04</totfact>
</mgrwt>
</event>
<event>
 6    1  0.1274196E-001  0.3000000E+03  0.7818608E-02  0.1093470E+00
         21   -1    0    0  501  502  0.00000000000E+00  0.00000000000E+00  0.11397543052E+01  0.11397543052E+01  0.00000000000E+00 0. -1.
         13   -1    0    0    0    0 -0.00000000000E+00 -0.00000000000E+00 -0.10000000000E+04  0.10000000000E+04  0.00000000000E+00 0.  1.
    9000005    2    1    2  501    0 -0.29052842759E+02  0.94391214269E+01 -0.71116911162E+03  0.71183134912E+03  0.30330811891E+01 0.  0.
         13    1    3    3    0    0 -0.20637010512E+02  0.76245311025E+01 -0.53452279090E+03  0.53497535800E+03  0.00000000000E+00 0.  1.
          3    1    3    3  501    0 -0.84158322474E+01  0.18145903245E+01 -0.17664632073E+03  0.17685599112E+03  0.00000000000E+00 0.  1.
         -3    1    1    2    0  502  0.29052842759E+02 -0.94391214269E+01 -0.28769113407E+03  0.28930840518E+03  0.00000000000E+00 0. -1.
<mgrwt>
<rscale>  1 0.30000000E+03</rscale>
<asrwt>0</asrwt>
<pdfrwt beam="1">  1       21 0.41445698E-02 0.30000000E+03</pdfrwt>
<pdfrwt beam="2">0</pdfrwt>
<totfact> 0.39604725E+04</totfact>
</mgrwt>
</event>
<event>
 6    1  0.1274196E-001  0.3000000E+03  0.7818608E-02  0.1093470E+00
         21   -1    0    0  501  502  0.00000000000E+00  0.00000000000E+00  0.66715455533E+01  0.66715455533E+01  0.00000000000E+00 0. -1.
         13   -1    0    0    0    0 -0.00000000000E+00 -0.00000000000E+00 -0.10000000000E+04  0.10000000000E+04  0.00000000000E+00 0.  1.
    9000005    2    1    2  501    0  0.53445588419E+02 -0.25594568987E+02 -0.84297938647E+03  0.84506599143E+03  0.32819155284E+01 0.  0.
         13    1    3    3    0    0  0.53352701106E+01 -0.32509076886E+01 -0.10068048807E+03  0.10087415024E+03  0.00000000000E+00 0.  1.
          3    1    3    3  501    0  0.48110318309E+02 -0.22343661298E+02 -0.74229889840E+03  0.74419184119E+03  0.00000000000E+00 0.  1.
         -1    1    1    2    0  502 -0.53445588419E+02  0.25594568987E+02 -0.15034906798E+03  0.16160555413E+03  0.00000000000E+00 0. -1.
<mgrwt>
<rscale>  1 0.30000000E+03</rscale>
<asrwt>0</asrwt>
<pdfrwt beam="1">  1       21 0.24260217E-01 0.30000000E+03</pdfrwt>
<pdfrwt beam="2">0</pdfrwt>
<totfact> 0.16538167E+03</totfact>
</mgrwt>
</event>
<event>
 6    1  0.1274196E-001  0.3000000E+03  0.7818608E-02  0.1093470E+00
         21   -1    0    0  501  502  0.00000000000E+00  0.00000000000E+00  0.30061298814E+01  0.30061298814E+01  0.00000000000E+00 0. -1.
         13   -1    0    0    0    0 -0.00000000000E+00 -0.00000000000E+00 -0.10000000000E+04  0.10000000000E+04  0.00000000000E+00 0.  1.
    9000005    2    1    2  501    0  0.38557266348E+02 -0.30045460300E+02 -0.72494049765E+03  0.72659623508E+03  0.37378102619E+01 0.  0.
         13    1    3    3    0    0  0.18681488752E+02 -0.12986070093E+02 -0.35770725814E+03  0.35843007486E+03  0.00000000000E+00 0.  1.
          1    1    3    3  501    0  0.19875777596E+02 -0.17059390208E+02 -0.36723323952E+03  0.36816616022E+03  0.00000000000E+00 0.  1.
         -1    1    1    2    0  502 -0.38557266348E+02  0.30045460300E+02 -0.27205337247E+03  0.27640989480E+03  0.00000000000E+00 0. -1.
<mgrwt>
<rscale>  1 0.30000000E+03</rscale>
<asrwt>0</asrwt>
<pdfrwt beam="1">  1       21 0.10931404E-01 0.30000000E+03</pdfrwt>
<pdfrwt beam="2">0</pdfrwt>
<totfact> 0.73340793E+03</totfact>
</mgrwt>
</event>
<event>
 6    1  0.1274196E-001  0.3000000E+03  0.7818608E-02  0.1093470E+00
         21   -1    0    0  501  502  0.00000000000E+00  0.00000000000E+00  0.16915200899E+01  0.16915200899E+01  0.00000000000E+00 0. -1.
         13   -1    0    0    0    0 -0.00000000000E+00 -0.00000000000E+00 -0.10000000000E+04  0.10000000000E+04  0.00000000000E+00 0.  1.
    9000005    2    1    2  501    0 -0.17831954799E+02 -0.34393891750E+02 -0.66536678937E+03  0.66650338232E+03  0.35882929344E+01 0.  0.
         13    1    3    3    0    0 -0.66931630140E+01 -0.16556401027E+02 -0.29501890931E+03  0.29555891070E+03  0.00000000000E+00 0.  1.
          1    1    3    3  501    0 -0.11138791785E+02 -0.17837490724E+02 -0.37034788006E+03  0.37094447162E+03  0.00000000000E+00 0.  1.
         -3    1    1    2    0  502  0.17831954799E+02  0.34393891750E+02 -0.33294169054E+03  0.33518813777E+03  0.00000000000E+00 0. -1.
<mgrwt>
<rscale>  1 0.30000000E+03</rscale>
<asrwt>0</asrwt>
<pdfrwt beam="1">  1       21 0.61509951E-02 0.30000000E+03</pdfrwt>
<pdfrwt beam="2">0</pdfrwt>
<totfact> 0.20187070E+04</totfact>
</mgrwt>
</event>
<event>
 6    1  0.1274196E-001  0.3000000E+03  0.7818608E-02  0.1093470E+00
         21   -1    0    0  501  502  0.00000000000E+00  0.00000000000E+00  0.11194302523E+01  0.11194302523E+01  0.00000000000E+00 0. -1.
         13   -1    0    0    0    0 -0.00000000000E+00 -0.00000000000E+00 -0.10000000000E+04  0.10000000000E+04  0.00000000000E+00 0.  1.
    9000005    2    1    2  501    0 -0.15127804234E+02 -0.28905024513E+02 -0.60517611926E+03  0.60606557919E+03  0.36055591642E+01 0.  0.
         13    1    3    3    0    0 -0.24213592432E+01 -0.47698416799E+01 -0.76933557103E+02  0.77119300949E+02  0.00000000000E+00 0.  1.
          3    1    3    3  501    0 -0.12706444991E+02 -0.24135182833E+02 -0.52824256215E+03  0.52894627824E+03  0.00000000000E+00 0.  1.
         -1    1    1    2    0  502  0.15127804234E+02  0.28905024513E+02 -0.39370445049E+03  0.39505385106E+03  0.00000000000E+00 0. -1.
<mgrwt>
<rscale>  1 0.30000000E+03</rscale>
<asrwt>0</asrwt>
<pdfrwt beam="1">  1       21 0.40706640E-02 0.30000000E+03</pdfrwt>
<pdfrwt beam="2">0</pdfrwt>
<totfact> 0.40824892E+04</totfact>
</mgrwt>
</event>
<event>
 6    1  0.1274196E-001  0.3000000E+03  0.7818608E-02  0.1093470E+00
         21   -1    0    0  501  502  0.00000000000E+00  0.00000000000E+00  0.10838468614E+01  0.10838468614E+01  0.00000000000E+00 0. -1.
         13   -1    0    0    0    0 -0.00000000000E+00 -0.00000000000E+00 -0.10000000000E+04  0.10000000000E+04  0.00000000000E+00 0.  1.
    9000005    2    1    2  501    0 -0.18233822532E+02  0.24587944056E+02 -0.68134463867E+03  0.68204042337E+03  0.34034066613E+01 0.  0.
         13    1    3    3    0    0 -0.13416453494E+02  0.15402547314E+02 -0.44896203821E+03  0.44942646945E+03  0.00000000000E+00 0.  1.
          3    1    3    3  501    0 -0.48173690381E+01  0.91853967425E+01 -0.23238260047E+03  0.23261395392E+03  0.00000000000E+00 0.  1.
         -1    1    1    2    0  502  0.18233822532E+02 -0.24587944056E+02 -0.31757151446E+03  0.31904342350E+03  0.00000000000E+00 0. -1.
<mgrwt>
<rscale>  1 0.30000000E+03</rscale>
<asrwt>0</asrwt>
<pdfrwt beam="1">  1       21 0.39412696E-02 0.30000000E+03</pdfrwt>
<pdfrwt beam="2">0</pdfrwt>
<totfact> 0.43107453E+04</totfact>
</mgrwt>
</event>
<event>
 6    1  0.1274196E-001  0.3000000E+03  0.7818608E-02  0.1093470E+00
         21   -1    0    0  501  502  0.00000000000E+00  0.00000000000E+00  0.38005744606E+01  0.38005744606E+01  0.00000000000E+00 0. -1.
         13   -1    0    0    0    0 -0.00000000000E+00 -0.00000000000E+00 -0.10000000000E+04  0.10000000000E+04  0.00000000000E+00 0.  1.
    9000005    2    1    2  501    0 -0.31679352918E+02  0.24489205019E+02 -0.87962343049E+03  0.88053961070E+03  0.30535213912E+01 0.  0.
         13    1    3    3    0    0 -0.11566278523E+02  0.91519226067E+01 -0.29256146759E+03  0.29293301078E+03  0.00000000000E+00 0.  1.
          3    1    3    3  501    0 -0.20113074395E+02  0.15337282413E+02 -0.58706196290E+03  0.58760659993E+03  0.00000000000E+00 0.  1.
         -3    1    1    2    0  502  0.31679352918E+02 -0.24489205019E+02 -0.11657599505E+03  0.12326096376E+03  0.00000000000E+00 0. -1.
<mgrwt>
<rscale>  1 0.30000000E+03</rscale>
<asrwt>0</asrwt>
<pdfrwt beam="1">  1       21 0.13820300E-01 0.30000000E+03</pdfrwt>
<pdfrwt beam="2">0</pdfrwt>
<totfact> 0.47889436E+03</totfact>
</mgrwt>
</event>
<event>
 6    1  0.1274196E-001  0.3000000E+03  0.7818608E-02  0.1093470E+00
         21   -1    0    0  501  502  0.00000000000E+00  0.00000000000E+00  0.28844218222E+01  0.28844218222E+01  0.00000000000E+00 0. -1.
         13   -1    0    0    0    0 -0.00000000000E+00 -0.00000000000E+00 -0.10000000000E+04  0.10000000000E+04  0.00000000000E+00 0.  1.
    9000005    2    1    2  501    0  0.40010586050E+02  0.14938627381E+02 -0.80224242646E+03  0.80338616407E+03  0.35225316687E+01 0.  0.
         13    1    3    3    0    0  0.32495792350E+02  0.13348684403E+02 -0.67140065285E+03  0.67231912106E+03  0.00000000000E+00 0.  1.
          3    1    3    3  501    0  0.75147937006E+01  0.15899429783E+01 -0.13084177360E+03  0.13106704301E+03  0.00000000000E+00 0.  1.
         -3    1    1    2    0  502 -0.40010586050E+02 -0.14938627381E+02 -0.19487315172E+03  0.19949825775E+03  0.00000000000E+00 0. -1.
<mgrwt>
<rscale>  1 0.30000000E+03</rscale>
<asrwt>0</asrwt>
<pdfrwt beam="1">  1       21 0.10488829E-01 0.30000000E+03</pdfrwt>
<pdfrwt beam="2">0</pdfrwt>
<totfact> 0.78989263E+03</totfact>
</mgrwt>
</event>
<event>
 6    1  0.1274196E-001  0.3000000E+03  0.7818608E-02  0.1093470E+00
         21   -1    0    0  501  502  0.00000000000E+00  0.00000000000E+00  0.17977840968E+01  0.17977840968E+01  0.00000000000E+00 0. -1.
         13   -1    0    0    0    0 -0.00000000000E+00 -0.00000000000E+00 -0.10000000000E+04  0.10000000000E+04  0.00000000000E+00 0.  1.
    9000005    2    1    2  501    0 -0.13472709872E+02 -0.37394730042E+02 -0.66863204256E+03  0.66983938474E+03  0.60094312893E+01 0.  0.
         13    1    3    3    0    0  0.54434658526E+00 -0.65648463142E+00 -0.11155479809E+02  0.11188029989E+02  0.00000000000E+00 0.  1.
          1    1    3    3  501    0 -0.14017056457E+02 -0.36738245410E+02 -0.65747656275E+03  0.65865135475E+03  0.00000000000E+00 0.  1.
         -1    1    1    2    0  502  0.13472709872E+02  0.37394730042E+02 -0.32957017334E+03  0.33195839936E+03  0.00000000000E+00 0. -1.
<mgrwt>
<rscale>  1 0.30000000E+03</rscale>
<asrwt>0</asrwt>
<pdfrwt beam="1">  1       21 0.65374105E-02 0.30000000E+03</pdfrwt>
<pdfrwt beam="2">0</pdfrwt>
<totfact> 0.18168584E+04</totfact>
</mgrwt>
</event>
<event>
 6    1  0.1274196E-001  0.3000000E+03  0.7818608E-02  0.1093470E+00
         21   -1    0    0  501  502  0.00000000000E+00  0.00000000000E+00  0.10250115225E+01  0.10250115225E+01  0.00000000000E+00 0. -1.
         13   -1    0    0    0    0 -0.00000000000E+00 -0.00000000000E+00 -0.10000000000E+04  0.10000000000E+04  0.00000000000E+00 0.  1.
    9000005    2    1    2  501    0 -0.23998465748E+02  0.18893988162E+02 -0.60550519031E+03  0.60637150372E+03  0.10814614663E+02 0.  0.
         13    1    3    3    0    0 -0.27226992474E+01 -0.12634779394E+01 -0.70947374654E+02  0.71010840285E+02  0.00000000000E+00 0.  1.
          3    1    3    3  501    0 -0.21275766500E+02  0.20157466102E+02 -0.53455781566E+03  0.53536066344E+03  0.00000000000E+00 0.  1.
         -3    1    1    2    0  502  0.23998465748E+02 -0.18893988162E+02 -0.39346979817E+03  0.39465350780E+03  0.00000000000E+00 0. -1.
<mgrwt>
<rscale>  1 0.30000000E+03</rscale>
<asrwt>0</asrwt>
<pdfrwt beam="1">  1       21 0.37273225E-02 0.30000000E+03</pdfrwt>
<pdfrwt beam="2">0</pdfrwt>
<totfact> 0.47347049E+04</totfact>
</mgrwt>
</event>
<event>
 6    1  0.1274196E-001  0.3000000E+03  0.7818608E-02  0.1093470E+00
         21   -1    0    0  501  502  0.00000000000E+00  0.00000000000E+00  0.24570995004E+01  0.24570995004E+01  0.00000000000E+00 0. -1.
         13   -1    0    0    0    0 -0.00000000000E+00 -0.00000000000E+00 -0.10000000000E+04  0.10000000000E+04  0.00000000000E+00 0.  1.
    9000005    2    1    2  501    0 -0.33075739612E+02 -0.12905810693E+02 -0.84834119691E+03  0.84908919916E+03  0.30194795675E+01 0.  0.
         13    1    3    3    0    0 -0.12816886270E+01  0.84972429309E-01 -0.28775659492E+02  0.28804314351E+02  0.00000000000E+00 0.  1.
          3    1    3    3  501    0 -0.31794050985E+02 -0.12990783122E+02 -0.81956553741E+03  0.82028488481E+03  0.00000000000E+00 0.  1.
         -3    1    1    2    0  502  0.33075739612E+02  0.12905810693E+02 -0.14920170359E+03  0.15336790034E+03  0.00000000000E+00 0. -1.
<mgrwt>
<rscale>  1 0.30000000E+03</rscale>
<asrwt>0</asrwt>
<pdfrwt beam="1">  1       21 0.89349261E-02 0.30000000E+03</pdfrwt>
<pdfrwt beam="2">0</pdfrwt>
<totfact> 0.10512331E+04</totfact>
</mgrwt>
</event>
<event>
 6    1  0.1274196E-001  0.3000000E+03  0.7818608E-02  0.1093470E+00
         21   -1    0    0  501  502  0.00000000000E+00  0.00000000000E+00  0.15473944582E+01  0.15473944582E+01  0.00000000000E+00 0. -1.
         13   -1    0    0    0    0 -0.00000000000E+00 -0.00000000000E+00 -0.10000000000E+04  0.10000000000E+04  0.00000000000E+00 0.  1.
    9000005    2    1    2  501    0  0.21038716961E+02  0.31866320404E+02 -0.61663455826E+03  0.61782469352E+03  0.33291877965E+01 0.  0.
         13    1    3    3    0    0  0.30780341159E+01  0.57309617122E+01 -0.12398715535E+03  0.12415769371E+03  0.00000000000E+00 0.  1.
          1    1    3    3  501    0  0.17960682845E+02  0.26135358692E+02 -0.49264740292E+03  0.49366699981E+03  0.00000000000E+00 0.  1.
         -1    1    1    2    0  502 -0.21038716961E+02 -0.31866320404E+02 -0.38181804728E+03  0.38372270094E+03  0.00000000000E+00 0. -1.
<mgrwt>
<rscale>  1 0.30000000E+03</rscale>
<asrwt>0</asrwt>
<pdfrwt beam="1">  1       21 0.56269008E-02 0.30000000E+03</pdfrwt>
<pdfrwt beam="2">0</pdfrwt>
<totfact> 0.23534572E+04</totfact>
</mgrwt>
</event>
<event>
 6    1  0.1274196E-001  0.3000000E+03  0.7818608E-02  0.1093470E+00
         21   -1    0    0  501  502  0.00000000000E+00  0.00000000000E+00  0.16992985951E+01  0.16992985951E+01  0.00000000000E+00 0. -1.
         13   -1    0    0    0    0 -0.00000000000E+00 -0.00000000000E+00 -0.10000000000E+04  0.10000000000E+04  0.00000000000E+00 0.  1.
    9000005    2    1    2  501    0  0.86004366579E+01 -0.32224996540E+02 -0.79296508052E+03  0.79367253321E+03  0.31706677548E+01 0.  0.
         13    1    3    3    0    0  0.58044571481E+01 -0.23874080501E+02 -0.61279911178E+03  0.61329145994E+03  0.00000000000E+00 0.  1.
          1    1    3    3  501    0  0.27959795098E+01 -0.83509160390E+01 -0.18016596874E+03  0.18038107326E+03  0.00000000000E+00 0.  1.
         -3    1    1    2    0  502 -0.86004366579E+01  0.32224996540E+02 -0.20533562089E+03  0.20802676539E+03  0.00000000000E+00 0. -1.
<mgrwt>
<rscale>  1 0.30000000E+03</rscale>
<asrwt>0</asrwt>
<pdfrwt beam="1">  1       21 0.61792806E-02 0.30000000E+03</pdfrwt>
<pdfrwt beam="2">0</pdfrwt>
<totfact> 0.20027784E+04</totfact>
</mgrwt>
</event>
<event>
 6    1  0.1274196E-001  0.3000000E+03  0.7818608E-02  0.1093470E+00
         21   -1    0    0  501  502  0.00000000000E+00  0.00000000000E+00  0.93627092192E+00  0.93627092192E+00  0.00000000000E+00 0. -1.
         13   -1    0    0    0    0 -0.00000000000E+00 -0.00000000000E+00 -0.10000000000E+04  0.10000000000E+04  0.00000000000E+00 0.  1.
    9000005    2    1    2  501    0  0.30456010925E+02 -0.91793420055E+00 -0.51801616032E+03  0.51892467914E+03  0.36971695373E+01 0.  0.
         13    1    3    3    0    0  0.91501450449E+01  0.11560934392E+01 -0.14105500128E+03  0.14135619934E+03  0.00000000000E+00 0.  1.
          1    1    3    3  501    0  0.21305865880E+02 -0.20740276398E+01 -0.37696115904E+03  0.37756847980E+03  0.00000000000E+00 0.  1.
         -1    1    1    2    0  502 -0.30456010925E+02  0.91793420055E+00 -0.48104756876E+03  0.48201159178E+03  0.00000000000E+00 0. -1.
<mgrwt>
<rscale>  1 0.30000000E+03</rscale>
<asrwt>0</asrwt>
<pdfrwt beam="1">  1       21 0.34046287E-02 0.30000000E+03</pdfrwt>
<pdfrwt beam="2">0</pdfrwt>
<totfact> 0.55105591E+04</totfact>
</mgrwt>
</event>
<event>
 6    1  0.1274196E-001  0.3000000E+03  0.7818608E-02  0.1093470E+00
         21   -1    0    0  501  502  0.00000000000E+00  0.00000000000E+00  0.11492450711E+01  0.11492450711E+01  0.00000000000E+00 0. -1.
         13   -1    0    0    0    0 -0.00000000000E+00 -0.00000000000E+00 -0.10000000000E+04  0.10000000000E+04  0.00000000000E+00 0.  1.
    9000005    2    1    2  501    0 -0.11487817756E+02  0.31612582724E+02 -0.55133698972E+03  0.55237324817E+03  0.35218911165E+01 0.  0.
         13    1    3    3    0    0 -0.83315276797E+01  0.24058219253E+02 -0.39184287550E+03  0.39266913724E+03  0.00000000000E+00 0.  1.
          3    1    3    3  501    0 -0.31562900760E+01  0.75543634706E+01 -0.15949411422E+03  0.15970411092E+03  0.00000000000E+00 0.  1.
         -3    1    1    2    0  502  0.11487817756E+02 -0.31612582724E+02 -0.44751376521E+03  0.44877599691E+03  0.00000000000E+00 0. -1.
<mgrwt>
<rscale>  1 0.30000000E+03</rscale>
<asrwt>0</asrwt>
<pdfrwt beam="1">  1       21 0.41790818E-02 0.30000000E+03</pdfrwt>
<pdfrwt beam="2">0</pdfrwt>
<totfact> 0.39054303E+04</totfact>
</mgrwt>
</event>
<event>
 6    1  0.1274196E-001  0.3000000E+03  0.7818608E-02  0.1093470E+00
         21   -1    0    0  501  502  0.00000000000E+00  0.00000000000E+00  0.91256914841E+00  0.91256914841E+00  0.00000000000E+00 0. -1.
         13   -1    0    0    0    0 -0.00000000000E+00 -0.00000000000E+00 -0.10000000000E+04  0.10000000000E+04  0.00000000000E+00 0.  1.
    9000005    2    1    2  501    0 -0.16662667832E+01  0.30072693161E+02 -0.50198448319E+03  0.50289802730E+03  0.32956303590E+01 0.  0.
         13    1    3    3    0    0 -0.23226421778E+00  0.25610963413E+02 -0.42397491825E+03  0.42474781541E+03  0.00000000000E+00 0.  1.
          3    1    3    3  501    0 -0.14340025654E+01  0.44617297473E+01 -0.78009564939E+02  0.78150211885E+02  0.00000000000E+00 0.  1.
         -1    1    1    2    0  502  0.16662667832E+01 -0.30072693161E+02 -0.49710294766E+03  0.49801454185E+03  0.00000000000E+00 0. -1.
<mgrwt>
<rscale>  1 0.30000000E+03</rscale>
<asrwt>0</asrwt>
<pdfrwt beam="1">  1       21 0.33184403E-02 0.30000000E+03</pdfrwt>
<pdfrwt beam="2">0</pdfrwt>
<totfact> 0.57516329E+04</totfact>
</mgrwt>
</event>
<event>
 6    1  0.1274196E-001  0.3000000E+03  0.7818608E-02  0.1093470E+00
         21   -1    0    0  501  502  0.00000000000E+00  0.00000000000E+00  0.15850463532E+01  0.15850463532E+01  0.00000000000E+00 0. -1.
         13   -1    0    0    0    0 -0.00000000000E+00 -0.00000000000E+00 -0.10000000000E+04  0.10000000000E+04  0.00000000000E+00 0.  1.
    9000005    2    1    2  501    0  0.76578574153E+01  0.30706415809E+02 -0.80240057261E+03  0.80303237243E+03  0.35756790375E+01 0.  0.
         13    1    3    3    0    0  0.61126396850E+01  0.20544735191E+02 -0.50655588469E+03  0.50700918613E+03  0.00000000000E+00 0.  1.
          1    1    3    3  501    0  0.15452177304E+01  0.10161680618E+02 -0.29584468793E+03  0.29602318630E+03  0.00000000000E+00 0.  1.
         -3    1    1    2    0  502 -0.76578574153E+01 -0.30706415809E+02 -0.19601438103E+03  0.19855267393E+03  0.00000000000E+00 0. -1.
<mgrwt>
<rscale>  1 0.30000000E+03</rscale>
<asrwt>0</asrwt>
<pdfrwt beam="1">  1       21 0.57638171E-02 0.30000000E+03</pdfrwt>
<pdfrwt beam="2">0</pdfrwt>
<totfact> 0.22581564E+04</totfact>
</mgrwt>
</event>
<event>
 6    1  0.1274196E-001  0.3000000E+03  0.7818608E-02  0.1093470E+00
         21   -1    0    0  501  502  0.00000000000E+00  0.00000000000E+00  0.41003836073E+01  0.41003836073E+01  0.00000000000E+00 0. -1.
         13   -1    0    0    0    0 -0.00000000000E+00 -0.00000000000E+00 -0.10000000000E+04  0.10000000000E+04  0.00000000000E+00 0.  1.
    9000005    2    1    2  501    0 -0.62268784002E+02  0.14472897228E+02 -0.48311744316E+03  0.48734858303E+03  0.43944601700E+01 0.  0.
         13    1    3    3    0    0 -0.39049562594E+02  0.69070028930E+01 -0.30126395687E+03  0.30386271035E+03  0.00000000000E+00 0.  1.
          1    1    3    3  501    0 -0.23219221408E+02  0.75658943350E+01 -0.18185348629E+03  0.18348587269E+03  0.00000000000E+00 0.  1.
         -3    1    1    2    0  502  0.62268784002E+02 -0.14472897228E+02 -0.51278217323E+03  0.51675180057E+03  0.00000000000E+00 0. -1.
<mgrwt>
<rscale>  1 0.30000000E+03</rscale>
<asrwt>0</asrwt>
<pdfrwt beam="1">  1       21 0.14910517E-01 0.30000000E+03</pdfrwt>
<pdfrwt beam="2">0</pdfrwt>
<totfact> 0.41638786E+03</totfact>
</mgrwt>
</event>
<event>
 6    1  0.1274196E-001  0.3000000E+03  0.7818608E-02  0.1093470E+00
         21   -1    0    0  501  502  0.00000000000E+00  0.00000000000E+00  0.24085065205E+01  0.24085065205E+01  0.00000000000E+00 0. -1.
         13   -1    0    0    0    0 -0.00000000000E+00 -0.00000000000E+00 -0.10000000000E+04  0.10000000000E+04  0.00000000000E+00 0.  1.
    9000005    2    1    2  501    0 -0.25501572327E+02  0.17725761539E+02 -0.11218475875E+03  0.11645725576E+03  0.35127639969E+01 0.  0.
         13    1    3    3    0    0 -0.14235008915E+02  0.84769906023E+01 -0.54770573227E+02  0.57221591555E+02  0.00000000000E+00 0.  1.
          1    1    3    3  501    0 -0.11266563412E+02  0.92487709369E+01 -0.57414185520E+02  0.59235664206E+02  0.00000000000E+00 0.  1.
         -1    1    1    2    0  502  0.25501572327E+02 -0.17725761539E+02 -0.88540673473E+03  0.88595125076E+03  0.00000000000E+00 0. -1.
<mgrwt>
<rscale>  1 0.30000000E+03</rscale>
<asrwt>0</asrwt>
<pdfrwt beam="1">  1       21 0.87582240E-02 0.30000000E+03</pdfrwt>
<pdfrwt beam="2">0</pdfrwt>
<totfact> 0.10890422E+04</totfact>
</mgrwt>
</event>
<event>
 6    1  0.1274196E-001  0.3000000E+03  0.7818608E-02  0.1093470E+00
         21   -1    0    0  501  502  0.00000000000E+00  0.00000000000E+00  0.10701925905E+01  0.10701925905E+01  0.00000000000E+00 0. -1.
         13   -1    0    0    0    0 -0.00000000000E+00 -0.00000000000E+00 -0.10000000000E+04  0.10000000000E+04  0.00000000000E+00 0.  1.
    9000005    2    1    2  501    0 -0.14206852400E+01 -0.30359076679E+02 -0.68203344996E+03  0.68271976736E+03  0.36002761680E+01 0.  0.
         13    1    3    3    0    0 -0.13254338545E+01 -0.14645271275E+02 -0.29232748772E+03  0.29269711447E+03  0.00000000000E+00 0.  1.
          3    1    3    3  501    0 -0.95251385470E-01 -0.15713805403E+02 -0.38970596224E+03  0.39002265288E+03  0.00000000000E+00 0.  1.
         -1    1    1    2    0  502  0.14206852400E+01  0.30359076679E+02 -0.31689635745E+03  0.31835042524E+03  0.00000000000E+00 0. -1.
<mgrwt>
<rscale>  1 0.30000000E+03</rscale>
<asrwt>0</asrwt>
<pdfrwt beam="1">  1       21 0.38916176E-02 0.30000000E+03</pdfrwt>
<pdfrwt beam="2">0</pdfrwt>
<totfact> 0.44036743E+04</totfact>
</mgrwt>
</event>
<event>
 6    1  0.1274196E-001  0.3000000E+03  0.7818608E-02  0.1093470E+00
         21   -1    0    0  501  502  0.00000000000E+00  0.00000000000E+00  0.14371141898E+01  0.14371141898E+01  0.00000000000E+00 0. -1.
         13   -1    0    0    0    0 -0.00000000000E+00 -0.00000000000E+00 -0.10000000000E+04  0.10000000000E+04  0.00000000000E+00 0.  1.
    9000005    2    1    2  501    0 -0.37839225918E+02 -0.47944903036E+00 -0.50909406701E+03  0.51050762693E+03  0.30382879029E+01 0.  0.
         13    1    3    3    0    0 -0.28791731530E+02  0.61158206332E-01 -0.40292938527E+03  0.40395675147E+03  0.00000000000E+00 0.  1.
          1    1    3    3  501    0 -0.90474943878E+01 -0.54060723669E+00 -0.10616468174E+03  0.10655087545E+03  0.00000000000E+00 0.  1.
         -3    1    1    2    0  502  0.37839225918E+02  0.47944903036E+00 -0.48946881880E+03  0.49092948726E+03  0.00000000000E+00 0. -1.
<mgrwt>
<rscale>  1 0.30000000E+03</rscale>
<asrwt>0</asrwt>
<pdfrwt beam="1">  1       21 0.52258808E-02 0.30000000E+03</pdfrwt>
<pdfrwt beam="2">0</pdfrwt>
<totfact> 0.26712328E+04</totfact>
</mgrwt>
</event>
<event>
 6    1  0.1274196E-001  0.3000000E+03  0.7818608E-02  0.1093470E+00
         21   -1    0    0  501  502  0.00000000000E+00  0.00000000000E+00  0.20639193481E+01  0.20639193481E+01  0.00000000000E+00 0. -1.
         13   -1    0    0    0    0 -0.00000000000E+00 -0.00000000000E+00 -0.10000000000E+04  0.10000000000E+04  0.00000000000E+00 0.  1.
    9000005    2    1    2  501    0  0.26241110152E+02 -0.29525338430E+02 -0.74587302931E+03  0.74692449996E+03  0.30481673751E+01 0.  0.
         13    1    3    3    0    0  0.81737902330E+00 -0.14030882272E+01 -0.41841856477E+02  0.41873353323E+02  0.00000000000E+00 0.  1.
          3    1    3    3  501    0  0.25423731128E+02 -0.28122250203E+02 -0.70403117283E+03  0.70505114664E+03  0.00000000000E+00 0.  1.
         -3    1    1    2    0  502 -0.26241110152E+02  0.29525338430E+02 -0.25206305134E+03  0.25513941939E+03  0.00000000000E+00 0. -1.
<mgrwt>
<rscale>  1 0.30000000E+03</rscale>
<asrwt>0</asrwt>
<pdfrwt beam="1">  1       21 0.75051771E-02 0.30000000E+03</pdfrwt>
<pdfrwt beam="2">0</pdfrwt>
<totfact> 0.14287191E+04</totfact>
</mgrwt>
</event>
<event>
 6    1  0.1274196E-001  0.3000000E+03  0.7818608E-02  0.1093470E+00
         21   -1    0    0  501  502  0.00000000000E+00  0.00000000000E+00  0.26786468119E+01  0.26786468119E+01  0.00000000000E+00 0. -1.
         13   -1    0    0    0    0 -0.00000000000E+00 -0.00000000000E+00 -0.10000000000E+04  0.10000000000E+04  0.00000000000E+00 0.  1.
    9000005    2    1    2  501    0 -0.10075358600E+02  0.28684339767E+02 -0.90428603904E+03  0.90480181667E+03  0.29635888463E+01 0.  0.
         13    1    3    3    0    0 -0.66362166864E+01  0.15940708699E+02 -0.47975180602E+03  0.48006243442E+03  0.00000000000E+00 0.  1.
          3    1    3    3  501    0 -0.34391419140E+01  0.12743631068E+02 -0.42453423302E+03  0.42473938225E+03  0.00000000000E+00 0.  1.
         -3    1    1    2    0  502  0.10075358600E+02 -0.28684339767E+02 -0.93035314150E+02  0.97876830137E+02  0.00000000000E+00 0. -1.
<mgrwt>
<rscale>  1 0.30000000E+03</rscale>
<asrwt>0</asrwt>
<pdfrwt beam="1">  1       21 0.97405544E-02 0.30000000E+03</pdfrwt>
<pdfrwt beam="2">0</pdfrwt>
<totfact> 0.90166165E+03</totfact>
</mgrwt>
</event>
<event>
 6    1  0.1274196E-001  0.3000000E+03  0.7818608E-02  0.1093470E+00
         21   -1    0    0  501  502  0.00000000000E+00  0.00000000000E+00  0.14584041845E+01  0.14584041845E+01  0.00000000000E+00 0. -1.
         13   -1    0    0    0    0 -0.00000000000E+00 -0.00000000000E+00 -0.10000000000E+04  0.10000000000E+04  0.00000000000E+00 0.  1.
    9000005    2    1    2  501    0 -0.14709419486E+02  0.35083301372E+02 -0.47258229703E+03  0.47412512339E+03  0.36606153249E+01 0.  0.
         13    1    3    3    0    0 -0.26622014837E+01  0.99931858732E+01 -0.13834172905E+03  0.13872773723E+03  0.00000000000E+00 0.  1.
          1    1    3    3  501    0 -0.12047218002E+02  0.25090115499E+02 -0.33424056798E+03  0.33539738616E+03  0.00000000000E+00 0.  1.
         -3    1    1    2    0  502  0.14709419486E+02 -0.35083301372E+02 -0.52595929878E+03  0.52733328079E+03  0.00000000000E+00 0. -1.
<mgrwt>
<rscale>  1 0.30000000E+03</rscale>
<asrwt>0</asrwt>
<pdfrwt beam="1">  1       21 0.53032991E-02 0.30000000E+03</pdfrwt>
<pdfrwt beam="2">0</pdfrwt>
<totfact> 0.26049125E+04</totfact>
</mgrwt>
</event>
<event>
 6    1  0.1274196E-001  0.3000000E+03  0.7818608E-02  0.1093470E+00
         21   -1    0    0  501  502  0.00000000000E+00  0.00000000000E+00  0.18631247372E+01  0.18631247372E+01  0.00000000000E+00 0. -1.
         13   -1    0    0    0    0 -0.00000000000E+00 -0.00000000000E+00 -0.10000000000E+04  0.10000000000E+04  0.00000000000E+00 0.  1.
    9000005    2    1    2  501    0  0.37841928394E+02 -0.55924298200E+01 -0.73020947099E+03  0.73121874409E+03  0.34195567577E+01 0.  0.
         13    1    3    3    0    0  0.23654738666E+02 -0.48855794442E+01 -0.44216606919E+03  0.44282530223E+03  0.00000000000E+00 0.  1.
          1    1    3    3  501    0  0.14187189728E+02 -0.70685037582E+00 -0.28804340179E+03  0.28839344186E+03  0.00000000000E+00 0.  1.
         -3    1    1    2    0  502 -0.37841928394E+02  0.55924298200E+01 -0.26792740427E+03  0.27064438065E+03  0.00000000000E+00 0. -1.
<mgrwt>
<rscale>  1 0.30000000E+03</rscale>
<asrwt>0</asrwt>
<pdfrwt beam="1">  1       21 0.67750133E-02 0.30000000E+03</pdfrwt>
<pdfrwt beam="2">0</pdfrwt>
<totfact> 0.17078005E+04</totfact>
</mgrwt>
</event>
<event>
 6    1  0.1274196E-001  0.3000000E+03  0.7818608E-02  0.1093470E+00
         21   -1    0    0  501  502  0.00000000000E+00  0.00000000000E+00  0.12701527851E+01  0.12701527851E+01  0.00000000000E+00 0. -1.
         13   -1    0    0    0    0 -0.00000000000E+00 -0.00000000000E+00 -0.10000000000E+04  0.10000000000E+04  0.00000000000E+00 0.  1.
    9000005    2    1    2  501    0 -0.22513615739E+02  0.25497280576E+02 -0.64620449841E+03  0.64710762546E+03  0.33242975964E+01 0.  0.
         13    1    3    3    0    0 -0.18797096701E+02  0.20452160461E+02 -0.54776967545E+03  0.54847355365E+03  0.00000000000E+00 0.  1.
          1    1    3    3  501    0 -0.37165190379E+01  0.50451201146E+01 -0.98434822956E+02  0.98634071806E+02  0.00000000000E+00 0.  1.
         -1    1    1    2    0  502  0.22513615739E+02 -0.25497280576E+02 -0.35252534881E+03  0.35416252733E+03  0.00000000000E+00 0. -1.
<mgrwt>
<rscale>  1 0.30000000E+03</rscale>
<asrwt>0</asrwt>
<pdfrwt beam="1">  1       21 0.46187471E-02 0.30000000E+03</pdfrwt>
<pdfrwt beam="2">0</pdfrwt>
<totfact> 0.32967177E+04</totfact>
</mgrwt>
</event>
<event>
 6    1  0.1274196E-001  0.3000000E+03  0.7818608E-02  0.1093470E+00
         21   -1    0    0  501  502  0.00000000000E+00  0.00000000000E+00  0.18842516979E+01  0.18842516979E+01  0.00000000000E+00 0. -1.
         13   -1    0    0    0    0 -0.00000000000E+00 -0.00000000000E+00 -0.10000000000E+04  0.10000000000E+04  0.00000000000E+00 0.  1.
    9000005    2    1    2  501    0 -0.23321417189E+02 -0.35583113106E+02 -0.59590401438E+03  0.59742866039E+03  0.30599770406E+01 0.  0.
         13    1    3    3    0    0 -0.17601141791E+02 -0.24684248160E+02 -0.43361791646E+03  0.43467644263E+03  0.00000000000E+00 0.  1.
          3    1    3    3  501    0 -0.57202753985E+01 -0.10898864946E+02 -0.16228609792E+03  0.16275221776E+03  0.00000000000E+00 0.  1.
         -1    1    1    2    0  502  0.23321417189E+02  0.35583113106E+02 -0.40221173392E+03  0.40445559131E+03  0.00000000000E+00 0. -1.
<mgrwt>
<rscale>  1 0.30000000E+03</rscale>
<asrwt>0</asrwt>
<pdfrwt beam="1">  1       21 0.68518388E-02 0.30000000E+03</pdfrwt>
<pdfrwt beam="2">0</pdfrwt>
<totfact> 0.16746820E+04</totfact>
</mgrwt>
</event>
<event>
 6    1  0.1274196E-001  0.3000000E+03  0.7818608E-02  0.1093470E+00
         21   -1    0    0  501  502  0.00000000000E+00  0.00000000000E+00  0.23602845748E+01  0.23602845748E+01  0.00000000000E+00 0. -1.
         13   -1    0    0    0    0 -0.00000000000E+00 -0.00000000000E+00 -0.10000000000E+04  0.10000000000E+04  0.00000000000E+00 0.  1.
    9000005    2    1    2  501    0 -0.15274430202E+02 -0.28042600226E+02 -0.87621562596E+03  0.87680748632E+03  0.42248380679E+01 0.  0.
         13    1    3    3    0    0 -0.67281949338E+00 -0.11339867178E+00 -0.15325037127E+02  0.15340218652E+02  0.00000000000E+00 0.  1.
          3    1    3    3  501    0 -0.14601610709E+02 -0.27929201554E+02 -0.86089058883E+03  0.86146726767E+03  0.00000000000E+00 0.  1.
         -3    1    1    2    0  502  0.15274430202E+02  0.28042600226E+02 -0.12142408947E+03  0.12555279825E+03  0.00000000000E+00 0. -1.
<mgrwt>
<rscale>  1 0.30000000E+03</rscale>
<asrwt>0</asrwt>
<pdfrwt beam="1">  1       21 0.85828711E-02 0.30000000E+03</pdfrwt>
<pdfrwt beam="2">0</pdfrwt>
<totfact> 0.11286432E+04</totfact>
</mgrwt>
</event>
<event>
 6    1  0.1274196E-001  0.3000000E+03  0.7818608E-02  0.1093470E+00
         21   -1    0    0  501  502  0.00000000000E+00  0.00000000000E+00  0.21047743739E+01  0.21047743739E+01  0.00000000000E+00 0. -1.
         13   -1    0    0    0    0 -0.00000000000E+00 -0.00000000000E+00 -0.10000000000E+04  0.10000000000E+04  0.00000000000E+00 0.  1.
    9000005    2    1    2  501    0  0.15444449136E+02  0.42994580595E+02 -0.45926773257E+03  0.46154336135E+03  0.28912386159E+01 0.  0.
         13    1    3    3    0    0  0.91374673730E+01  0.24946959346E+02 -0.25264812623E+03  0.25404117733E+03  0.00000000000E+00 0.  1.
          1    1    3    3  501    0  0.63069817625E+01  0.18047621249E+02 -0.20661960634E+03  0.20750218402E+03  0.00000000000E+00 0.  1.
         -1    1    1    2    0  502 -0.15444449136E+02 -0.42994580595E+02 -0.53862749306E+03  0.54056141302E+03  0.00000000000E+00 0. -1.
<mgrwt>
<rscale>  1 0.30000000E+03</rscale>
<asrwt>0</asrwt>
<pdfrwt beam="1">  1       21 0.76537411E-02 0.30000000E+03</pdfrwt>
<pdfrwt beam="2">0</pdfrwt>
<totfact> 0.13804960E+04</totfact>
</mgrwt>
</event>
<event>
 6    1  0.1274196E-001  0.3000000E+03  0.7818608E-02  0.1093470E+00
         21   -1    0    0  501  502  0.00000000000E+00  0.00000000000E+00  0.18402619463E+01  0.18402619463E+01  0.00000000000E+00 0. -1.
         13   -1    0    0    0    0 -0.00000000000E+00 -0.00000000000E+00 -0.10000000000E+04  0.10000000000E+04  0.00000000000E+00 0.  1.
    9000005    2    1    2  501    0  0.34979573518E+02 -0.13174749729E+02 -0.25569817586E+03  0.25843840835E+03  0.34218677479E+01 0.  0.
         13    1    3    3    0    0  0.11787620393E+02 -0.27334335528E+01 -0.81939500788E+02  0.82828144027E+02  0.00000000000E+00 0.  1.
          3    1    3    3  501    0  0.23191953126E+02 -0.10441316176E+02 -0.17375867507E+03  0.17561026432E+03  0.00000000000E+00 0.  1.
         -1    1    1    2    0  502 -0.34979573518E+02  0.13174749729E+02 -0.74246156219E+03  0.74340185360E+03  0.00000000000E+00 0. -1.
<mgrwt>
<rscale>  1 0.30000000E+03</rscale>
<asrwt>0</asrwt>
<pdfrwt beam="1">  1       21 0.66918757E-02 0.30000000E+03</pdfrwt>
<pdfrwt beam="2">0</pdfrwt>
<totfact> 0.17447864E+04</totfact>
</mgrwt>
</event>
<event>
 6    1  0.1274196E-001  0.3000000E+03  0.7818608E-02  0.1093470E+00
         21   -1    0    0  501  502  0.00000000000E+00  0.00000000000E+00  0.24428311086E+01  0.24428311086E+01  0.00000000000E+00 0. -1.
         13   -1    0    0    0    0 -0.00000000000E+00 -0.00000000000E+00 -0.10000000000E+04  0.10000000000E+04  0.00000000000E+00 0.  1.
    9000005    2    1    2  501    0 -0.44297892916E+02  0.16379164240E+02 -0.64222894047E+03  0.64398958416E+03  0.58302817839E+01 0.  0.
         13    1    3    3    0    0 -0.12884529736E+02  0.52314383003E+01 -0.22650594859E+03  0.22693242122E+03  0.00000000000E+00 0.  1.
          1    1    3    3  501    0 -0.31413363180E+02  0.11147725939E+02 -0.41572299188E+03  0.41705716294E+03  0.00000000000E+00 0.  1.
         -1    1    1    2    0  502  0.44297892916E+02 -0.16379164240E+02 -0.35532822842E+03  0.35845324695E+03  0.00000000000E+00 0. -1.
<mgrwt>
<rscale>  1 0.30000000E+03</rscale>
<asrwt>0</asrwt>
<pdfrwt beam="1">  1       21 0.88830409E-02 0.30000000E+03</pdfrwt>
<pdfrwt beam="2">0</pdfrwt>
<totfact> 0.10621260E+04</totfact>
</mgrwt>
</event>
<event>
 6    1  0.1274196E-001  0.3000000E+03  0.7818608E-02  0.1093470E+00
         21   -1    0    0  501  502  0.00000000000E+00  0.00000000000E+00  0.20141482969E+01  0.20141482969E+01  0.00000000000E+00 0. -1.
         13   -1    0    0    0    0 -0.00000000000E+00 -0.00000000000E+00 -0.10000000000E+04  0.10000000000E+04  0.00000000000E+00 0.  1.
    9000005    2    1    2  501    0 -0.32106496554E+02  0.21090370574E+02 -0.75440779875E+03  0.75542562721E+03  0.78179650407E+01 0.  0.
         13    1    3    3    0    0 -0.10293296598E+02  0.37346902850E+01 -0.26299180512E+03  0.26321966003E+03  0.00000000000E+00 0.  1.
          3    1    3    3  501    0 -0.21813199956E+02  0.17355680289E+02 -0.49141599363E+03  0.49220596718E+03  0.00000000000E+00 0.  1.
         -3    1    1    2    0  502  0.32106496554E+02 -0.21090370574E+02 -0.24357805295E+03  0.24658852109E+03  0.00000000000E+00 0. -1.
<mgrwt>
<rscale>  1 0.30000000E+03</rscale>
<asrwt>0</asrwt>
<pdfrwt beam="1">  1       21 0.73241911E-02 0.30000000E+03</pdfrwt>
<pdfrwt beam="2">0</pdfrwt>
<totfact> 0.14910502E+04</totfact>
</mgrwt>
</event>
<event>
 6    1  0.1274196E-001  0.3000000E+03  0.7818608E-02  0.1093470E+00
         21   -1    0    0  501  502  0.00000000000E+00  0.00000000000E+00  0.13869077500E+01  0.13869077500E+01  0.00000000000E+00 0. -1.
         13   -1    0    0    0    0 -0.00000000000E+00 -0.00000000000E+00 -0.10000000000E+04  0.10000000000E+04  0.00000000000E+00 0.  1.
    9000005    2    1    2  501    0 -0.12077088443E+02  0.33709136830E+02 -0.63454904917E+03  0.63556620107E+03  0.31206042065E+01 0.  0.
         13    1    3    3    0    0 -0.32402786834E+01  0.10719853200E+02 -0.22265944242E+03  0.22294089342E+03  0.00000000000E+00 0.  1.
          3    1    3    3  501    0 -0.88368097594E+01  0.22989283631E+02 -0.41188960674E+03  0.41262530765E+03  0.00000000000E+00 0.  1.
         -1    1    1    2    0  502  0.12077088443E+02 -0.33709136830E+02 -0.36406404308E+03  0.36582070668E+03  0.00000000000E+00 0. -1.
<mgrwt>
<rscale>  1 0.30000000E+03</rscale>
<asrwt>0</asrwt>
<pdfrwt beam="1">  1       21 0.50433115E-02 0.30000000E+03</pdfrwt>
<pdfrwt beam="2">0</pdfrwt>
<totfact> 0.28384141E+04</totfact>
</mgrwt>
</event>
<event>
 6    1  0.1274196E-001  0.3000000E+03  0.7818608E-02  0.1093470E+00
         21   -1    0    0  501  502  0.00000000000E+00  0.00000000000E+00  0.19671740506E+01  0.19671740506E+01  0.00000000000E+00 0. -1.
         13   -1    0    0    0    0 -0.00000000000E+00 -0.00000000000E+00 -0.10000000000E+04  0.10000000000E+04  0.00000000000E+00 0.  1.
    9000005    2    1    2  501    0  0.37731079072E+02  0.22687421321E+02 -0.44618201915E+03  0.44836292336E+03  0.35444914695E+01 0.  0.
         13    1    3    3    0    0  0.39459210134E+00  0.36909390719E+00 -0.27543121794E+01  0.28068075852E+01  0.00000000000E+00 0.  1.
          3    1    3    3  501    0  0.37336486970E+02  0.22318327414E+02 -0.44342770697E+03  0.44555611577E+03  0.00000000000E+00 0.  1.
         -1    1    1    2    0  502 -0.37731079072E+02 -0.22687421321E+02 -0.55185080680E+03  0.55360425069E+03  0.00000000000E+00 0. -1.
<mgrwt>
<rscale>  1 0.30000000E+03</rscale>
<asrwt>0</asrwt>
<pdfrwt beam="1">  1       21 0.71533753E-02 0.30000000E+03</pdfrwt>
<pdfrwt beam="2">0</pdfrwt>
<totfact> 0.15537467E+04</totfact>
</mgrwt>
</event>
<event>
 6    1  0.1274196E-001  0.3000000E+03  0.7818608E-02  0.1093470E+00
         21   -1    0    0  501  502  0.00000000000E+00  0.00000000000E+00  0.10100722060E+01  0.10100722060E+01  0.00000000000E+00 0. -1.
         13   -1    0    0    0    0 -0.00000000000E+00 -0.00000000000E+00 -0.10000000000E+04  0.10000000000E+04  0.00000000000E+00 0.  1.
    9000005    2    1    2  501    0  0.53670314238E+01  0.29723726874E+02 -0.64700862399E+03  0.64773518888E+03  0.53301428310E+01 0.  0.
         13    1    3    3    0    0  0.27232924662E+01  0.87377006042E+01 -0.15248602978E+03  0.15276044321E+03  0.00000000000E+00 0.  1.
          1    1    3    3  501    0  0.26437389577E+01  0.20986026270E+02 -0.49452259422E+03  0.49497474566E+03  0.00000000000E+00 0.  1.
         -1    1    1    2    0  502 -0.53670314238E+01 -0.29723726874E+02 -0.35198130380E+03  0.35327488333E+03  0.00000000000E+00 0. -1.
<mgrwt>
<rscale>  1 0.30000000E+03</rscale>
<asrwt>0</asrwt>
<pdfrwt beam="1">  1       21 0.36729976E-02 0.30000000E+03</pdfrwt>
<pdfrwt beam="2">0</pdfrwt>
<totfact> 0.48528329E+04</totfact>
</mgrwt>
</event>
<event>
 6    1  0.1274196E-001  0.3000000E+03  0.7818608E-02  0.1093470E+00
         21   -1    0    0  501  502  0.00000000000E+00  0.00000000000E+00  0.40514085210E+01  0.40514085210E+01  0.00000000000E+00 0. -1.
         13   -1    0    0    0    0 -0.00000000000E+00 -0.00000000000E+00 -0.10000000000E+04  0.10000000000E+04  0.00000000000E+00 0.  1.
    9000005    2    1    2  501    0 -0.42523705850E+02 -0.11490345820E+01 -0.87127925905E+03  0.87232431074E+03  0.35454238412E+01 0.  0.
         13    1    3    3    0    0 -0.21849103862E+02  0.81129931389E+00 -0.46899053518E+03  0.46949990803E+03  0.00000000000E+00 0.  1.
          3    1    3    3  501    0 -0.20674601988E+02 -0.19603338959E+01 -0.40228872386E+03  0.40282440272E+03  0.00000000000E+00 0.  1.
         -1    1    1    2    0  502  0.42523705850E+02  0.11490345820E+01 -0.12466933243E+03  0.13172709778E+03  0.00000000000E+00 0. -1.
<mgrwt>
<rscale>  1 0.30000000E+03</rscale>
<asrwt>0</asrwt>
<pdfrwt beam="1">  1       21 0.14732426E-01 0.30000000E+03</pdfrwt>
<pdfrwt beam="2">0</pdfrwt>
<totfact> 0.42573884E+03</totfact>
</mgrwt>
</event>
<event>
 6    1  0.1274196E-001  0.3000000E+03  0.7818608E-02  0.1093470E+00
         21   -1    0    0  501  502  0.00000000000E+00  0.00000000000E+00  0.31309803509E+01  0.31309803509E+01  0.00000000000E+00 0. -1.
         13   -1    0    0    0    0 -0.00000000000E+00 -0.00000000000E+00 -0.10000000000E+04  0.10000000000E+04  0.00000000000E+00 0.  1.
    9000005    2    1    2  501    0  0.11187463789E+02 -0.29979876175E+02 -0.90977935793E+03  0.91034864637E+03  0.34964984981E+01 0.  0.
         13    1    3    3    0    0  0.58817179474E+01 -0.16500542359E+02 -0.54615859521E+03  0.54643945102E+03  0.00000000000E+00 0.  1.
          1    1    3    3  501    0  0.53057458417E+01 -0.13479333815E+02 -0.36362076272E+03  0.36390919535E+03  0.00000000000E+00 0.  1.
         -1    1    1    2    0  502 -0.11187463789E+02  0.29979876175E+02 -0.87089661716E+02  0.92782333983E+02  0.00000000000E+00 0. -1.
<mgrwt>
<rscale>  1 0.30000000E+03</rscale>
<asrwt>0</asrwt>
<pdfrwt beam="1">  1       21 0.11385407E-01 0.30000000E+03</pdfrwt>
<pdfrwt beam="2">0</pdfrwt>
<totfact> 0.68156949E+03</totfact>
</mgrwt>
</event>
<event>
 6    1  0.1274196E-001  0.3000000E+03  0.7818608E-02  0.1093470E+00
         21   -1    0    0  501  502  0.00000000000E+00  0.00000000000E+00  0.22677964463E+01  0.22677964463E+01  0.00000000000E+00 0. -1.
         13   -1    0    0    0    0 -0.00000000000E+00 -0.00000000000E+00 -0.10000000000E+04  0.10000000000E+04  0.00000000000E+00 0.  1.
    9000005    2    1    2  501    0  0.51394860208E+01 -0.30132903948E+02 -0.88294967908E+03  0.88348465731E+03  0.32554124544E+01 0.  0.
         13    1    3    3    0    0  0.34955035343E+01 -0.15715025721E+02 -0.42357019234E+03  0.42387602954E+03  0.00000000000E+00 0.  1.
          1    1    3    3  501    0  0.16439824865E+01 -0.14417878227E+02 -0.45937948673E+03  0.45960862777E+03  0.00000000000E+00 0.  1.
         -3    1    1    2    0  502 -0.51394860208E+01  0.30132903948E+02 -0.11478252448E+03  0.11878313913E+03  0.00000000000E+00 0. -1.
<mgrwt>
<rscale>  1 0.30000000E+03</rscale>
<asrwt>0</asrwt>
<pdfrwt beam="1">  1       21 0.82465499E-02 0.30000000E+03</pdfrwt>
<pdfrwt beam="2">0</pdfrwt>
<totfact> 0.12110090E+04</totfact>
</mgrwt>
</event>
<event>
 6    1  0.1274196E-001  0.3000000E+03  0.7818608E-02  0.1093470E+00
         21   -1    0    0  501  502  0.00000000000E+00  0.00000000000E+00  0.22427975241E+01  0.22427975241E+01  0.00000000000E+00 0. -1.
         13   -1    0    0    0    0 -0.00000000000E+00 -0.00000000000E+00 -0.10000000000E+04  0.10000000000E+04  0.00000000000E+00 0.  1.
    9000005    2    1    2  501    0 -0.28819960223E+01  0.45573594140E+02 -0.37036764323E+03  0.37319358050E+03  0.39998741316E+01 0.  0.
         13    1    3    3    0    0 -0.33389410038E+01  0.33397870885E+02 -0.28176951053E+03  0.28376156077E+03  0.00000000000E+00 0.  1.
          1    1    3    3  501    0  0.45694498152E+00  0.12175723255E+02 -0.88598132700E+02  0.89432019732E+02  0.00000000000E+00 0.  1.
         -1    1    1    2    0  502  0.28819960223E+01 -0.45573594140E+02 -0.62738955924E+03  0.62904921702E+03  0.00000000000E+00 0. -1.
<mgrwt>
<rscale>  1 0.30000000E+03</rscale>
<asrwt>0</asrwt>
<pdfrwt beam="1">  1       21 0.81556446E-02 0.30000000E+03</pdfrwt>
<pdfrwt beam="2">0</pdfrwt>
<totfact> 0.12348539E+04</totfact>
</mgrwt>
</event>
<event>
 6    1  0.1274196E-001  0.3000000E+03  0.7818608E-02  0.1093470E+00
         21   -1    0    0  501  502  0.00000000000E+00  0.00000000000E+00  0.47892778866E+01  0.47892778866E+01  0.00000000000E+00 0. -1.
         13   -1    0    0    0    0 -0.00000000000E+00 -0.00000000000E+00 -0.10000000000E+04  0.10000000000E+04  0.00000000000E+00 0.  1.
    9000005    2    1    2  501    0 -0.34837724644E+01 -0.55546080619E+02 -0.79599230574E+03  0.79794276193E+03  0.33759101886E+01 0.  0.
         13    1    3    3    0    0 -0.23412591053E+01 -0.17609353150E+02 -0.26794072726E+03  0.26852896331E+03  0.00000000000E+00 0.  1.
          1    1    3    3  501    0 -0.11425133591E+01 -0.37936727469E+02 -0.52805157848E+03  0.52941379862E+03  0.00000000000E+00 0.  1.
         -3    1    1    2    0  502  0.34837724644E+01  0.55546080619E+02 -0.19921841637E+03  0.20684651596E+03  0.00000000000E+00 0. -1.
<mgrwt>
<rscale>  1 0.30000000E+03</rscale>
<asrwt>0</asrwt>
<pdfrwt beam="1">  1       21 0.17415593E-01 0.30000000E+03</pdfrwt>
<pdfrwt beam="2">0</pdfrwt>
<totfact> 0.31171133E+03</totfact>
</mgrwt>
</event>
<event>
 6    1  0.1274196E-001  0.3000000E+03  0.7818608E-02  0.1093470E+00
         21   -1    0    0  501  502  0.00000000000E+00  0.00000000000E+00  0.26032361426E+01  0.26032361426E+01  0.00000000000E+00 0. -1.
         13   -1    0    0    0    0 -0.00000000000E+00 -0.00000000000E+00 -0.10000000000E+04  0.10000000000E+04  0.00000000000E+00 0.  1.
    9000005    2    1    2  501    0  0.24673058282E+02 -0.28135341050E+02 -0.83856856526E+03  0.83942617314E+03  0.62212769074E+01 0.  0.
         13    1    3    3    0    0  0.20092314945E+02 -0.18805987770E+02 -0.62105684564E+03  0.62166628654E+03  0.00000000000E+00 0.  1.
          3    1    3    3  501    0  0.45807433372E+01 -0.93293532796E+01 -0.21751171962E+03  0.21775988661E+03  0.00000000000E+00 0.  1.
         -3    1    1    2    0  502 -0.24673058282E+02  0.28135341050E+02 -0.15882819859E+03  0.16317706300E+03  0.00000000000E+00 0. -1.
<mgrwt>
<rscale>  1 0.30000000E+03</rscale>
<asrwt>0</asrwt>
<pdfrwt beam="1">  1       21 0.94663332E-02 0.30000000E+03</pdfrwt>
<pdfrwt beam="2">0</pdfrwt>
<totfact> 0.94875232E+03</totfact>
</mgrwt>
</event>
<event>
 6    1  0.1274196E-001  0.3000000E+03  0.7818608E-02  0.1093470E+00
         21   -1    0    0  501  502  0.00000000000E+00  0.00000000000E+00  0.29905513774E+01  0.29905513774E+01  0.00000000000E+00 0. -1.
         13   -1    0    0    0    0 -0.00000000000E+00 -0.00000000000E+00 -0.10000000000E+04  0.10000000000E+04  0.00000000000E+00 0.  1.
    9000005    2    1    2  501    0 -0.42527617127E+02 -0.59488611425E+01 -0.19021254172E+03  0.19505166993E+03  0.45117344086E+01 0.  0.
         13    1    3    3    0    0 -0.29915620815E+02 -0.60848346621E+01 -0.13821306493E+03  0.14154441316E+03  0.00000000000E+00 0.  1.
          3    1    3    3  501    0 -0.12611996312E+02  0.13597351965E+00 -0.51999476795E+02  0.53507256767E+02  0.00000000000E+00 0.  1.
         -1    1    1    2    0  502  0.42527617127E+02  0.59488611425E+01 -0.80679690690E+03  0.80793888145E+03  0.00000000000E+00 0. -1.
<mgrwt>
<rscale>  1 0.30000000E+03</rscale>
<asrwt>0</asrwt>
<pdfrwt beam="1">  1       21 0.10874755E-01 0.30000000E+03</pdfrwt>
<pdfrwt beam="2">0</pdfrwt>
<totfact> 0.74029066E+03</totfact>
</mgrwt>
</event>
<event>
 6    1  0.1274196E-001  0.3000000E+03  0.7818608E-02  0.1093470E+00
         21   -1    0    0  501  502  0.00000000000E+00  0.00000000000E+00  0.25332531572E+01  0.25332531572E+01  0.00000000000E+00 0. -1.
         13   -1    0    0    0    0 -0.00000000000E+00 -0.00000000000E+00 -0.10000000000E+04  0.10000000000E+04  0.00000000000E+00 0.  1.
    9000005    2    1    2  501    0  0.88613939607E+01  0.42397791018E+02 -0.75370733174E+03  0.75495548873E+03  0.26364868549E+01 0.  0.
         13    1    3    3    0    0  0.42600833124E+01  0.21572791819E+02 -0.40513055895E+03  0.40572688283E+03  0.00000000000E+00 0.  1.
          1    1    3    3  501    0  0.46013106483E+01  0.20824999199E+02 -0.34857677279E+03  0.34922860590E+03  0.00000000000E+00 0.  1.
         -1    1    1    2    0  502 -0.88613939607E+01 -0.42397791018E+02 -0.24375941510E+03  0.24757776442E+03  0.00000000000E+00 0. -1.
<mgrwt>
<rscale>  1 0.30000000E+03</rscale>
<asrwt>0</asrwt>
<pdfrwt beam="1">  1       21 0.92118491E-02 0.30000000E+03</pdfrwt>
<pdfrwt beam="2">0</pdfrwt>
<totfact> 0.99585577E+03</totfact>
</mgrwt>
</event>
<event>
 6    1  0.1274196E-001  0.3000000E+03  0.7818608E-02  0.1093470E+00
         21   -1    0    0  501  502  0.00000000000E+00  0.00000000000E+00  0.13183583813E+01  0.13183583813E+01  0.00000000000E+00 0. -1.
         13   -1    0    0    0    0 -0.00000000000E+00 -0.00000000000E+00 -0.10000000000E+04  0.10000000000E+04  0.00000000000E+00 0.  1.
    9000005    2    1    2  501    0  0.17928186967E+02 -0.25404298865E+02 -0.24377746207E+03  0.24577410515E+03  0.32651892589E+01 0.  0.
         13    1    3    3    0    0  0.66535440033E+00 -0.21421161699E+01 -0.21604506509E+02  0.21720636723E+02  0.00000000000E+00 0.  1.
          1    1    3    3  501    0  0.17262832567E+02 -0.23262182695E+02 -0.22217295556E+03  0.22405346843E+03  0.00000000000E+00 0.  1.
         -1    1    1    2    0  502 -0.17928186967E+02  0.25404298865E+02 -0.75490417955E+03  0.75554425323E+03  0.00000000000E+00 0. -1.
<mgrwt>
<rscale>  1 0.30000000E+03</rscale>
<asrwt>0</asrwt>
<pdfrwt beam="1">  1       21 0.47940406E-02 0.30000000E+03</pdfrwt>
<pdfrwt beam="2">0</pdfrwt>
<totfact> 0.30943884E+04</totfact>
</mgrwt>
</event>
<event>
 6    1  0.1274196E-001  0.3000000E+03  0.7818608E-02  0.1093470E+00
         21   -1    0    0  501  502  0.00000000000E+00  0.00000000000E+00  0.10495326754E+01  0.10495326754E+01  0.00000000000E+00 0. -1.
         13   -1    0    0    0    0 -0.00000000000E+00 -0.00000000000E+00 -0.10000000000E+04  0.10000000000E+04  0.00000000000E+00 0.  1.
    9000005    2    1    2  501    0  0.15929502524E+02  0.26428780311E+02 -0.35401470594E+03  0.35537595741E+03  0.36646426910E+01 0.  0.
         13    1    3    3    0    0  0.12215779420E+00  0.61526645504E-01 -0.72185978752E+01  0.72198935822E+01  0.00000000000E+00 0.  1.
          1    1    3    3  501    0  0.15807344729E+02  0.26367253665E+02 -0.34679610806E+03  0.34815606383E+03  0.00000000000E+00 0.  1.
         -3    1    1    2    0  502 -0.15929502524E+02 -0.26428780311E+02 -0.64493576139E+03  0.64567357527E+03  0.00000000000E+00 0. -1.
<mgrwt>
<rscale>  1 0.30000000E+03</rscale>
<asrwt>0</asrwt>
<pdfrwt beam="1">  1       21 0.38164905E-02 0.30000000E+03</pdfrwt>
<pdfrwt beam="2">0</pdfrwt>
<totfact> 0.45503788E+04</totfact>
</mgrwt>
</event>
<event>
 6    1  0.1274196E-001  0.3000000E+03  0.7818608E-02  0.1093470E+00
         21   -1    0    0  501  502  0.00000000000E+00  0.00000000000E+00  0.29007346797E+01  0.29007346797E+01  0.00000000000E+00 0. -1.
         13   -1    0    0    0    0 -0.00000000000E+00 -0.00000000000E+00 -0.10000000000E+04  0.10000000000E+04  0.00000000000E+00 0.  1.
    9000005    2    1    2  501    0 -0.15471793461E+02 -0.35986614068E+02 -0.84244842351E+03  0.84336611255E+03  0.35553819058E+01 0.  0.
         13    1    3    3    0    0 -0.11916697811E+02 -0.27765799629E+02 -0.68002252908E+03  0.68069346065E+03  0.00000000000E+00 0.  1.
          1    1    3    3  501    0 -0.35550956502E+01 -0.82208144393E+01 -0.16242589442E+03  0.16267265189E+03  0.00000000000E+00 0.  1.
         -1    1    1    2    0  502  0.15471793461E+02  0.35986614068E+02 -0.15465084181E+03  0.15953462213E+03  0.00000000000E+00 0. -1.
<mgrwt>
<rscale>  1 0.30000000E+03</rscale>
<asrwt>0</asrwt>
<pdfrwt beam="1">  1       21 0.10548148E-01 0.30000000E+03</pdfrwt>
<pdfrwt beam="2">0</pdfrwt>
<totfact> 0.78194661E+03</totfact>
</mgrwt>
</event>
<event>
 6    1  0.1274196E-001  0.3000000E+03  0.7818608E-02  0.1093470E+00
         21   -1    0    0  501  502  0.00000000000E+00  0.00000000000E+00  0.37616990722E+02  0.37616990722E+02  0.00000000000E+00 0. -1.
         13   -1    0    0    0    0 -0.00000000000E+00 -0.00000000000E+00 -0.10000000000E+04  0.10000000000E+04  0.00000000000E+00 0.  1.
    9000005    2    1    2  501    0 -0.48015310922E+02 -0.10996543032E+03 -0.88878398637E+03  0.89685235694E+03  0.30511938960E+01 0.  0.
         13    1    3    3    0    0 -0.12528838526E+02 -0.25724934351E+02 -0.21585648019E+03  0.21774472228E+03  0.00000000000E+00 0.  1.
          1    1    3    3  501    0 -0.35486472396E+02 -0.84240495974E+02 -0.67292750618E+03  0.67910763466E+03  0.00000000000E+00 0.  1.
         -1    1    1    2    0  502  0.48015310922E+02  0.10996543032E+03 -0.73599022910E+02  0.14076463378E+03  0.00000000000E+00 0. -1.
<mgrwt>
<rscale>  1 0.30000000E+03</rscale>
<asrwt>0</asrwt>
<pdfrwt beam="1">  1       21 0.13678935E+00 0.30000000E+03</pdfrwt>
<pdfrwt beam="2">0</pdfrwt>
<totfact> 0.31401224E+01</totfact>
</mgrwt>
</event>
<event>
 6    1  0.1274196E-001  0.3000000E+03  0.7818608E-02  0.1093470E+00
         21   -1    0    0  501  502  0.00000000000E+00  0.00000000000E+00  0.24815663382E+01  0.24815663382E+01  0.00000000000E+00 0. -1.
         13   -1    0    0    0    0 -0.00000000000E+00 -0.00000000000E+00 -0.10000000000E+04  0.10000000000E+04  0.00000000000E+00 0.  1.
    9000005    2    1    2  501    0 -0.10565577482E+02  0.36058469360E+02 -0.82754757172E+03  0.82840704623E+03  0.33772993903E+01 0.  0.
         13    1    3    3    0    0 -0.86091174261E+00  0.11054223084E+01 -0.39879596581E+02  0.39904202172E+02  0.00000000000E+00 0.  1.
          3    1    3    3  501    0 -0.97046657390E+01  0.34953047051E+02 -0.78766797514E+03  0.78850284406E+03  0.00000000000E+00 0.  1.
         -3    1    1    2    0  502  0.10565577482E+02 -0.36058469360E+02 -0.16997086194E+03  0.17407452010E+03  0.00000000000E+00 0. -1.
<mgrwt>
<rscale>  1 0.30000000E+03</rscale>
<asrwt>0</asrwt>
<pdfrwt beam="1">  1       21 0.90238966E-02 0.30000000E+03</pdfrwt>
<pdfrwt beam="2">0</pdfrwt>
<totfact> 0.10329443E+04</totfact>
</mgrwt>
</event>
<event>
 6    1  0.1274196E-001  0.3000000E+03  0.7818608E-02  0.1093470E+00
         21   -1    0    0  501  502  0.00000000000E+00  0.00000000000E+00  0.14262317451E+01  0.14262317451E+01  0.00000000000E+00 0. -1.
         13   -1    0    0    0    0 -0.00000000000E+00 -0.00000000000E+00 -0.10000000000E+04  0.10000000000E+04  0.00000000000E+00 0.  1.
    9000005    2    1    2  501    0  0.36203035679E+02  0.33565438872E+01 -0.63230213365E+03  0.63335445003E+03  0.31535653548E+01 0.  0.
         13    1    3    3    0    0  0.39344920932E+01  0.42841610867E+00 -0.53557109167E+02  0.53703144328E+02  0.00000000000E+00 0.  1.
          3    1    3    3  501    0  0.32268543585E+02  0.29281277785E+01 -0.57874502449E+03  0.57965130570E+03  0.00000000000E+00 0.  1.
         -1    1    1    2    0  502 -0.36203035679E+02 -0.33565438872E+01 -0.36627163460E+03  0.36807178171E+03  0.00000000000E+00 0. -1.
<mgrwt>
<rscale>  1 0.30000000E+03</rscale>
<asrwt>0</asrwt>
<pdfrwt beam="1">  1       21 0.51863082E-02 0.30000000E+03</pdfrwt>
<pdfrwt beam="2">0</pdfrwt>
<totfact> 0.27061486E+04</totfact>
</mgrwt>
</event>
<event>
 6    1  0.1274196E-001  0.3000000E+03  0.7818608E-02  0.1093470E+00
         21   -1    0    0  501  502  0.00000000000E+00  0.00000000000E+00  0.20157613587E+01  0.20157613587E+01  0.00000000000E+00 0. -1.
         13   -1    0    0    0    0 -0.00000000000E+00 -0.00000000000E+00 -0.10000000000E+04  0.10000000000E+04  0.00000000000E+00 0.  1.
    9000005    2    1    2  501    0  0.23549529804E+02 -0.22743815732E+02 -0.84152545012E+03  0.84216829027E+03  0.32379666390E+01 0.  0.
         13    1    3    3    0    0  0.21607957147E+02 -0.20657427940E+02 -0.74173455885E+03  0.74233670860E+03  0.00000000000E+00 0.  1.
          3    1    3    3  501    0  0.19415726572E+01 -0.20863877913E+01 -0.99790891274E+02  0.99831581674E+02  0.00000000000E+00 0.  1.
         -3    1    1    2    0  502 -0.23549529804E+02  0.22743815732E+02 -0.15645878852E+03  0.15984747109E+03  0.00000000000E+00 0. -1.
<mgrwt>
<rscale>  1 0.30000000E+03</rscale>
<asrwt>0</asrwt>
<pdfrwt beam="1">  1       21 0.73300568E-02 0.30000000E+03</pdfrwt>
<pdfrwt beam="2">0</pdfrwt>
<totfact> 0.14889658E+04</totfact>
</mgrwt>
</event>
<event>
 6    1  0.1274196E-001  0.3000000E+03  0.7818608E-02  0.1093470E+00
         21   -1    0    0  501  502  0.00000000000E+00  0.00000000000E+00  0.28422216894E+01  0.28422216894E+01  0.00000000000E+00 0. -1.
         13   -1    0    0    0    0 -0.00000000000E+00 -0.00000000000E+00 -0.10000000000E+04  0.10000000000E+04  0.00000000000E+00 0.  1.
    9000005    2    1    2  501    0  0.30303775072E+02 -0.16367913227E+02 -0.88096478261E+03  0.88165212467E+03  0.50292504034E+01 0.  0.
         13    1    3    3    0    0  0.19690528197E+02 -0.11875630968E+02 -0.53104207726E+03  0.53153968369E+03  0.00000000000E+00 0.  1.
          1    1    3    3  501    0  0.10613246875E+02 -0.44922822582E+01 -0.34992270535E+03  0.35011244098E+03  0.00000000000E+00 0.  1.
         -3    1    1    2    0  502 -0.30303775072E+02  0.16367913227E+02 -0.11619299570E+03  0.12119009702E+03  0.00000000000E+00 0. -1.
<mgrwt>
<rscale>  1 0.30000000E+03</rscale>
<asrwt>0</asrwt>
<pdfrwt beam="1">  1       21 0.10335373E-01 0.30000000E+03</pdfrwt>
<pdfrwt beam="2">0</pdfrwt>
<totfact> 0.81102663E+03</totfact>
</mgrwt>
</event>
<event>
 6    1  0.1274196E-001  0.3000000E+03  0.7818608E-02  0.1093470E+00
         21   -1    0    0  501  502  0.00000000000E+00  0.00000000000E+00  0.15805072738E+01  0.15805072738E+01  0.00000000000E+00 0. -1.
         13   -1    0    0    0    0 -0.00000000000E+00 -0.00000000000E+00 -0.10000000000E+04  0.10000000000E+04  0.00000000000E+00 0.  1.
    9000005    2    1    2  501    0 -0.30338813902E+02  0.13239787907E+02 -0.77566388580E+03  0.77637882870E+03  0.37264346818E+01 0.  0.
         13    1    3    3    0    0 -0.16364413560E+02  0.52045696557E+01 -0.41319719461E+03  0.41355386978E+03  0.00000000000E+00 0.  1.
          1    1    3    3  501    0 -0.13974400343E+02  0.80352182509E+01 -0.36246669119E+03  0.36282495893E+03  0.00000000000E+00 0.  1.
         -3    1    1    2    0  502  0.30338813902E+02 -0.13239787907E+02 -0.22275560693E+03  0.22520167857E+03  0.00000000000E+00 0. -1.
<mgrwt>
<rscale>  1 0.30000000E+03</rscale>
<asrwt>0</asrwt>
<pdfrwt beam="1">  1       21 0.57473113E-02 0.30000000E+03</pdfrwt>
<pdfrwt beam="2">0</pdfrwt>
<totfact> 0.22693288E+04</totfact>
</mgrwt>
</event>
<event>
 6    1  0.1274196E-001  0.3000000E+03  0.7818608E-02  0.1093470E+00
         21   -1    0    0  501  502  0.00000000000E+00  0.00000000000E+00  0.12682969254E+01  0.12682969254E+01  0.00000000000E+00 0. -1.
         13   -1    0    0    0    0 -0.00000000000E+00 -0.00000000000E+00 -0.10000000000E+04  0.10000000000E+04  0.00000000000E+00 0.  1.
    9000005    2    1    2  501    0 -0.35226530079E+02 -0.43638404573E+01 -0.48226036141E+03  0.48357862320E+03  0.36437755166E+01 0.  0.
         13    1    3    3    0    0 -0.20766454789E+02 -0.26836317071E+01 -0.30827835088E+03  0.30898865537E+03  0.00000000000E+00 0.  1.
          3    1    3    3  501    0 -0.14460075290E+02 -0.16802087502E+01 -0.17398201053E+03  0.17458996783E+03  0.00000000000E+00 0.  1.
         -1    1    1    2    0  502  0.35226530079E+02  0.43638404573E+01 -0.51647134166E+03  0.51768967373E+03  0.00000000000E+00 0. -1.
<mgrwt>
<rscale>  1 0.30000000E+03</rscale>
<asrwt>0</asrwt>
<pdfrwt beam="1">  1       21 0.46119985E-02 0.30000000E+03</pdfrwt>
<pdfrwt beam="2">0</pdfrwt>
<totfact> 0.33049185E+04</totfact>
</mgrwt>
</event>
<event>
 6    1  0.1274196E-001  0.3000000E+03  0.7818608E-02  0.1093470E+00
         21   -1    0    0  501  502  0.00000000000E+00  0.00000000000E+00  0.21114116931E+01  0.21114116931E+01  0.00000000000E+00 0. -1.
         13   -1    0    0    0    0 -0.00000000000E+00 -0.00000000000E+00 -0.10000000000E+04  0.10000000000E+04  0.00000000000E+00 0.  1.
    9000005    2    1    2  501    0 -0.26091303698E+02  0.28587540446E+02 -0.23117488135E+03  0.23442142737E+03  0.36845955939E+01 0.  0.
         13    1    3    3    0    0 -0.23660038883E+02  0.26346217021E+02 -0.20461534834E+03  0.20765683559E+03  0.00000000000E+00 0.  1.
          3    1    3    3  501    0 -0.24312648147E+01  0.22413234250E+01 -0.26559533015E+02  0.26764591782E+02  0.00000000000E+00 0.  1.
         -1    1    1    2    0  502  0.26091303698E+02 -0.28587540446E+02 -0.76671370696E+03  0.76768998432E+03  0.00000000000E+00 0. -1.
<mgrwt>
<rscale>  1 0.30000000E+03</rscale>
<asrwt>0</asrwt>
<pdfrwt beam="1">  1       21 0.76778769E-02 0.30000000E+03</pdfrwt>
<pdfrwt beam="2">0</pdfrwt>
<totfact> 0.13728994E+04</totfact>
</mgrwt>
</event>
<event>
 6    1  0.1274196E-001  0.3000000E+03  0.7818608E-02  0.1093470E+00
         21   -1    0    0  501  502  0.00000000000E+00  0.00000000000E+00  0.40825954661E+01  0.40825954661E+01  0.00000000000E+00 0. -1.
         13   -1    0    0    0    0 -0.00000000000E+00 -0.00000000000E+00 -0.10000000000E+04  0.10000000000E+04  0.00000000000E+00 0.  1.
    9000005    2    1    2  501    0 -0.32308306282E+02 -0.39087843329E+02 -0.80316661618E+03  0.80477240365E+03  0.32128147721E+01 0.  0.
         13    1    3    3    0    0 -0.24180088840E+02 -0.27410563212E+02 -0.59115985717E+03  0.59228877451E+03  0.00000000000E+00 0.  1.
          3    1    3    3  501    0 -0.81282174428E+01 -0.11677280118E+02 -0.21200675900E+03  0.21248362914E+03  0.00000000000E+00 0.  1.
         -3    1    1    2    0  502  0.32308306282E+02  0.39087843329E+02 -0.19275078836E+03  0.19931019182E+03  0.00000000000E+00 0. -1.
<mgrwt>
<rscale>  1 0.30000000E+03</rscale>
<asrwt>0</asrwt>
<pdfrwt beam="1">  1       21 0.14845833E-01 0.30000000E+03</pdfrwt>
<pdfrwt beam="2">0</pdfrwt>
<totfact> 0.41974877E+03</totfact>
</mgrwt>
</event>
<event>
 6    1  0.1274196E-001  0.3000000E+03  0.7818608E-02  0.1093470E+00
         21   -1    0    0  501  502  0.00000000000E+00  0.00000000000E+00  0.16010620834E+01  0.16010620834E+01  0.00000000000E+00 0. -1.
         13   -1    0    0    0    0 -0.00000000000E+00 -0.00000000000E+00 -0.10000000000E+04  0.10000000000E+04  0.00000000000E+00 0.  1.
    9000005    2    1    2  501    0  0.10214701920E+02  0.31262067875E+02 -0.78376494239E+03  0.78446191531E+03  0.33696644915E+01 0.  0.
         13    1    3    3    0    0  0.84923147582E+01  0.25634781180E+02 -0.67157488033E+03  0.67211760973E+03  0.00000000000E+00 0.  1.
          3    1    3    3  501    0  0.17223871623E+01  0.56272866951E+01 -0.11219006206E+03  0.11234430558E+03  0.00000000000E+00 0.  1.
         -1    1    1    2    0  502 -0.10214701920E+02 -0.31262067875E+02 -0.21463399553E+03  0.21713914677E+03  0.00000000000E+00 0. -1.
<mgrwt>
<rscale>  1 0.30000000E+03</rscale>
<asrwt>0</asrwt>
<pdfrwt beam="1">  1       21 0.58220562E-02 0.30000000E+03</pdfrwt>
<pdfrwt beam="2">0</pdfrwt>
<totfact> 0.22194000E+04</totfact>
</mgrwt>
</event>
<event>
 6    1  0.1274196E-001  0.3000000E+03  0.7818608E-02  0.1093470E+00
         21   -1    0    0  501  502  0.00000000000E+00  0.00000000000E+00  0.16380465048E+01  0.16380465048E+01  0.00000000000E+00 0. -1.
         13   -1    0    0    0    0 -0.00000000000E+00 -0.00000000000E+00 -0.10000000000E+04  0.10000000000E+04  0.00000000000E+00 0.  1.
    9000005    2    1    2  501    0 -0.37148117445E+02 -0.15436503134E+02 -0.54542256736E+03  0.54691576227E+03  0.35785171794E+01 0.  0.
         13    1    3    3    0    0 -0.73335123507E+01 -0.26514015993E+01 -0.12546959493E+03  0.12571169232E+03  0.00000000000E+00 0.  1.
          1    1    3    3  501    0 -0.29814605094E+02 -0.12785101534E+02 -0.41995297242E+03  0.42120406995E+03  0.00000000000E+00 0.  1.
         -3    1    1    2    0  502  0.37148117445E+02  0.15436503134E+02 -0.45293938614E+03  0.45472228423E+03  0.00000000000E+00 0. -1.
<mgrwt>
<rscale>  1 0.30000000E+03</rscale>
<asrwt>0</asrwt>
<pdfrwt beam="1">  1       21 0.59565453E-02 0.30000000E+03</pdfrwt>
<pdfrwt beam="2">0</pdfrwt>
<totfact> 0.21337446E+04</totfact>
</mgrwt>
</event>
<event>
 6    1  0.1274196E-001  0.3000000E+03  0.7818608E-02  0.1093470E+00
         21   -1    0    0  501  502  0.00000000000E+00  0.00000000000E+00  0.75260042177E+01  0.75260042177E+01  0.00000000000E+00 0. -1.
         13   -1    0    0    0    0 -0.00000000000E+00 -0.00000000000E+00 -0.10000000000E+04  0.10000000000E+04  0.00000000000E+00 0.  1.
    9000005    2    1    2  501    0  0.39717213461E+02 -0.33704157069E+02 -0.89898963039E+03  0.90050846443E+03  0.44397881247E+01 0.  0.
         13    1    3    3    0    0  0.27564810980E+00 -0.42052757547E+00 -0.19107191620E+02  0.19113806448E+02  0.00000000000E+00 0.  1.
          1    1    3    3  501    0  0.39441565351E+02 -0.33283629493E+02 -0.87988243877E+03  0.88139465798E+03  0.00000000000E+00 0.  1.
         -3    1    1    2    0  502 -0.39717213461E+02  0.33704157069E+02 -0.93484365397E+02  0.10701753979E+03  0.00000000000E+00 0. -1.
<mgrwt>
<rscale>  1 0.30000000E+03</rscale>
<asrwt>0</asrwt>
<pdfrwt beam="1">  1       21 0.27367346E-01 0.30000000E+03</pdfrwt>
<pdfrwt beam="2">0</pdfrwt>
<totfact> 0.13051492E+03</totfact>
</mgrwt>
</event>
<event>
 6    1  0.1274196E-001  0.3000000E+03  0.7818608E-02  0.1093470E+00
         21   -1    0    0  501  502  0.00000000000E+00  0.00000000000E+00  0.18683161828E+01  0.18683161828E+01  0.00000000000E+00 0. -1.
         13   -1    0    0    0    0 -0.00000000000E+00 -0.00000000000E+00 -0.10000000000E+04  0.10000000000E+04  0.00000000000E+00 0.  1.
    9000005    2    1    2  501    0  0.36859434095E+02 -0.13222252569E+02 -0.70961713561E+03  0.71070841102E+03  0.40645423169E+01 0.  0.
         13    1    3    3    0    0  0.27689223461E+01 -0.11000238299E+01 -0.76795645684E+02  0.76853420089E+02  0.00000000000E+00 0.  1.
          3    1    3    3  501    0  0.34090511749E+02 -0.12122228739E+02 -0.63282148992E+03  0.63385499093E+03  0.00000000000E+00 0.  1.
         -3    1    1    2    0  502 -0.36859434095E+02  0.13222252569E+02 -0.28851454821E+03  0.29115990516E+03  0.00000000000E+00 0. -1.
<mgrwt>
<rscale>  1 0.30000000E+03</rscale>
<asrwt>0</asrwt>
<pdfrwt beam="1">  1       21 0.67938914E-02 0.30000000E+03</pdfrwt>
<pdfrwt beam="2">0</pdfrwt>
<totfact> 0.16995699E+04</totfact>
</mgrwt>
</event>
<event>
 6    1  0.1274196E-001  0.3000000E+03  0.7818608E-02  0.1093470E+00
         21   -1    0    0  501  502  0.00000000000E+00  0.00000000000E+00  0.15090824135E+01  0.15090824135E+01  0.00000000000E+00 0. -1.
         13   -1    0    0    0    0 -0.00000000000E+00 -0.00000000000E+00 -0.10000000000E+04  0.10000000000E+04  0.00000000000E+00 0.  1.
    9000005    2    1    2  501    0  0.79185076632E+01  0.37234235632E+02 -0.59533788956E+03  0.59656284515E+03  0.33067206336E+01 0.  0.
         13    1    3    3    0    0  0.79048513009E+01  0.31910161554E+02 -0.50716082137E+03  0.50822519007E+03  0.00000000000E+00 0.  1.
          1    1    3    3  501    0  0.13656362325E-01  0.53240740783E+01 -0.88177068188E+02  0.88337655083E+02  0.00000000000E+00 0.  1.
         -1    1    1    2    0  502 -0.79185076632E+01 -0.37234235632E+02 -0.40315302803E+03  0.40494623726E+03  0.00000000000E+00 0. -1.
<mgrwt>
<rscale>  1 0.30000000E+03</rscale>
<asrwt>0</asrwt>
<pdfrwt beam="1">  1       21 0.54875840E-02 0.30000000E+03</pdfrwt>
<pdfrwt beam="2">0</pdfrwt>
<totfact> 0.24569167E+04</totfact>
</mgrwt>
</event>
<event>
 6    1  0.1274196E-001  0.3000000E+03  0.7818608E-02  0.1093470E+00
         21   -1    0    0  501  502  0.00000000000E+00  0.00000000000E+00  0.30256678112E+01  0.30256678112E+01  0.00000000000E+00 0. -1.
         13   -1    0    0    0    0 -0.00000000000E+00 -0.00000000000E+00 -0.10000000000E+04  0.10000000000E+04  0.00000000000E+00 0.  1.
    9000005    2    1    2  501    0 -0.50423889380E+02 -0.90592296879E+01 -0.68036813454E+03  0.68230129603E+03  0.31019039826E+01 0.  0.
         13    1    3    3    0    0 -0.19634094874E+02 -0.49690728053E+01 -0.26146978090E+03  0.26225299939E+03  0.00000000000E+00 0.  1.
          3    1    3    3  501    0 -0.30789794506E+02 -0.40901568827E+01 -0.41889835364E+03  0.42004829664E+03  0.00000000000E+00 0.  1.
         -1    1    1    2    0  502  0.50423889380E+02  0.90592296879E+01 -0.31660619765E+03  0.32072437178E+03  0.00000000000E+00 0. -1.
<mgrwt>
<rscale>  1 0.30000000E+03</rscale>
<asrwt>0</asrwt>
<pdfrwt beam="1">  1       21 0.11002452E-01 0.30000000E+03</pdfrwt>
<pdfrwt beam="2">0</pdfrwt>
<totfact> 0.72491157E+03</totfact>
</mgrwt>
</event>
<event>
 6    1  0.1274196E-001  0.3000000E+03  0.7818608E-02  0.1093470E+00
         21   -1    0    0  501  502  0.00000000000E+00  0.00000000000E+00  0.39695312234E+01  0.39695312234E+01  0.00000000000E+00 0. -1.
         13   -1    0    0    0    0 -0.00000000000E+00 -0.00000000000E+00 -0.10000000000E+04  0.10000000000E+04  0.00000000000E+00 0.  1.
    9000005    2    1    2  501    0  0.14603873887E+02 -0.59911029774E+02 -0.39695777324E+03  0.40173145607E+03  0.31756012682E+01 0.  0.
         13    1    3    3    0    0  0.38122512916E+01 -0.10538147717E+02 -0.73288942507E+02  0.74140777653E+02  0.00000000000E+00 0.  1.
          3    1    3    3  501    0  0.10791622595E+02 -0.49372882057E+02 -0.32366883073E+03  0.32759067842E+03  0.00000000000E+00 0.  1.
         -3    1    1    2    0  502 -0.14603873887E+02  0.59911029774E+02 -0.59907269554E+03  0.60223807515E+03  0.00000000000E+00 0. -1.
<mgrwt>
<rscale>  1 0.30000000E+03</rscale>
<asrwt>0</asrwt>
<pdfrwt beam="1">  1       21 0.14434689E-01 0.30000000E+03</pdfrwt>
<pdfrwt beam="2">0</pdfrwt>
<totfact> 0.44208129E+03</totfact>
</mgrwt>
</event>
<event>
 6    1  0.1274196E-001  0.3000000E+03  0.7818608E-02  0.1093470E+00
         21   -1    0    0  501  502  0.00000000000E+00  0.00000000000E+00  0.20921057899E+01  0.20921057899E+01  0.00000000000E+00 0. -1.
         13   -1    0    0    0    0 -0.00000000000E+00 -0.00000000000E+00 -0.10000000000E+04  0.10000000000E+04  0.00000000000E+00 0.  1.
    9000005    2    1    2  501    0 -0.32892772248E+02 -0.78169493553E+01 -0.83610838553E+03  0.83679806424E+03  0.32754840046E+01 0.  0.
         13    1    3    3    0    0 -0.26284912451E+01 -0.10057974390E+00 -0.84779215737E+02  0.84820012400E+02  0.00000000000E+00 0.  1.
          1    1    3    3  501    0 -0.30264281003E+02 -0.77163696114E+01 -0.75132916980E+03  0.75197805184E+03  0.00000000000E+00 0.  1.
         -1    1    1    2    0  502  0.32892772248E+02  0.78169493553E+01 -0.16179950868E+03  0.16529404155E+03  0.00000000000E+00 0. -1.
<mgrwt>
<rscale>  1 0.30000000E+03</rscale>
<asrwt>0</asrwt>
<pdfrwt beam="1">  1       21 0.76076735E-02 0.30000000E+03</pdfrwt>
<pdfrwt beam="2">0</pdfrwt>
<totfact> 0.13951769E+04</totfact>
</mgrwt>
</event>
<event>
 6    1  0.1274196E-001  0.3000000E+03  0.7818608E-02  0.1093470E+00
         21   -1    0    0  501  502  0.00000000000E+00  0.00000000000E+00  0.15993392444E+01  0.15993392444E+01  0.00000000000E+00 0. -1.
         13   -1    0    0    0    0 -0.00000000000E+00 -0.00000000000E+00 -0.10000000000E+04  0.10000000000E+04  0.00000000000E+00 0.  1.
    9000005    2    1    2  501    0 -0.35402531268E+02  0.16567833722E+02 -0.60221354569E+03  0.60348872336E+03  0.31068115393E+01 0.  0.
         13    1    3    3    0    0 -0.31745139593E+02  0.13756419775E+02 -0.53092483441E+03  0.53205091182E+03  0.00000000000E+00 0.  1.
          1    1    3    3  501    0 -0.36573916754E+01  0.28114139466E+01 -0.71288711279E+02  0.71437811544E+02  0.00000000000E+00 0.  1.
         -1    1    1    2    0  502  0.35402531268E+02 -0.16567833722E+02 -0.39618711507E+03  0.39811061588E+03  0.00000000000E+00 0. -1.
<mgrwt>
<rscale>  1 0.30000000E+03</rscale>
<asrwt>0</asrwt>
<pdfrwt beam="1">  1       21 0.58157913E-02 0.30000000E+03</pdfrwt>
<pdfrwt beam="2">0</pdfrwt>
<totfact> 0.22235201E+04</totfact>
</mgrwt>
</event>
<event>
 6    1  0.1274196E-001  0.3000000E+03  0.7818608E-02  0.1093470E+00
         21   -1    0    0  501  502  0.00000000000E+00  0.00000000000E+00  0.60090733400E+01  0.60090733400E+01  0.00000000000E+00 0. -1.
         13   -1    0    0    0    0 -0.00000000000E+00 -0.00000000000E+00 -0.10000000000E+04  0.10000000000E+04  0.00000000000E+00 0.  1.
    9000005    2    1    2  501    0  0.44151111013E+02  0.24093750410E+02 -0.87969872056E+03  0.88113898971E+03  0.25001609959E+01 0.  0.
         13    1    3    3    0    0  0.43559098314E+02  0.23778630111E+02 -0.87204050244E+03  0.87345146184E+03  0.00000000000E+00 0.  1.
          3    1    3    3  501    0  0.59201269973E+00  0.31512029872E+00 -0.76582181235E+01  0.76875278645E+01  0.00000000000E+00 0.  1.
         -1    1    1    2    0  502 -0.44151111013E+02 -0.24093750410E+02 -0.11429220610E+03  0.12487008363E+03  0.00000000000E+00 0. -1.
<mgrwt>
<rscale>  1 0.30000000E+03</rscale>
<asrwt>0</asrwt>
<pdfrwt beam="1">  1       21 0.21851222E-01 0.30000000E+03</pdfrwt>
<pdfrwt beam="2">0</pdfrwt>
<totfact> 0.20248668E+03</totfact>
</mgrwt>
</event>
<event>
 6    1  0.1274196E-001  0.3000000E+03  0.7818608E-02  0.1093470E+00
         21   -1    0    0  501  502  0.00000000000E+00  0.00000000000E+00  0.12412865383E+02  0.12412865383E+02  0.00000000000E+00 0. -1.
         13   -1    0    0    0    0 -0.00000000000E+00 -0.00000000000E+00 -0.10000000000E+04  0.10000000000E+04  0.00000000000E+00 0.  1.
    9000005    2    1    2  501    0 -0.33785807753E+02 -0.29296602423E+00 -0.97615437902E+03  0.97674390780E+03  0.31181890000E+01 0.  0.
         13    1    3    3    0    0 -0.16116634626E+02  0.13629621972E+01 -0.47724759862E+03  0.47752159529E+03  0.00000000000E+00 0.  1.
          3    1    3    3  501    0 -0.17669173127E+02 -0.16559282214E+01 -0.49890678040E+03  0.49922231251E+03  0.00000000000E+00 0.  1.
         -3    1    1    2    0  502  0.33785807753E+02  0.29296602423E+00 -0.11432755593E+02  0.35668957583E+02  0.00000000000E+00 0. -1.
<mgrwt>
<rscale>  1 0.30000000E+03</rscale>
<asrwt>0</asrwt>
<pdfrwt beam="1">  1       21 0.45137787E-01 0.30000000E+03</pdfrwt>
<pdfrwt beam="2">0</pdfrwt>
<totfact> 0.46803658E+02</totfact>
</mgrwt>
</event>
<event>
 6    1  0.1274196E-001  0.3000000E+03  0.7818608E-02  0.1093470E+00
         21   -1    0    0  501  502  0.00000000000E+00  0.00000000000E+00  0.10521275608E+02  0.10521275608E+02  0.00000000000E+00 0. -1.
         13   -1    0    0    0    0 -0.00000000000E+00 -0.00000000000E+00 -0.10000000000E+04  0.10000000000E+04  0.00000000000E+00 0.  1.
    9000005    2    1    2  501    0 -0.10241362545E+03  0.54524385368E+01 -0.50202241738E+03  0.51239284738E+03  0.12816899117E+01 0.  0.
         13    1    3    3    0    0 -0.34216948873E+02  0.24260970299E+01 -0.16808388027E+03  0.17154846646E+03  0.00000000000E+00 0.  1.
          1    1    3    3  501    0 -0.68196676581E+02  0.30263415069E+01 -0.33393853711E+03  0.34084438092E+03  0.00000000000E+00 0.  1.
         -1    1    1    2    0  502  0.10241362545E+03 -0.54524385368E+01 -0.48745630702E+03  0.49812842823E+03  0.00000000000E+00 0. -1.
<mgrwt>
<rscale>  1 0.30000000E+03</rscale>
<asrwt>0</asrwt>
<pdfrwt beam="1">  1       21 0.38259265E-01 0.30000000E+03</pdfrwt>
<pdfrwt beam="2">0</pdfrwt>
<totfact> 0.66256931E+02</totfact>
</mgrwt>
</event>
<event>
 6    1  0.1274196E-001  0.3000000E+03  0.7818608E-02  0.1093470E+00
         21   -1    0    0  501  502  0.00000000000E+00  0.00000000000E+00  0.11339767670E+01  0.11339767670E+01  0.00000000000E+00 0. -1.
         13   -1    0    0    0    0 -0.00000000000E+00 -0.00000000000E+00 -0.10000000000E+04  0.10000000000E+04  0.00000000000E+00 0.  1.
    9000005    2    1    2  501    0  0.19359104277E+00 -0.31000942837E+02 -0.30672344676E+03  0.30829745774E+03  0.26369908731E+01 0.  0.
         13    1    3    3    0    0  0.11837582796E+01 -0.20578733857E+02 -0.20987654777E+03  0.21088634587E+03  0.00000000000E+00 0.  1.
          3    1    3    3  501    0 -0.99016723680E+00 -0.10422208979E+02 -0.96846898990E+02  0.97411111867E+02  0.00000000000E+00 0.  1.
         -3    1    1    2    0  502 -0.19359104277E+00  0.31000942837E+02 -0.69214257647E+03  0.69283651903E+03  0.00000000000E+00 0. -1.
<mgrwt>
<rscale>  1 0.30000000E+03</rscale>
<asrwt>0</asrwt>
<pdfrwt beam="1">  1       21 0.41235606E-02 0.30000000E+03</pdfrwt>
<pdfrwt beam="2">0</pdfrwt>
<totfact> 0.39945737E+04</totfact>
</mgrwt>
</event>
<event>
 6    1  0.1274196E-001  0.3000000E+03  0.7818608E-02  0.1093470E+00
         21   -1    0    0  501  502  0.00000000000E+00  0.00000000000E+00  0.24171559778E+01  0.24171559778E+01  0.00000000000E+00 0. -1.
         13   -1    0    0    0    0 -0.00000000000E+00 -0.00000000000E+00 -0.10000000000E+04  0.10000000000E+04  0.00000000000E+00 0.  1.
    9000005    2    1    2  501    0 -0.25886543901E+01 -0.31829168021E+02 -0.87968686375E+03  0.88027273640E+03  0.33637976709E+01 0.  0.
         13    1    3    3    0    0 -0.30235652321E+01 -0.31164193682E+02 -0.86037679290E+03  0.86094632509E+03  0.00000000000E+00 0.  1.
          3    1    3    3  501    0  0.43491084193E+00 -0.66497433982E+00 -0.19310070845E+02  0.19326411316E+02  0.00000000000E+00 0.  1.
         -3    1    1    2    0  502  0.25886543901E+01  0.31829168021E+02 -0.11789598027E+03  0.12214441957E+03  0.00000000000E+00 0. -1.
<mgrwt>
<rscale>  1 0.30000000E+03</rscale>
<asrwt>0</asrwt>
<pdfrwt beam="1">  1       21 0.87896766E-02 0.30000000E+03</pdfrwt>
<pdfrwt beam="2">0</pdfrwt>
<totfact> 0.10821628E+04</totfact>
</mgrwt>
</event>
<event>
 6    1  0.1274196E-001  0.3000000E+03  0.7818608E-02  0.1093470E+00
         21   -1    0    0  501  502  0.00000000000E+00  0.00000000000E+00  0.15216173266E+01  0.15216173266E+01  0.00000000000E+00 0. -1.
         13   -1    0    0    0    0 -0.00000000000E+00 -0.00000000000E+00 -0.10000000000E+04  0.10000000000E+04  0.00000000000E+00 0.  1.
    9000005    2    1    2  501    0  0.34571449894E+02  0.13578692161E+02 -0.64930398918E+03  0.65037731209E+03  0.39257722669E+01 0.  0.
         13    1    3    3    0    0  0.24873939350E+02  0.11072858823E+02 -0.49557537014E+03  0.49632274636E+03  0.00000000000E+00 0.  1.
          3    1    3    3  501    0  0.96975105437E+01  0.25058333380E+01 -0.15372861904E+03  0.15405456573E+03  0.00000000000E+00 0.  1.
         -3    1    1    2    0  502 -0.34571449894E+02 -0.13578692161E+02 -0.34917439349E+03  0.35114430524E+03  0.00000000000E+00 0. -1.
<mgrwt>
<rscale>  1 0.30000000E+03</rscale>
<asrwt>0</asrwt>
<pdfrwt beam="1">  1       21 0.55331656E-02 0.30000000E+03</pdfrwt>
<pdfrwt beam="2">0</pdfrwt>
<totfact> 0.24223095E+04</totfact>
</mgrwt>
</event>
<event>
 6    1  0.1274196E-001  0.3000000E+03  0.7818608E-02  0.1093470E+00
         21   -1    0    0  501  502  0.00000000000E+00  0.00000000000E+00  0.96659006819E+00  0.96659006819E+00  0.00000000000E+00 0. -1.
         13   -1    0    0    0    0 -0.00000000000E+00 -0.00000000000E+00 -0.10000000000E+04  0.10000000000E+04  0.00000000000E+00 0.  1.
    9000005    2    1    2  501    0  0.19172235163E+02 -0.24324560542E+02 -0.50047682117E+03  0.50144889164E+03  0.38319121017E+01 0.  0.
         13    1    3    3    0    0  0.17201968758E+02 -0.20970668886E+02 -0.45404945881E+03  0.45485886572E+03  0.00000000000E+00 0.  1.
          3    1    3    3  501    0  0.19702664051E+01 -0.33538916558E+01 -0.46427362366E+02  0.46590025920E+02  0.00000000000E+00 0.  1.
         -1    1    1    2    0  502 -0.19172235163E+02  0.24324560542E+02 -0.49855658876E+03  0.49951769843E+03  0.00000000000E+00 0. -1.
<mgrwt>
<rscale>  1 0.30000000E+03</rscale>
<asrwt>0</asrwt>
<pdfrwt beam="1">  1       21 0.35148804E-02 0.30000000E+03</pdfrwt>
<pdfrwt beam="2">0</pdfrwt>
<totfact> 0.52244286E+04</totfact>
</mgrwt>
</event>
<event>
 6    1  0.1274196E-001  0.3000000E+03  0.7818608E-02  0.1093470E+00
         21   -1    0    0  501  502  0.00000000000E+00  0.00000000000E+00  0.33615397342E+01  0.33615397342E+01  0.00000000000E+00 0. -1.
         13   -1    0    0    0    0 -0.00000000000E+00 -0.00000000000E+00 -0.10000000000E+04  0.10000000000E+04  0.00000000000E+00 0.  1.
    9000005    2    1    2  501    0 -0.16054857479E+02  0.39037148561E+02 -0.84007586476E+03  0.84120882244E+03  0.11098061588E+02 0.  0.
         13    1    3    3    0    0 -0.76177696996E+01  0.27497809149E+02 -0.63103517315E+03  0.63167994243E+03  0.00000000000E+00 0.  1.
          3    1    3    3  501    0 -0.84370877793E+01  0.11539339412E+02 -0.20904069162E+03  0.20952888000E+03  0.00000000000E+00 0.  1.
         -1    1    1    2    0  502  0.16054857479E+02 -0.39037148561E+02 -0.15656259550E+03  0.16215271730E+03  0.00000000000E+00 0. -1.
<mgrwt>
<rscale>  1 0.30000000E+03</rscale>
<asrwt>0</asrwt>
<pdfrwt beam="1">  1       21 0.12223807E-01 0.30000000E+03</pdfrwt>
<pdfrwt beam="2">0</pdfrwt>
<totfact> 0.59925094E+03</totfact>
</mgrwt>
</event>
<event>
 6    1  0.1274196E-001  0.3000000E+03  0.7818608E-02  0.1093470E+00
         21   -1    0    0  501  502  0.00000000000E+00  0.00000000000E+00  0.35139514477E+01  0.35139514477E+01  0.00000000000E+00 0. -1.
         13   -1    0    0    0    0 -0.00000000000E+00 -0.00000000000E+00 -0.10000000000E+04  0.10000000000E+04  0.00000000000E+00 0.  1.
    9000005    2    1    2  501    0  0.25371854773E+02 -0.21518768712E+02 -0.91344620356E+03  0.91405779303E+03  0.33005742362E+01 0.  0.
         13    1    3    3    0    0  0.24003595101E+02 -0.19394726571E+02 -0.85589920049E+03  0.85645535166E+03  0.00000000000E+00 0.  1.
          1    1    3    3  501    0  0.13682596716E+01 -0.21240421404E+01 -0.57547003068E+02  0.57602441369E+02  0.00000000000E+00 0.  1.
         -1    1    1    2    0  502 -0.25371854773E+02  0.21518768712E+02 -0.83039844997E+02  0.89456158416E+02  0.00000000000E+00 0. -1.
<mgrwt>
<rscale>  1 0.30000000E+03</rscale>
<asrwt>0</asrwt>
<pdfrwt beam="1">  1       21 0.12778032E-01 0.30000000E+03</pdfrwt>
<pdfrwt beam="2">0</pdfrwt>
<totfact> 0.55275571E+03</totfact>
</mgrwt>
</event>
<event>
 6    1  0.1274196E-001  0.3000000E+03  0.7818608E-02  0.1093470E+00
         21   -1    0    0  501  502  0.00000000000E+00  0.00000000000E+00  0.34653865323E+01  0.34653865323E+01  0.00000000000E+00 0. -1.
         13   -1    0    0    0    0 -0.00000000000E+00 -0.00000000000E+00 -0.10000000000E+04  0.10000000000E+04  0.00000000000E+00 0.  1.
    9000005    2    1    2  501    0 -0.40423777802E+02 -0.42580281677E+02 -0.47005736417E+03  0.47372445341E+03  0.37107878758E+01 0.  0.
         13    1    3    3    0    0 -0.20914501194E+02 -0.19690884840E+02 -0.22222885521E+03  0.22407769054E+03  0.00000000000E+00 0.  1.
          1    1    3    3  501    0 -0.19509276609E+02 -0.22889396837E+02 -0.24782850896E+03  0.24964676287E+03  0.00000000000E+00 0.  1.
         -3    1    1    2    0  502  0.40423777802E+02  0.42580281677E+02 -0.52647724930E+03  0.52974093312E+03  0.00000000000E+00 0. -1.
<mgrwt>
<rscale>  1 0.30000000E+03</rscale>
<asrwt>0</asrwt>
<pdfrwt beam="1">  1       21 0.12601432E-01 0.30000000E+03</pdfrwt>
<pdfrwt beam="2">0</pdfrwt>
<totfact> 0.56695988E+03</totfact>
</mgrwt>
</event>
<event>
 6    1  0.1274196E-001  0.3000000E+03  0.7818608E-02  0.1093470E+00
         21   -1    0    0  501  502  0.00000000000E+00  0.00000000000E+00  0.13297989111E+01  0.13297989111E+01  0.00000000000E+00 0. -1.
         13   -1    0    0    0    0 -0.00000000000E+00 -0.00000000000E+00 -0.10000000000E+04  0.10000000000E+04  0.00000000000E+00 0.  1.
    9000005    2    1    2  501    0  0.18112928207E+02  0.31485202331E+02 -0.49702302164E+03  0.49836927483E+03  0.45446585295E+01 0.  0.
         13    1    3    3    0    0  0.11795987134E+02  0.23024360623E+02 -0.32967954249E+03  0.33069301056E+03  0.00000000000E+00 0.  1.
          1    1    3    3  501    0  0.63169410732E+01  0.84608417084E+01 -0.16734347915E+03  0.16767626427E+03  0.00000000000E+00 0.  1.
         -1    1    1    2    0  502 -0.18112928207E+02 -0.31485202331E+02 -0.50164717945E+03  0.50296052408E+03  0.00000000000E+00 0. -1.
<mgrwt>
<rscale>  1 0.30000000E+03</rscale>
<asrwt>0</asrwt>
<pdfrwt beam="1">  1       21 0.48356426E-02 0.30000000E+03</pdfrwt>
<pdfrwt beam="2">0</pdfrwt>
<totfact> 0.30492201E+04</totfact>
</mgrwt>
</event>
<event>
 6    1  0.1274196E-001  0.3000000E+03  0.7818608E-02  0.1093470E+00
         21   -1    0    0  501  502  0.00000000000E+00  0.00000000000E+00  0.14468681077E+01  0.14468681077E+01  0.00000000000E+00 0. -1.
         13   -1    0    0    0    0 -0.00000000000E+00 -0.00000000000E+00 -0.10000000000E+04  0.10000000000E+04  0.00000000000E+00 0.  1.
    9000005    2    1    2  501    0  0.28323769706E+02 -0.10007165742E+02 -0.80584344118E+03  0.80640993778E+03  0.33101002313E+01 0.  0.
         13    1    3    3    0    0  0.13363392812E+02 -0.45833062797E+01 -0.42320428056E+03  0.42344001942E+03  0.00000000000E+00 0.  1.
          3    1    3    3  501    0  0.14960376895E+02 -0.54238594628E+01 -0.38263916062E+03  0.38296991836E+03  0.00000000000E+00 0.  1.
         -1    1    1    2    0  502 -0.28323769706E+02  0.10007165742E+02 -0.19270969071E+03  0.19503693033E+03  0.00000000000E+00 0. -1.
<mgrwt>
<rscale>  1 0.30000000E+03</rscale>
<asrwt>0</asrwt>
<pdfrwt beam="1">  1       21 0.52613497E-02 0.30000000E+03</pdfrwt>
<pdfrwt beam="2">0</pdfrwt>
<totfact> 0.26405277E+04</totfact>
</mgrwt>
</event>
<event>
 6    1  0.1274196E-001  0.3000000E+03  0.7818608E-02  0.1093470E+00
         21   -1    0    0  501  502  0.00000000000E+00  0.00000000000E+00  0.10114583689E+01  0.10114583689E+01  0.00000000000E+00 0. -1.
         13   -1    0    0    0    0 -0.00000000000E+00 -0.00000000000E+00 -0.10000000000E+04  0.10000000000E+04  0.00000000000E+00 0.  1.
    9000005    2    1    2  501    0 -0.30985865211E+02 -0.41877762652E+01 -0.41674639674E+03  0.41793035201E+03  0.32494025789E+01 0.  0.
         13    1    3    3    0    0 -0.67739453371E+01 -0.43601912941E+00 -0.10819568429E+03  0.10840840626E+03  0.00000000000E+00 0.  1.
          3    1    3    3  501    0 -0.24211919873E+02 -0.37517571358E+01 -0.30855071245E+03  0.30952194575E+03  0.00000000000E+00 0.  1.
         -3    1    1    2    0  502  0.30985865211E+02  0.41877762652E+01 -0.58224214489E+03  0.58308110636E+03  0.00000000000E+00 0. -1.
<mgrwt>
<rscale>  1 0.30000000E+03</rscale>
<asrwt>0</asrwt>
<pdfrwt beam="1">  1       21 0.36780382E-02 0.30000000E+03</pdfrwt>
<pdfrwt beam="2">0</pdfrwt>
<totfact> 0.48416779E+04</totfact>
</mgrwt>
</event>
<event>
 6    1  0.1274196E-001  0.3000000E+03  0.7818608E-02  0.1093470E+00
         21   -1    0    0  501  502  0.00000000000E+00  0.00000000000E+00  0.15861356694E+01  0.15861356694E+01  0.00000000000E+00 0. -1.
         13   -1    0    0    0    0 -0.00000000000E+00 -0.00000000000E+00 -0.10000000000E+04  0.10000000000E+04  0.00000000000E+00 0.  1.
    9000005    2    1    2  501    0 -0.32961000319E+02  0.11718203283E+02 -0.73753158501E+03  0.73836891075E+03  0.34735638582E+01 0.  0.
         13    1    3    3    0    0 -0.29872112975E+02  0.10609078213E+02 -0.68688496198E+03  0.68761606051E+03  0.00000000000E+00 0.  1.
          1    1    3    3  501    0 -0.30888873444E+01  0.11091250701E+01 -0.50646623032E+02  0.50752850245E+02  0.00000000000E+00 0.  1.
         -3    1    1    2    0  502  0.32961000319E+02 -0.11718203283E+02 -0.26088227932E+03  0.26321722492E+03  0.00000000000E+00 0. -1.
<mgrwt>
<rscale>  1 0.30000000E+03</rscale>
<asrwt>0</asrwt>
<pdfrwt beam="1">  1       21 0.57677782E-02 0.30000000E+03</pdfrwt>
<pdfrwt beam="2">0</pdfrwt>
<totfact> 0.22554877E+04</totfact>
</mgrwt>
</event>
<event>
 6    1  0.1274196E-001  0.3000000E+03  0.7818608E-02  0.1093470E+00
         21   -1    0    0  501  502  0.00000000000E+00  0.00000000000E+00  0.23327684109E+01  0.23327684109E+01  0.00000000000E+00 0. -1.
         13   -1    0    0    0    0 -0.00000000000E+00 -0.00000000000E+00 -0.10000000000E+04  0.10000000000E+04  0.00000000000E+00 0.  1.
    9000005    2    1    2  501    0 -0.30094770950E+02  0.35939963137E+02 -0.60575730236E+03  0.60762937494E+03  0.86123016194E+01 0.  0.
         13    1    3    3    0    0 -0.22550188610E+02  0.31759805279E+02 -0.50919252705E+03  0.51068016002E+03  0.00000000000E+00 0.  1.
          3    1    3    3  501    0 -0.75445823395E+01  0.41801578574E+01 -0.96564775313E+02  0.96949214920E+02  0.00000000000E+00 0.  1.
         -3    1    1    2    0  502  0.30094770950E+02 -0.35939963137E+02 -0.39190992923E+03  0.39470339347E+03  0.00000000000E+00 0. -1.
<mgrwt>
<rscale>  1 0.30000000E+03</rscale>
<asrwt>0</asrwt>
<pdfrwt beam="1">  1       21 0.84828121E-02 0.30000000E+03</pdfrwt>
<pdfrwt beam="2">0</pdfrwt>
<totfact> 0.11522312E+04</totfact>
</mgrwt>
</event>
<event>
 6    1  0.1274196E-001  0.3000000E+03  0.7818608E-02  0.1093470E+00
         21   -1    0    0  501  502  0.00000000000E+00  0.00000000000E+00  0.10352997380E+01  0.10352997380E+01  0.00000000000E+00 0. -1.
         13   -1    0    0    0    0 -0.00000000000E+00 -0.00000000000E+00 -0.10000000000E+04  0.10000000000E+04  0.00000000000E+00 0.  1.
    9000005    2    1    2  501    0  0.19713894247E+02 -0.24507497580E+02 -0.60093319080E+03  0.60176303976E+03  0.29666734097E+01 0.  0.
         13    1    3    3    0    0  0.16279933891E+02 -0.19276862893E+02 -0.46090125349E+03  0.46159137682E+03  0.00000000000E+00 0.  1.
          1    1    3    3  501    0  0.34339603553E+01 -0.52306346869E+01 -0.14003193731E+03  0.14017166294E+03  0.00000000000E+00 0.  1.
         -1    1    1    2    0  502 -0.19713894247E+02  0.24507497580E+02 -0.39803150946E+03  0.39927225998E+03  0.00000000000E+00 0. -1.
<mgrwt>
<rscale>  1 0.30000000E+03</rscale>
<asrwt>0</asrwt>
<pdfrwt beam="1">  1       21 0.37647343E-02 0.30000000E+03</pdfrwt>
<pdfrwt beam="2">0</pdfrwt>
<totfact> 0.46559635E+04</totfact>
</mgrwt>
</event>
<event>
 6    1  0.1274196E-001  0.3000000E+03  0.7818608E-02  0.1093470E+00
         21   -1    0    0  501  502  0.00000000000E+00  0.00000000000E+00  0.26689987512E+01  0.26689987512E+01  0.00000000000E+00 0. -1.
         13   -1    0    0    0    0 -0.00000000000E+00 -0.00000000000E+00 -0.10000000000E+04  0.10000000000E+04  0.00000000000E+00 0.  1.
    9000005    2    1    2  501    0  0.39845823335E+02 -0.30992526850E+02 -0.60359721038E+03  0.60571242124E+03  0.31174521124E+01 0.  0.
         13    1    3    3    0    0  0.19796622844E+02 -0.13820732527E+02 -0.29955835948E+03  0.30052974837E+03  0.00000000000E+00 0.  1.
          3    1    3    3  501    0  0.20049200492E+02 -0.17171794323E+02 -0.30403885090E+03  0.30518267287E+03  0.00000000000E+00 0.  1.
         -1    1    1    2    0  502 -0.39845823335E+02  0.30992526850E+02 -0.39373379087E+03  0.39695657751E+03  0.00000000000E+00 0. -1.
<mgrwt>
<rscale>  1 0.30000000E+03</rscale>
<asrwt>0</asrwt>
<pdfrwt beam="1">  1       21 0.97054705E-02 0.30000000E+03</pdfrwt>
<pdfrwt beam="2">0</pdfrwt>
<totfact> 0.90748467E+03</totfact>
</mgrwt>
</event>
<event>
 6    1  0.1274196E-001  0.3000000E+03  0.7818608E-02  0.1093470E+00
         21   -1    0    0  501  502  0.00000000000E+00  0.00000000000E+00  0.17064886931E+01  0.17064886931E+01  0.00000000000E+00 0. -1.
         13   -1    0    0    0    0 -0.00000000000E+00 -0.00000000000E+00 -0.10000000000E+04  0.10000000000E+04  0.00000000000E+00 0.  1.
    9000005    2    1    2  501    0 -0.45497377088E+01  0.39045208338E+02 -0.65147948435E+03  0.65267182322E+03  0.31244023330E+01 0.  0.
         13    1    3    3    0    0 -0.22437992703E+00  0.14798852027E+02 -0.24887145018E+03  0.24931116117E+03  0.00000000000E+00 0.  1.
          3    1    3    3  501    0 -0.43253577818E+01  0.24246356311E+02 -0.40260803416E+03  0.40336066205E+03  0.00000000000E+00 0.  1.
         -1    1    1    2    0  502  0.45497377088E+01 -0.39045208338E+02 -0.34681402696E+03  0.34903466548E+03  0.00000000000E+00 0. -1.
<mgrwt>
<rscale>  1 0.30000000E+03</rscale>
<asrwt>0</asrwt>
<pdfrwt beam="1">  1       21 0.62054265E-02 0.30000000E+03</pdfrwt>
<pdfrwt beam="2">0</pdfrwt>
<totfact> 0.19882276E+04</totfact>
</mgrwt>
</event>
<event>
 6    1  0.1274196E-001  0.3000000E+03  0.7818608E-02  0.1093470E+00
         21   -1    0    0  501  502  0.00000000000E+00  0.00000000000E+00  0.37658678430E+01  0.37658678430E+01  0.00000000000E+00 0. -1.
         13   -1    0    0    0    0 -0.00000000000E+00 -0.00000000000E+00 -0.10000000000E+04  0.10000000000E+04  0.00000000000E+00 0.  1.
    9000005    2    1    2  501    0  0.17043965648E+02  0.35842375443E+02 -0.88080128792E+03  0.88170066325E+03  0.31588195424E+01 0.  0.
         13    1    3    3    0    0  0.77970070989E+01  0.19033607717E+02 -0.43133890528E+03  0.43182904343E+03  0.00000000000E+00 0.  1.
          3    1    3    3  501    0  0.92469585492E+01  0.16808767727E+02 -0.44946238264E+03  0.44987161982E+03  0.00000000000E+00 0.  1.
         -1    1    1    2    0  502 -0.17043965648E+02 -0.35842375443E+02 -0.11543284424E+03  0.12206520459E+03  0.00000000000E+00 0. -1.
<mgrwt>
<rscale>  1 0.30000000E+03</rscale>
<asrwt>0</asrwt>
<pdfrwt beam="1">  1       21 0.13694094E-01 0.30000000E+03</pdfrwt>
<pdfrwt beam="2">0</pdfrwt>
<totfact> 0.48702172E+03</totfact>
</mgrwt>
</event>
<event>
 6    1  0.1274196E-001  0.3000000E+03  0.7818608E-02  0.1093470E+00
         21   -1    0    0  501  502  0.00000000000E+00  0.00000000000E+00  0.30232981060E+01  0.30232981060E+01  0.00000000000E+00 0. -1.
         13   -1    0    0    0    0 -0.00000000000E+00 -0.00000000000E+00 -0.10000000000E+04  0.10000000000E+04  0.00000000000E+00 0.  1.
    9000005    2    1    2  501    0 -0.49915924758E+02  0.55437513120E+01 -0.70189928654E+03  0.70370237706E+03  0.34776879248E+01 0.  0.
         13    1    3    3    0    0 -0.24550050352E+02  0.10864786624E+01 -0.33428069861E+03  0.33518274251E+03  0.00000000000E+00 0.  1.
          3    1    3    3  501    0 -0.25365874406E+02  0.44572726496E+01 -0.36761858793E+03  0.36851963456E+03  0.00000000000E+00 0.  1.
         -1    1    1    2    0  502  0.49915924758E+02 -0.55437513120E+01 -0.29507741535E+03  0.29932092104E+03  0.00000000000E+00 0. -1.
<mgrwt>
<rscale>  1 0.30000000E+03</rscale>
<asrwt>0</asrwt>
<pdfrwt beam="1">  1       21 0.10993834E-01 0.30000000E+03</pdfrwt>
<pdfrwt beam="2">0</pdfrwt>
<totfact> 0.72593414E+03</totfact>
</mgrwt>
</event>
<event>
 6    1  0.1274196E-001  0.3000000E+03  0.7818608E-02  0.1093470E+00
         21   -1    0    0  501  502  0.00000000000E+00  0.00000000000E+00  0.61199696998E+01  0.61199696998E+01  0.00000000000E+00 0. -1.
         13   -1    0    0    0    0 -0.00000000000E+00 -0.00000000000E+00 -0.10000000000E+04  0.10000000000E+04  0.00000000000E+00 0.  1.
    9000005    2    1    2  501    0  0.12574831490E+02 -0.33189878598E+02 -0.94521015287E+03  0.94588334133E+03  0.36562123424E+01 0.  0.
         13    1    3    3    0    0  0.64696193335E+01 -0.13227104094E+02 -0.42248649546E+03  0.42274300834E+03  0.00000000000E+00 0.  1.
          3    1    3    3  501    0  0.61052121564E+01 -0.19962774505E+02 -0.52272365741E+03  0.52314033298E+03  0.00000000000E+00 0.  1.
         -1    1    1    2    0  502 -0.12574831490E+02  0.33189878598E+02 -0.48669877434E+02  0.60236628373E+02  0.00000000000E+00 0. -1.
<mgrwt>
<rscale>  1 0.30000000E+03</rscale>
<asrwt>0</asrwt>
<pdfrwt beam="1">  1       21 0.22254482E-01 0.30000000E+03</pdfrwt>
<pdfrwt beam="2">0</pdfrwt>
<totfact> 0.19547973E+03</totfact>
</mgrwt>
</event>
<event>
 6    1  0.1274196E-001  0.3000000E+03  0.7818608E-02  0.1093470E+00
         21   -1    0    0  501  502  0.00000000000E+00  0.00000000000E+00  0.13337765160E+01  0.13337765160E+01  0.00000000000E+00 0. -1.
         13   -1    0    0    0    0 -0.00000000000E+00 -0.00000000000E+00 -0.10000000000E+04  0.10000000000E+04  0.00000000000E+00 0.  1.
    9000005    2    1    2  501    0  0.30186995545E+02  0.16572269836E+02 -0.66379995569E+03  0.66470146652E+03  0.34298091768E+01 0.  0.
         13    1    3    3    0    0  0.70370539293E+01  0.40108697118E+01 -0.12995620945E+03  0.13020838521E+03  0.00000000000E+00 0.  1.
          1    1    3    3  501    0  0.23149941616E+02  0.12561400125E+02 -0.53384374624E+03  0.53449308131E+03  0.00000000000E+00 0.  1.
         -1    1    1    2    0  502 -0.30186995545E+02 -0.16572269836E+02 -0.33486626780E+03  0.33663231000E+03  0.00000000000E+00 0. -1.
<mgrwt>
<rscale>  1 0.30000000E+03</rscale>
<asrwt>0</asrwt>
<pdfrwt beam="1">  1       21 0.48501066E-02 0.30000000E+03</pdfrwt>
<pdfrwt beam="2">0</pdfrwt>
<totfact> 0.30337572E+04</totfact>
</mgrwt>
</event>
<event>
 6    1  0.1274196E-001  0.3000000E+03  0.7818608E-02  0.1093470E+00
         21   -1    0    0  501  502  0.00000000000E+00  0.00000000000E+00  0.49131556304E+01  0.49131556304E+01  0.00000000000E+00 0. -1.
         13   -1    0    0    0    0 -0.00000000000E+00 -0.00000000000E+00 -0.10000000000E+04  0.10000000000E+04  0.00000000000E+00 0.  1.
    9000005    2    1    2  501    0 -0.30072984704E+02 -0.12405920605E+02 -0.94223459770E+03  0.94285148265E+03  0.10226923185E+02 0.  0.
         13    1    3    3    0    0 -0.21863587627E+02 -0.90448874245E+01 -0.79342953245E+03  0.79378224307E+03  0.00000000000E+00 0.  1.
          3    1    3    3  501    0 -0.82093970770E+01 -0.33610331807E+01 -0.14880506525E+03  0.14906923958E+03  0.00000000000E+00 0.  1.
         -1    1    1    2    0  502  0.30072984704E+02  0.12405920605E+02 -0.52852246672E+02  0.62061672982E+02  0.00000000000E+00 0. -1.
<mgrwt>
<rscale>  1 0.30000000E+03</rscale>
<asrwt>0</asrwt>
<pdfrwt beam="1">  1       21 0.17866058E-01 0.30000000E+03</pdfrwt>
<pdfrwt beam="2">0</pdfrwt>
<totfact> 0.29710377E+03</totfact>
</mgrwt>
</event>
<event>
 6    1  0.1274196E-001  0.3000000E+03  0.7818608E-02  0.1093470E+00
         21   -1    0    0  501  502  0.00000000000E+00  0.00000000000E+00  0.98378151257E+00  0.98378151257E+00  0.00000000000E+00 0. -1.
         13   -1    0    0    0    0 -0.00000000000E+00 -0.00000000000E+00 -0.10000000000E+04  0.10000000000E+04  0.00000000000E+00 0.  1.
    9000005    2    1    2  501    0 -0.16045161309E+01  0.30621907547E+02 -0.60091425552E+03  0.60170261665E+03  0.27965523416E+01 0.  0.
         13    1    3    3    0    0  0.48436174463E+00  0.46402874486E+01 -0.10556902703E+03  0.10567206983E+03  0.00000000000E+00 0.  1.
          3    1    3    3  501    0 -0.20888778755E+01  0.25981620098E+02 -0.49534522849E+03  0.49603054682E+03  0.00000000000E+00 0.  1.
         -3    1    1    2    0  502  0.16045161309E+01 -0.30621907547E+02 -0.39810196297E+03  0.39928116486E+03  0.00000000000E+00 0. -1.
<mgrwt>
<rscale>  1 0.30000000E+03</rscale>
<asrwt>0</asrwt>
<pdfrwt beam="1">  1       21 0.35773949E-02 0.30000000E+03</pdfrwt>
<pdfrwt beam="2">0</pdfrwt>
<totfact> 0.50723237E+04</totfact>
</mgrwt>
</event>
<event>
 6    1  0.1274196E-001  0.3000000E+03  0.7818608E-02  0.1093470E+00
         21   -1    0    0  501  502  0.00000000000E+00  0.00000000000E+00  0.20226471259E+01  0.20226471259E+01  0.00000000000E+00 0. -1.
         13   -1    0    0    0    0 -0.00000000000E+00 -0.00000000000E+00 -0.10000000000E+04  0.10000000000E+04  0.00000000000E+00 0.  1.
    9000005    2    1    2  501    0 -0.26448794272E+02 -0.33532999420E+02 -0.65530239259E+03  0.65669652710E+03  0.22588046481E+01 0.  0.
         13    1    3    3    0    0 -0.88846437124E+01 -0.13016456617E+02 -0.23996280771E+03  0.24047975824E+03  0.00000000000E+00 0.  1.
          1    1    3    3  501    0 -0.17564150559E+02 -0.20516542804E+02 -0.41533958488E+03  0.41621676886E+03  0.00000000000E+00 0.  1.
         -3    1    1    2    0  502  0.26448794272E+02  0.33532999420E+02 -0.34267496028E+03  0.34532612003E+03  0.00000000000E+00 0. -1.
<mgrwt>
<rscale>  1 0.30000000E+03</rscale>
<asrwt>0</asrwt>
<pdfrwt beam="1">  1       21 0.73550960E-02 0.30000000E+03</pdfrwt>
<pdfrwt beam="2">0</pdfrwt>
<totfact> 0.14801179E+04</totfact>
</mgrwt>
</event>
<event>
 6    1  0.1274196E-001  0.3000000E+03  0.7818608E-02  0.1093470E+00
         21   -1    0    0  501  502  0.00000000000E+00  0.00000000000E+00  0.26496120655E+01  0.26496120655E+01  0.00000000000E+00 0. -1.
         13   -1    0    0    0    0 -0.00000000000E+00 -0.00000000000E+00 -0.10000000000E+04  0.10000000000E+04  0.00000000000E+00 0.  1.
    9000005    2    1    2  501    0  0.15462342021E+02  0.25711519841E+02 -0.90503205945E+03  0.90557829783E+03  0.94264836861E+01 0.  0.
         13    1    3    3    0    0 -0.83499679174E+00  0.11894623434E+01 -0.18330626671E+02  0.18388146031E+02  0.00000000000E+00 0.  1.
          3    1    3    3  501    0  0.16297338813E+02  0.24522057497E+02 -0.88670143278E+03  0.88719015180E+03  0.00000000000E+00 0.  1.
         -3    1    1    2    0  502 -0.15462342021E+02 -0.25711519841E+02 -0.92318328484E+02  0.97071314235E+02  0.00000000000E+00 0. -1.
<mgrwt>
<rscale>  1 0.30000000E+03</rscale>
<asrwt>0</asrwt>
<pdfrwt beam="1">  1       21 0.96349733E-02 0.30000000E+03</pdfrwt>
<pdfrwt beam="2">0</pdfrwt>
<totfact> 0.91936086E+03</totfact>
</mgrwt>
</event>
<event>
 6    1  0.1274196E-001  0.3000000E+03  0.7818608E-02  0.1093470E+00
         21   -1    0    0  501  502  0.00000000000E+00  0.00000000000E+00  0.58503000883E+01  0.58503000883E+01  0.00000000000E+00 0. -1.
         13   -1    0    0    0    0 -0.00000000000E+00 -0.00000000000E+00 -0.10000000000E+04  0.10000000000E+04  0.00000000000E+00 0.  1.
    9000005    2    1    2  501    0  0.31748067170E+02  0.16070818174E+02 -0.94219131724E+03  0.94287503117E+03  0.47576413252E+01 0.  0.
         13    1    3    3    0    0  0.13332215531E+02  0.73235486593E+01 -0.34340176210E+03  0.34373849443E+03  0.00000000000E+00 0.  1.
          1    1    3    3  501    0  0.18415851638E+02  0.87472695149E+01 -0.59878955514E+03  0.59913653674E+03  0.00000000000E+00 0.  1.
         -3    1    1    2    0  502 -0.31748067170E+02 -0.16070818174E+02 -0.51958382672E+02  0.62975268921E+02  0.00000000000E+00 0. -1.
<mgrwt>
<rscale>  1 0.30000000E+03</rscale>
<asrwt>0</asrwt>
<pdfrwt beam="1">  1       21 0.21273863E-01 0.30000000E+03</pdfrwt>
<pdfrwt beam="2">0</pdfrwt>
<totfact> 0.21317820E+03</totfact>
</mgrwt>
</event>
<event>
 6    1  0.1274196E-001  0.3000000E+03  0.7818608E-02  0.1093470E+00
         21   -1    0    0  501  502  0.00000000000E+00  0.00000000000E+00  0.42112820922E+01  0.42112820922E+01  0.00000000000E+00 0. -1.
         13   -1    0    0    0    0 -0.00000000000E+00 -0.00000000000E+00 -0.10000000000E+04  0.10000000000E+04  0.00000000000E+00 0.  1.
    9000005    2    1    2  501    0 -0.54741393182E+02 -0.18435757032E+02 -0.72618085844E+03  0.72848515864E+03  0.39357255414E+01 0.  0.
         13    1    3    3    0    0 -0.44165072762E+02 -0.14602309072E+02 -0.60313211701E+03  0.60492324443E+03  0.00000000000E+00 0.  1.
          3    1    3    3  501    0 -0.10576320420E+02 -0.38334479609E+01 -0.12304874142E+03  0.12356191421E+03  0.00000000000E+00 0.  1.
         -1    1    1    2    0  502  0.54741393182E+02  0.18435757032E+02 -0.26960785947E+03  0.27572612345E+03  0.00000000000E+00 0. -1.
<mgrwt>
<rscale>  1 0.30000000E+03</rscale>
<asrwt>0</asrwt>
<pdfrwt beam="1">  1       21 0.15313785E-01 0.30000000E+03</pdfrwt>
<pdfrwt beam="2">0</pdfrwt>
<totfact> 0.39630277E+03</totfact>
</mgrwt>
</event>
<event>
 6    1  0.1274196E-001  0.3000000E+03  0.7818608E-02  0.1093470E+00
         21   -1    0    0  501  502  0.00000000000E+00  0.00000000000E+00  0.26116527297E+01  0.26116527297E+01  0.00000000000E+00 0. -1.
         13   -1    0    0    0    0 -0.00000000000E+00 -0.00000000000E+00 -0.10000000000E+04  0.10000000000E+04  0.00000000000E+00 0.  1.
    9000005    2    1    2  501    0  0.43265926938E+02 -0.15060221505E+02 -0.27804185176E+03  0.28180784357E+03  0.31046188473E+01 0.  0.
         13    1    3    3    0    0  0.26562154589E+02 -0.78567496069E+01 -0.16310054875E+03  0.16543598633E+03  0.00000000000E+00 0.  1.
          1    1    3    3  501    0  0.16703772349E+02 -0.72034718978E+01 -0.11494130302E+03  0.11637185724E+03  0.00000000000E+00 0.  1.
         -1    1    1    2    0  502 -0.43265926938E+02  0.15060221505E+02 -0.71934649551E+03  0.72080380916E+03  0.00000000000E+00 0. -1.
<mgrwt>
<rscale>  1 0.30000000E+03</rscale>
<asrwt>0</asrwt>
<pdfrwt beam="1">  1       21 0.94969390E-02 0.30000000E+03</pdfrwt>
<pdfrwt beam="2">0</pdfrwt>
<totfact> 0.94331374E+03</totfact>
</mgrwt>
</event>
<event>
 6    1  0.1274196E-001  0.3000000E+03  0.7818608E-02  0.1093470E+00
         21   -1    0    0  501  502  0.00000000000E+00  0.00000000000E+00  0.65762822268E+01  0.65762822268E+01  0.00000000000E+00 0. -1.
         13   -1    0    0    0    0 -0.00000000000E+00 -0.00000000000E+00 -0.10000000000E+04  0.10000000000E+04  0.00000000000E+00 0.  1.
    9000005    2    1    2  501    0  0.29684370674E+02  0.26683104732E+02 -0.93478865396E+03  0.93564518433E+03  0.29888871581E+01 0.  0.
         13    1    3    3    0    0  0.18790128114E+02  0.15034828573E+02 -0.57351282544E+03  0.57401748747E+03  0.00000000000E+00 0.  1.
          1    1    3    3  501    0  0.10894242560E+02  0.11648276159E+02 -0.36127582853E+03  0.36162769686E+03  0.00000000000E+00 0.  1.
         -3    1    1    2    0  502 -0.29684370674E+02 -0.26683104732E+02 -0.58635063811E+02  0.70931097895E+02  0.00000000000E+00 0. -1.
<mgrwt>
<rscale>  1 0.30000000E+03</rscale>
<asrwt>0</asrwt>
<pdfrwt beam="1">  1       21 0.23913804E-01 0.30000000E+03</pdfrwt>
<pdfrwt beam="2">0</pdfrwt>
<totfact> 0.17007683E+03</totfact>
</mgrwt>
</event>
<event>
 6    1  0.1274196E-001  0.3000000E+03  0.7818608E-02  0.1093470E+00
         21   -1    0    0  501  502  0.00000000000E+00  0.00000000000E+00  0.24030218486E+01  0.24030218486E+01  0.00000000000E+00 0. -1.
         13   -1    0    0    0    0 -0.00000000000E+00 -0.00000000000E+00 -0.10000000000E+04  0.10000000000E+04  0.00000000000E+00 0.  1.
    9000005    2    1    2  501    0  0.33881501154E+02  0.31886212018E+02 -0.65553819051E+03  0.65719453290E+03  0.31061589395E+01 0.  0.
         13    1    3    3    0    0  0.30239823358E+02  0.29453210240E+02 -0.60115609069E+03  0.60263636124E+03  0.00000000000E+00 0.  1.
          1    1    3    3  501    0  0.36416777962E+01  0.24330017779E+01 -0.54382099817E+02  0.54558171664E+02  0.00000000000E+00 0.  1.
         -1    1    1    2    0  502 -0.33881501154E+02 -0.31886212018E+02 -0.34205878765E+03  0.34520848895E+03  0.00000000000E+00 0. -1.
<mgrwt>
<rscale>  1 0.30000000E+03</rscale>
<asrwt>0</asrwt>
<pdfrwt beam="1">  1       21 0.87382797E-02 0.30000000E+03</pdfrwt>
<pdfrwt beam="2">0</pdfrwt>
<totfact> 0.10934389E+04</totfact>
</mgrwt>
</event>
<event>
 6    1  0.1274196E-001  0.3000000E+03  0.7818608E-02  0.1093470E+00
         21   -1    0    0  501  502  0.00000000000E+00  0.00000000000E+00  0.20574555336E+01  0.20574555336E+01  0.00000000000E+00 0. -1.
         13   -1    0    0    0    0 -0.00000000000E+00 -0.00000000000E+00 -0.10000000000E+04  0.10000000000E+04  0.00000000000E+00 0.  1.
    9000005    2    1    2  501    0  0.79359226849E+01 -0.39996758638E+02 -0.71732808568E+03  0.71849583251E+03  0.37362095864E+01 0.  0.
         13    1    3    3    0    0  0.12719378731E+00 -0.34336470028E+01 -0.77765683920E+02  0.77841555133E+02  0.00000000000E+00 0.  1.
          1    1    3    3  501    0  0.78087288976E+01 -0.36563111635E+02 -0.63956240176E+03  0.64065427738E+03  0.00000000000E+00 0.  1.
         -1    1    1    2    0  502 -0.79359226849E+01  0.39996758638E+02 -0.28061445879E+03  0.28356162302E+03  0.00000000000E+00 0. -1.
<mgrwt>
<rscale>  1 0.30000000E+03</rscale>
<asrwt>0</asrwt>
<pdfrwt beam="1">  1       21 0.74816723E-02 0.30000000E+03</pdfrwt>
<pdfrwt beam="2">0</pdfrwt>
<totfact> 0.14365869E+04</totfact>
</mgrwt>
</event>
<event>
 6    1  0.1274196E-001  0.3000000E+03  0.7818608E-02  0.1093470E+00
         21   -1    0    0  501  502  0.00000000000E+00  0.00000000000E+00  0.18075428838E+01  0.18075428838E+01  0.00000000000E+00 0. -1.
         13   -1    0    0    0    0 -0.00000000000E+00 -0.00000000000E+00 -0.10000000000E+04  0.10000000000E+04  0.00000000000E+00 0.  1.
    9000005    2    1    2  501    0  0.35773206705E+02 -0.14032706089E+02 -0.71241440108E+03  0.71345751866E+03  0.32730578945E+01 0.  0.
         13    1    3    3    0    0  0.13474481664E+02 -0.61712668773E+01 -0.24971021458E+03  0.25014963014E+03  0.00000000000E+00 0.  1.
          3    1    3    3  501    0  0.22298725040E+02 -0.78614392114E+01 -0.46270418650E+03  0.46330788853E+03  0.00000000000E+00 0.  1.
         -1    1    1    2    0  502 -0.35773206705E+02  0.14032706089E+02 -0.28577805603E+03  0.28835002422E+03  0.00000000000E+00 0. -1.
<mgrwt>
<rscale>  1 0.30000000E+03</rscale>
<asrwt>0</asrwt>
<pdfrwt beam="1">  1       21 0.65728971E-02 0.30000000E+03</pdfrwt>
<pdfrwt beam="2">0</pdfrwt>
<totfact> 0.17999000E+04</totfact>
</mgrwt>
</event>
<event>
 6    1  0.1274196E-001  0.3000000E+03  0.7818608E-02  0.1093470E+00
         21   -1    0    0  501  502  0.00000000000E+00  0.00000000000E+00  0.93132494470E+00  0.93132494470E+00  0.00000000000E+00 0. -1.
         13   -1    0    0    0    0 -0.00000000000E+00 -0.00000000000E+00 -0.10000000000E+04  0.10000000000E+04  0.00000000000E+00 0.  1.
    9000005    2    1    2  501    0  0.21954571157E+02  0.20765584172E+02 -0.44396657672E+03  0.44500727235E+03  0.34552158095E+01 0.  0.
         13    1    3    3    0    0  0.16149815001E+02  0.15434230889E+02 -0.34899092766E+03  0.34970516095E+03  0.00000000000E+00 0.  1.
          3    1    3    3  501    0  0.58047561562E+01  0.53313532836E+01 -0.94975649062E+02  0.95302111397E+02  0.00000000000E+00 0.  1.
         -3    1    1    2    0  502 -0.21954571157E+02 -0.20765584172E+02 -0.55510209833E+03  0.55592405260E+03  0.00000000000E+00 0. -1.
<mgrwt>
<rscale>  1 0.30000000E+03</rscale>
<asrwt>0</asrwt>
<pdfrwt beam="1">  1       21 0.33866433E-02 0.30000000E+03</pdfrwt>
<pdfrwt beam="2">0</pdfrwt>
<totfact> 0.55595469E+04</totfact>
</mgrwt>
</event>
<event>
 6    1  0.1274196E-001  0.3000000E+03  0.7818608E-02  0.1093470E+00
         21   -1    0    0  501  502  0.00000000000E+00  0.00000000000E+00  0.16271599433E+01  0.16271599433E+01  0.00000000000E+00 0. -1.
         13   -1    0    0    0    0 -0.00000000000E+00 -0.00000000000E+00 -0.10000000000E+04  0.10000000000E+04  0.00000000000E+00 0.  1.
    9000005    2    1    2  501    0 -0.87213113087E+01 -0.28878808898E+02 -0.83120779927E+03  0.83176192590E+03  0.33836283124E+01 0.  0.
         13    1    3    3    0    0 -0.71953534321E+01 -0.26794740096E+02 -0.74956282817E+03  0.75007610586E+03  0.00000000000E+00 0.  1.
          1    1    3    3  501    0 -0.15259578766E+01 -0.20840688024E+01 -0.81644971099E+02  0.81685820042E+02  0.00000000000E+00 0.  1.
         -3    1    1    2    0  502  0.87213113087E+01  0.28878808898E+02 -0.16716504079E+03  0.16986523404E+03  0.00000000000E+00 0. -1.
<mgrwt>
<rscale>  1 0.30000000E+03</rscale>
<asrwt>0</asrwt>
<pdfrwt beam="1">  1       21 0.59169577E-02 0.30000000E+03</pdfrwt>
<pdfrwt beam="2">0</pdfrwt>
<totfact> 0.21584149E+04</totfact>
</mgrwt>
</event>
<event>
 6    1  0.1274196E-001  0.3000000E+03  0.7818608E-02  0.1093470E+00
         21   -1    0    0  501  502  0.00000000000E+00  0.00000000000E+00  0.32774388340E+01  0.32774388340E+01  0.00000000000E+00 0. -1.
         13   -1    0    0    0    0 -0.00000000000E+00 -0.00000000000E+00 -0.10000000000E+04  0.10000000000E+04  0.00000000000E+00 0.  1.
    9000005    2    1    2  501    0  0.31085479099E+01  0.39050725469E+02 -0.86401875561E+03  0.86491226172E+03  0.31918946543E+01 0.  0.
         13    1    3    3    0    0  0.19569761069E+01  0.33270301514E+02 -0.75294069715E+03  0.75367793927E+03  0.00000000000E+00 0.  1.
          1    1    3    3  501    0  0.11515718030E+01  0.57804239552E+01 -0.11107805846E+03  0.11123432245E+03  0.00000000000E+00 0.  1.
         -1    1    1    2    0  502 -0.31085479099E+01 -0.39050725469E+02 -0.13270380556E+03  0.13836517712E+03  0.00000000000E+00 0. -1.
<mgrwt>
<rscale>  1 0.30000000E+03</rscale>
<asrwt>0</asrwt>
<pdfrwt beam="1">  1       21 0.11917985E-01 0.30000000E+03</pdfrwt>
<pdfrwt beam="2">0</pdfrwt>
<totfact> 0.62747059E+03</totfact>
</mgrwt>
</event>
<event>
 6    1  0.1274196E-001  0.3000000E+03  0.7818608E-02  0.1093470E+00
         21   -1    0    0  501  502  0.00000000000E+00  0.00000000000E+00  0.21084037009E+01  0.21084037009E+01  0.00000000000E+00 0. -1.
         13   -1    0    0    0    0 -0.00000000000E+00 -0.00000000000E+00 -0.10000000000E+04  0.10000000000E+04  0.00000000000E+00 0.  1.
    9000005    2    1    2  501    0 -0.42336814274E+02  0.17599225164E+02 -0.50486635303E+03  0.50695587259E+03  0.34761700394E+01 0.  0.
         13    1    3    3    0    0 -0.22131803157E+02  0.10173228126E+02 -0.25158494811E+03  0.25276134474E+03  0.00000000000E+00 0.  1.
          3    1    3    3  501    0 -0.20205011117E+02  0.74259970374E+01 -0.25328140493E+03  0.25419452785E+03  0.00000000000E+00 0.  1.
         -3    1    1    2    0  502  0.42336814274E+02 -0.17599225164E+02 -0.49302524326E+03  0.49515253111E+03  0.00000000000E+00 0. -1.
<mgrwt>
<rscale>  1 0.30000000E+03</rscale>
<asrwt>0</asrwt>
<pdfrwt beam="1">  1       21 0.76669387E-02 0.30000000E+03</pdfrwt>
<pdfrwt beam="2">0</pdfrwt>
<totfact> 0.13763341E+04</totfact>
</mgrwt>
</event>
<event>
 6    1  0.1274196E-001  0.3000000E+03  0.7818608E-02  0.1093470E+00
         21   -1    0    0  501  502  0.00000000000E+00  0.00000000000E+00  0.19577463996E+01  0.19577463996E+01  0.00000000000E+00 0. -1.
         13   -1    0    0    0    0 -0.00000000000E+00 -0.00000000000E+00 -0.10000000000E+04  0.10000000000E+04  0.00000000000E+00 0.  1.
    9000005    2    1    2  501    0 -0.24268816129E+02  0.26695881778E+02 -0.78857849367E+03  0.78940960535E+03  0.31366856606E+01 0.  0.
         13    1    3    3    0    0 -0.16707178395E+02  0.16332277256E+02 -0.52193759607E+03  0.52246026383E+03  0.00000000000E+00 0.  1.
          1    1    3    3  501    0 -0.75616377342E+01  0.10363604521E+02 -0.26664089760E+03  0.26694934152E+03  0.00000000000E+00 0.  1.
         -3    1    1    2    0  502  0.24268816129E+02 -0.26695881778E+02 -0.20946375993E+03  0.21254814105E+03  0.00000000000E+00 0. -1.
<mgrwt>
<rscale>  1 0.30000000E+03</rscale>
<asrwt>0</asrwt>
<pdfrwt beam="1">  1       21 0.71190928E-02 0.30000000E+03</pdfrwt>
<pdfrwt beam="2">0</pdfrwt>
<totfact> 0.15668126E+04</totfact>
</mgrwt>
</event>
<event>
 6    1  0.1274196E-001  0.3000000E+03  0.7818608E-02  0.1093470E+00
         21   -1    0    0  501  502  0.00000000000E+00  0.00000000000E+00  0.43256835642E+01  0.43256835642E+01  0.00000000000E+00 0. -1.
         13   -1    0    0    0    0 -0.00000000000E+00 -0.00000000000E+00 -0.10000000000E+04  0.10000000000E+04  0.00000000000E+00 0.  1.
    9000005    2    1    2  501    0 -0.31722131385E+02 -0.72357742207E+01 -0.93417371933E+03  0.93474857890E+03  0.39645723075E+01 0.  0.
         13    1    3    3    0    0 -0.12904671400E+02 -0.10708256498E+01 -0.38803867671E+03  0.38825467394E+03  0.00000000000E+00 0.  1.
          3    1    3    3  501    0 -0.18817459984E+02 -0.61649485709E+01 -0.54613504262E+03  0.54649390497E+03  0.00000000000E+00 0.  1.
         -1    1    1    2    0  502  0.31722131385E+02  0.72357742207E+01 -0.61500597110E+02  0.69577104661E+02  0.00000000000E+00 0. -1.
<mgrwt>
<rscale>  1 0.30000000E+03</rscale>
<asrwt>0</asrwt>
<pdfrwt beam="1">  1       21 0.15729792E-01 0.30000000E+03</pdfrwt>
<pdfrwt beam="2">0</pdfrwt>
<totfact> 0.37704127E+03</totfact>
</mgrwt>
</event>
<event>
 6    1  0.1274196E-001  0.3000000E+03  0.7818608E-02  0.1093470E+00
         21   -1    0    0  501  502  0.00000000000E+00  0.00000000000E+00  0.99232414639E+00  0.99232414639E+00  0.00000000000E+00 0. -1.
         13   -1    0    0    0    0 -0.00000000000E+00 -0.00000000000E+00 -0.10000000000E+04  0.10000000000E+04  0.00000000000E+00 0.  1.
    9000005    2    1    2  501    0  0.28890754355E+02  0.93663888772E+01 -0.59967687519E+03  0.60050825045E+03  0.86832764623E+01 0.  0.
         13    1    3    3    0    0  0.28801075326E+02  0.75750542785E+01 -0.56125281487E+03  0.56204235213E+03  0.00000000000E+00 0.  1.
          3    1    3    3  501    0  0.89679028845E-01  0.17913345987E+01 -0.38424060322E+02  0.38465898320E+02  0.00000000000E+00 0.  1.
         -1    1    1    2    0  502 -0.28890754355E+02 -0.93663888772E+01 -0.39933080066E+03  0.40048407370E+03  0.00000000000E+00 0. -1.
<mgrwt>
<rscale>  1 0.30000000E+03</rscale>
<asrwt>0</asrwt>
<pdfrwt beam="1">  1       21 0.36084591E-02 0.30000000E+03</pdfrwt>
<pdfrwt beam="2">0</pdfrwt>
<totfact> 0.49993155E+04</totfact>
</mgrwt>
</event>
<event>
 6    1  0.1274196E-001  0.3000000E+03  0.7818608E-02  0.1093470E+00
         21   -1    0    0  501  502  0.00000000000E+00  0.00000000000E+00  0.14799392710E+01  0.14799392710E+01  0.00000000000E+00 0. -1.
         13   -1    0    0    0    0 -0.00000000000E+00 -0.00000000000E+00 -0.10000000000E+04  0.10000000000E+04  0.00000000000E+00 0.  1.
    9000005    2    1    2  501    0 -0.31959940681E+02 -0.14063883230E+02 -0.70803699848E+03  0.70890577760E+03  0.34321550676E+01 0.  0.
         13    1    3    3    0    0 -0.53826923654E+01 -0.10190666162E+01 -0.10826937877E+03  0.10840788833E+03  0.00000000000E+00 0.  1.
          1    1    3    3  501    0 -0.26577248315E+02 -0.13044816614E+02 -0.59976761971E+03  0.60049788927E+03  0.00000000000E+00 0.  1.
         -1    1    1    2    0  502  0.31959940681E+02  0.14063883230E+02 -0.29048306225E+03  0.29257416167E+03  0.00000000000E+00 0. -1.
<mgrwt>
<rscale>  1 0.30000000E+03</rscale>
<asrwt>0</asrwt>
<pdfrwt beam="1">  1       21 0.53816087E-02 0.30000000E+03</pdfrwt>
<pdfrwt beam="2">0</pdfrwt>
<totfact> 0.25403854E+04</totfact>
</mgrwt>
</event>
<event>
 6    1  0.1274196E-001  0.3000000E+03  0.7818608E-02  0.1093470E+00
         21   -1    0    0  501  502  0.00000000000E+00  0.00000000000E+00  0.14721145819E+01  0.14721145819E+01  0.00000000000E+00 0. -1.
         13   -1    0    0    0    0 -0.00000000000E+00 -0.00000000000E+00 -0.10000000000E+04  0.10000000000E+04  0.00000000000E+00 0.  1.
    9000005    2    1    2  501    0 -0.36124467600E+02 -0.37396742625E+01 -0.65301473634E+03  0.65405550803E+03  0.64342352078E+01 0.  0.
         13    1    3    3    0    0 -0.14031653110E+02  0.11911961734E+01 -0.22110136884E+03  0.22154936592E+03  0.00000000000E+00 0.  1.
          3    1    3    3  501    0 -0.22092814490E+02 -0.49308704360E+01 -0.43191336749E+03  0.43250614210E+03  0.00000000000E+00 0.  1.
         -3    1    1    2    0  502  0.36124467600E+02  0.37396742625E+01 -0.34551314908E+03  0.34741660656E+03  0.00000000000E+00 0. -1.
<mgrwt>
<rscale>  1 0.30000000E+03</rscale>
<asrwt>0</asrwt>
<pdfrwt beam="1">  1       21 0.53531552E-02 0.30000000E+03</pdfrwt>
<pdfrwt beam="2">0</pdfrwt>
<totfact> 0.25635424E+04</totfact>
</mgrwt>
</event>
<event>
 6    1  0.1274196E-001  0.3000000E+03  0.7818608E-02  0.1093470E+00
         21   -1    0    0  501  502  0.00000000000E+00  0.00000000000E+00  0.26441270666E+01  0.26441270666E+01  0.00000000000E+00 0. -1.
         13   -1    0    0    0    0 -0.00000000000E+00 -0.00000000000E+00 -0.10000000000E+04  0.10000000000E+04  0.00000000000E+00 0.  1.
    9000005    2    1    2  501    0  0.91448981302E+01 -0.35396027356E+02 -0.85095240066E+03  0.85174520524E+03  0.36604026062E+01 0.  0.
         13    1    3    3    0    0  0.68748264109E+01 -0.29158494147E+02 -0.66522563040E+03  0.66589985761E+03  0.00000000000E+00 0.  1.
          1    1    3    3  501    0  0.22700717193E+01 -0.62375332091E+01 -0.18572677026E+03  0.18584534764E+03  0.00000000000E+00 0.  1.
         -1    1    1    2    0  502 -0.91448981302E+01  0.35396027356E+02 -0.14640347227E+03  0.15089892182E+03  0.00000000000E+00 0. -1.
<mgrwt>
<rscale>  1 0.30000000E+03</rscale>
<asrwt>0</asrwt>
<pdfrwt beam="1">  1       21 0.96150278E-02 0.30000000E+03</pdfrwt>
<pdfrwt beam="2">0</pdfrwt>
<totfact> 0.92276417E+03</totfact>
</mgrwt>
</event>
<event>
 6    1  0.1274196E-001  0.3000000E+03  0.7818608E-02  0.1093470E+00
         21   -1    0    0  501  502  0.00000000000E+00  0.00000000000E+00  0.16523346655E+02  0.16523346655E+02  0.00000000000E+00 0. -1.
         13   -1    0    0    0    0 -0.00000000000E+00 -0.00000000000E+00 -0.10000000000E+04  0.10000000000E+04  0.00000000000E+00 0.  1.
    9000005    2    1    2  501    0 -0.40841407945E+02  0.59046998435E+02 -0.91330740726E+03  0.91613265125E+03  0.37477867817E+01 0.  0.
         13    1    3    3    0    0 -0.15188509726E+02  0.22933646100E+02 -0.32801976001E+03  0.32917108911E+03  0.00000000000E+00 0.  1.
          1    1    3    3  501    0 -0.25652898219E+02  0.36113352335E+02 -0.58528764725E+03  0.58696156214E+03  0.00000000000E+00 0.  1.
         -3    1    1    2    0  502  0.40841407945E+02 -0.59046998435E+02 -0.70169246082E+02  0.10039069540E+03  0.00000000000E+00 0. -1.
<mgrwt>
<rscale>  1 0.30000000E+03</rscale>
<asrwt>0</asrwt>
<pdfrwt beam="1">  1       21 0.60085024E-01 0.30000000E+03</pdfrwt>
<pdfrwt beam="2">0</pdfrwt>
<totfact> 0.25031330E+02</totfact>
</mgrwt>
</event>
<event>
 6    1  0.1274196E-001  0.3000000E+03  0.7818608E-02  0.1093470E+00
         21   -1    0    0  501  502  0.00000000000E+00  0.00000000000E+00  0.36633245377E+01  0.36633245377E+01  0.00000000000E+00 0. -1.
         13   -1    0    0    0    0 -0.00000000000E+00 -0.00000000000E+00 -0.10000000000E+04  0.10000000000E+04  0.00000000000E+00 0.  1.
    9000005    2    1    2  501    0  0.24754167646E+02  0.26540409602E+02 -0.89921364711E+03  0.89998090175E+03  0.79547607137E+01 0.  0.
         13    1    3    3    0    0  0.88246800533E+01  0.77351005630E+01 -0.38232008498E+03  0.38250013613E+03  0.00000000000E+00 0.  1.
          1    1    3    3  501    0  0.15929487593E+02  0.18805309040E+02 -0.51689356213E+03  0.51748076563E+03  0.00000000000E+00 0.  1.
         -3    1    1    2    0  502 -0.24754167646E+02 -0.26540409602E+02 -0.97123028356E+02  0.10368242279E+03  0.00000000000E+00 0. -1.
<mgrwt>
<rscale>  1 0.30000000E+03</rscale>
<asrwt>0</asrwt>
<pdfrwt beam="1">  1       21 0.13321208E-01 0.30000000E+03</pdfrwt>
<pdfrwt beam="2">0</pdfrwt>
<totfact> 0.51228070E+03</totfact>
</mgrwt>
</event>
<event>
 6    1  0.1274196E-001  0.3000000E+03  0.7818608E-02  0.1093470E+00
         21   -1    0    0  501  502  0.00000000000E+00  0.00000000000E+00  0.20421300556E+01  0.20421300556E+01  0.00000000000E+00 0. -1.
         13   -1    0    0    0    0 -0.00000000000E+00 -0.00000000000E+00 -0.10000000000E+04  0.10000000000E+04  0.00000000000E+00 0.  1.
    9000005    2    1    2  501    0  0.24197855255E+02  0.18900841464E+02 -0.86636789218E+03  0.86691737194E+03  0.31027679511E+01 0.  0.
         13    1    3    3    0    0  0.17808419731E+02  0.14846699386E+02 -0.68296716917E+03  0.68336060646E+03  0.00000000000E+00 0.  1.
          3    1    3    3  501    0  0.63894355241E+01  0.40541420779E+01 -0.18340072301E+03  0.18355676548E+03  0.00000000000E+00 0.  1.
         -1    1    1    2    0  502 -0.24197855255E+02 -0.18900841464E+02 -0.13158997777E+03  0.13512475811E+03  0.00000000000E+00 0. -1.
<mgrwt>
<rscale>  1 0.30000000E+03</rscale>
<asrwt>0</asrwt>
<pdfrwt beam="1">  1       21 0.74259431E-02 0.30000000E+03</pdfrwt>
<pdfrwt beam="2">0</pdfrwt>
<totfact> 0.14555102E+04</totfact>
</mgrwt>
</event>
<event>
 6    1  0.1274196E-001  0.3000000E+03  0.7818608E-02  0.1093470E+00
         21   -1    0    0  501  502  0.00000000000E+00  0.00000000000E+00  0.60163825219E+01  0.60163825219E+01  0.00000000000E+00 0. -1.
         13   -1    0    0    0    0 -0.00000000000E+00 -0.00000000000E+00 -0.10000000000E+04  0.10000000000E+04  0.00000000000E+00 0.  1.
    9000005    2    1    2  501    0 -0.26688900371E+02  0.29391579627E+02 -0.92907083522E+03  0.92992543920E+03  0.35416447117E+01 0.  0.
         13    1    3    3    0    0 -0.24695603340E+02  0.25756195958E+02 -0.82079802492E+03  0.82157327864E+03  0.00000000000E+00 0.  1.
          1    1    3    3  501    0 -0.19932970310E+01  0.36353836690E+01 -0.10827281030E+03  0.10835216056E+03  0.00000000000E+00 0.  1.
         -3    1    1    2    0  502  0.26688900371E+02 -0.29391579627E+02 -0.64912782253E+02  0.76090943324E+02  0.00000000000E+00 0. -1.
<mgrwt>
<rscale>  1 0.30000000E+03</rscale>
<asrwt>0</asrwt>
<pdfrwt beam="1">  1       21 0.21877801E-01 0.30000000E+03</pdfrwt>
<pdfrwt beam="2">0</pdfrwt>
<totfact> 0.20201360E+03</totfact>
</mgrwt>
</event>
<event>
 6    1  0.1274196E-001  0.3000000E+03  0.7818608E-02  0.1093470E+00
         21   -1    0    0  501  502  0.00000000000E+00  0.00000000000E+00  0.20186583756E+01  0.20186583756E+01  0.00000000000E+00 0. -1.
         13   -1    0    0    0    0 -0.00000000000E+00 -0.00000000000E+00 -0.10000000000E+04  0.10000000000E+04  0.00000000000E+00 0.  1.
    9000005    2    1    2  501    0  0.63023852363E+01  0.43898943303E+02 -0.48215818506E+03  0.48429250863E+03  0.97918952040E+01 0.  0.
         13    1    3    3    0    0  0.76957930881E+01  0.19313258601E+02 -0.21848870508E+03  0.21947560556E+03  0.00000000000E+00 0.  1.
          3    1    3    3  501    0 -0.13934078518E+01  0.24585684701E+02 -0.26366947999E+03  0.26481690307E+03  0.00000000000E+00 0.  1.
         -3    1    1    2    0  502 -0.63023852363E+01 -0.43898943303E+02 -0.51582315656E+03  0.51772614974E+03  0.00000000000E+00 0. -1.
<mgrwt>
<rscale>  1 0.30000000E+03</rscale>
<asrwt>0</asrwt>
<pdfrwt beam="1">  1       21 0.73405914E-02 0.30000000E+03</pdfrwt>
<pdfrwt beam="2">0</pdfrwt>
<totfact> 0.14852335E+04</totfact>
</mgrwt>
</event>
<event>
 6    1  0.1274196E-001  0.3000000E+03  0.7818608E-02  0.1093470E+00
         21   -1    0    0  501  502  0.00000000000E+00  0.00000000000E+00  0.19368696657E+01  0.19368696657E+01  0.00000000000E+00 0. -1.
         13   -1    0    0    0    0 -0.00000000000E+00 -0.00000000000E+00 -0.10000000000E+04  0.10000000000E+04  0.00000000000E+00 0.  1.
    9000005    2    1    2  501    0 -0.33249441128E+02 -0.97849236519E+01 -0.80736639900E+03  0.80811604156E+03  0.31247920161E+01 0.  0.
         13    1    3    3    0    0 -0.19332476294E+02 -0.49831272935E+01 -0.43206370578E+03  0.43252470686E+03  0.00000000000E+00 0.  1.
          1    1    3    3  501    0 -0.13916964834E+02 -0.48017963585E+01 -0.37530269322E+03  0.37559133469E+03  0.00000000000E+00 0.  1.
         -1    1    1    2    0  502  0.33249441128E+02  0.97849236519E+01 -0.19069673133E+03  0.19382082811E+03  0.00000000000E+00 0. -1.
<mgrwt>
<rscale>  1 0.30000000E+03</rscale>
<asrwt>0</asrwt>
<pdfrwt beam="1">  1       21 0.70431773E-02 0.30000000E+03</pdfrwt>
<pdfrwt beam="2">0</pdfrwt>
<totfact> 0.15963489E+04</totfact>
</mgrwt>
</event>
<event>
 6    1  0.1274196E-001  0.3000000E+03  0.7818608E-02  0.1093470E+00
         21   -1    0    0  501  502  0.00000000000E+00  0.00000000000E+00  0.30998066855E+01  0.30998066855E+01  0.00000000000E+00 0. -1.
         13   -1    0    0    0    0 -0.00000000000E+00 -0.00000000000E+00 -0.10000000000E+04  0.10000000000E+04  0.00000000000E+00 0.  1.
    9000005    2    1    2  501    0  0.19177226454E+02 -0.45239990286E+02 -0.26399699200E+03  0.26855128873E+03  0.33106128254E+01 0.  0.
         13    1    3    3    0    0  0.17458208975E+02 -0.42795080680E+02 -0.25037439689E+03  0.25460468694E+03  0.00000000000E+00 0.  1.
          3    1    3    3  501    0  0.17190174788E+01 -0.24449096054E+01 -0.13622595109E+02  0.13946601793E+02  0.00000000000E+00 0.  1.
         -3    1    1    2    0  502 -0.19177226454E+02  0.45239990286E+02 -0.73290320131E+03  0.73454851796E+03  0.00000000000E+00 0. -1.
<mgrwt>
<rscale>  1 0.30000000E+03</rscale>
<asrwt>0</asrwt>
<pdfrwt beam="1">  1       21 0.11272048E-01 0.30000000E+03</pdfrwt>
<pdfrwt beam="2">0</pdfrwt>
<totfact> 0.69398410E+03</totfact>
</mgrwt>
</event>
<event>
 6    1  0.1274196E-001  0.3000000E+03  0.7818608E-02  0.1093470E+00
         21   -1    0    0  501  502  0.00000000000E+00  0.00000000000E+00  0.15796917436E+01  0.15796917436E+01  0.00000000000E+00 0. -1.
         13   -1    0    0    0    0 -0.00000000000E+00 -0.00000000000E+00 -0.10000000000E+04  0.10000000000E+04  0.00000000000E+00 0.  1.
    9000005    2    1    2  501    0 -0.31989022444E+01 -0.34957325229E+02 -0.73234159696E+03  0.73319539979E+03  0.43625762387E+01 0.  0.
         13    1    3    3    0    0 -0.31151310128E+01 -0.13903645830E+02 -0.27304522647E+03  0.27341673524E+03  0.00000000000E+00 0.  1.
          1    1    3    3  501    0 -0.83771231606E-01 -0.21053679399E+02 -0.45929637049E+03  0.45977866455E+03  0.00000000000E+00 0.  1.
         -3    1    1    2    0  502  0.31989022444E+01  0.34957325229E+02 -0.26607871129E+03  0.26838429195E+03  0.00000000000E+00 0. -1.
<mgrwt>
<rscale>  1 0.30000000E+03</rscale>
<asrwt>0</asrwt>
<pdfrwt beam="1">  1       21 0.57443457E-02 0.30000000E+03</pdfrwt>
<pdfrwt beam="2">0</pdfrwt>
<totfact> 0.22713451E+04</totfact>
</mgrwt>
</event>
<event>
 6    1  0.1274196E-001  0.3000000E+03  0.7818608E-02  0.1093470E+00
         21   -1    0    0  501  502  0.00000000000E+00  0.00000000000E+00  0.93990453396E+01  0.93990453396E+01  0.00000000000E+00 0. -1.
         13   -1    0    0    0    0 -0.00000000000E+00 -0.00000000000E+00 -0.10000000000E+04  0.10000000000E+04  0.00000000000E+00 0.  1.
    9000005    2    1    2  501    0 -0.37239017649E+02 -0.52698217958E+01 -0.96046494726E+03  0.96120470543E+03  0.26561940563E+01 0.  0.
         13    1    3    3    0    0 -0.35948153614E+02 -0.47390383644E+01 -0.91440448019E+03  0.91512309643E+03  0.00000000000E+00 0.  1.
          3    1    3    3  501    0 -0.12908640353E+01 -0.53078343131E+00 -0.46060467078E+02  0.46081609005E+02  0.00000000000E+00 0.  1.
         -3    1    1    2    0  502  0.37239017649E+02  0.52698217958E+01 -0.30136007396E+02  0.48194339906E+02  0.00000000000E+00 0. -1.
<mgrwt>
<rscale>  1 0.30000000E+03</rscale>
<asrwt>0</asrwt>
<pdfrwt beam="1">  1       21 0.34178419E-01 0.30000000E+03</pdfrwt>
<pdfrwt beam="2">0</pdfrwt>
<totfact> 0.83535820E+02</totfact>
</mgrwt>
</event>
<event>
 6    1  0.1274196E-001  0.3000000E+03  0.7818608E-02  0.1093470E+00
         21   -1    0    0  501  502  0.00000000000E+00  0.00000000000E+00  0.22950969709E+01  0.22950969709E+01  0.00000000000E+00 0. -1.
         13   -1    0    0    0    0 -0.00000000000E+00 -0.00000000000E+00 -0.10000000000E+04  0.10000000000E+04  0.00000000000E+00 0.  1.
    9000005    2    1    2  501    0  0.15946336210E+02  0.29354417751E+02 -0.85783640523E+03  0.85849257907E+03  0.32004200764E+01 0.  0.
         13    1    3    3    0    0  0.25006816864E+01  0.74271296582E+01 -0.20287588099E+03  0.20302718722E+03  0.00000000000E+00 0.  1.
          1    1    3    3  501    0  0.13445654523E+02  0.21927288093E+02 -0.65496052424E+03  0.65546539184E+03  0.00000000000E+00 0.  1.
         -1    1    1    2    0  502 -0.15946336210E+02 -0.29354417751E+02 -0.13986849780E+03  0.14380251791E+03  0.00000000000E+00 0. -1.
<mgrwt>
<rscale>  1 0.30000000E+03</rscale>
<asrwt>0</asrwt>
<pdfrwt beam="1">  1       21 0.83458248E-02 0.30000000E+03</pdfrwt>
<pdfrwt beam="2">0</pdfrwt>
<totfact> 0.11857651E+04</totfact>
</mgrwt>
</event>
<event>
 6    1  0.1274196E-001  0.3000000E+03  0.7818608E-02  0.1093470E+00
         21   -1    0    0  501  502  0.00000000000E+00  0.00000000000E+00  0.36045543452E+01  0.36045543452E+01  0.00000000000E+00 0. -1.
         13   -1    0    0    0    0 -0.00000000000E+00 -0.00000000000E+00 -0.10000000000E+04  0.10000000000E+04  0.00000000000E+00 0.  1.
    9000005    2    1    2  501    0  0.30232930263E+02  0.44171515897E+01 -0.93010146494E+03  0.93060843678E+03  0.31282939962E+01 0.  0.
         13    1    3    3    0    0  0.13277141083E+02  0.15830516988E+01 -0.36170602566E+03  0.36195308746E+03  0.00000000000E+00 0.  1.
          1    1    3    3  501    0  0.16955789180E+02  0.28340998910E+01 -0.56839543929E+03  0.56865534932E+03  0.00000000000E+00 0.  1.
         -3    1    1    2    0  502 -0.30232930263E+02 -0.44171515897E+01 -0.66293980712E+02  0.72996117562E+02  0.00000000000E+00 0. -1.
<mgrwt>
<rscale>  1 0.30000000E+03</rscale>
<asrwt>0</asrwt>
<pdfrwt beam="1">  1       21 0.13107498E-01 0.30000000E+03</pdfrwt>
<pdfrwt beam="2">0</pdfrwt>
<totfact> 0.52765496E+03</totfact>
</mgrwt>
</event>
<event>
 6    1  0.1274196E-001  0.3000000E+03  0.7818608E-02  0.1093470E+00
         21   -1    0    0  501  502  0.00000000000E+00  0.00000000000E+00  0.16177878246E+01  0.16177878246E+01  0.00000000000E+00 0. -1.
         13   -1    0    0    0    0 -0.00000000000E+00 -0.00000000000E+00 -0.10000000000E+04  0.10000000000E+04  0.00000000000E+00 0.  1.
    9000005    2    1    2  501    0  0.38493624368E+02  0.11314978739E+02 -0.49936310324E+03  0.50098832510E+03  0.40006440100E+01 0.  0.
         13    1    3    3    0    0  0.26625535563E+02  0.65993185154E+01 -0.32225836487E+03  0.32342375281E+03  0.00000000000E+00 0.  1.
          1    1    3    3  501    0  0.11868088805E+02  0.47156602241E+01 -0.17710473837E+03  0.17756457230E+03  0.00000000000E+00 0.  1.
         -1    1    1    2    0  502 -0.38493624368E+02 -0.11314978739E+02 -0.49901910894E+03  0.50062946272E+03  0.00000000000E+00 0. -1.
<mgrwt>
<rscale>  1 0.30000000E+03</rscale>
<asrwt>0</asrwt>
<pdfrwt beam="1">  1       21 0.58828772E-02 0.30000000E+03</pdfrwt>
<pdfrwt beam="2">0</pdfrwt>
<totfact> 0.21800114E+04</totfact>
</mgrwt>
</event>
<event>
 6    1  0.1274196E-001  0.3000000E+03  0.7818608E-02  0.1093470E+00
         21   -1    0    0  501  502  0.00000000000E+00  0.00000000000E+00  0.66599405708E+01  0.66599405708E+01  0.00000000000E+00 0. -1.
         13   -1    0    0    0    0 -0.00000000000E+00 -0.00000000000E+00 -0.10000000000E+04  0.10000000000E+04  0.00000000000E+00 0.  1.
    9000005    2    1    2  501    0 -0.59144015544E+02 -0.25256159665E+02 -0.80632003599E+03  0.80889144626E+03  0.41812933369E+01 0.  0.
         13    1    3    3    0    0 -0.71136564644E+01 -0.44575698390E+01 -0.11173972643E+03  0.11205463177E+03  0.00000000000E+00 0.  1.
          1    1    3    3  501    0 -0.52030359080E+02 -0.20798589826E+02 -0.69458030956E+03  0.69683681449E+03  0.00000000000E+00 0.  1.
         -3    1    1    2    0  502  0.59144015544E+02  0.25256159665E+02 -0.18702002344E+03  0.19776849431E+03  0.00000000000E+00 0. -1.
<mgrwt>
<rscale>  1 0.30000000E+03</rscale>
<asrwt>0</asrwt>
<pdfrwt beam="1">  1       21 0.24218017E-01 0.30000000E+03</pdfrwt>
<pdfrwt beam="2">0</pdfrwt>
<totfact> 0.16594356E+03</totfact>
</mgrwt>
</event>
<event>
 6    1  0.1274196E-001  0.3000000E+03  0.7818608E-02  0.1093470E+00
         21   -1    0    0  501  502  0.00000000000E+00  0.00000000000E+00  0.16894377507E+01  0.16894377507E+01  0.00000000000E+00 0. -1.
         13   -1    0    0    0    0 -0.00000000000E+00 -0.00000000000E+00 -0.10000000000E+04  0.10000000000E+04  0.00000000000E+00 0.  1.
    9000005    2    1    2  501    0  0.37499537967E+02  0.13513345238E+02 -0.37915183119E+03  0.38124898123E+03  0.24184174334E+01 0.  0.
         13    1    3    3    0    0  0.28947670947E+01  0.15114331662E+01 -0.36095565791E+02  0.36242985204E+02  0.00000000000E+00 0.  1.
          1    1    3    3  501    0  0.34604770872E+02  0.12001912072E+02 -0.34305626540E+03  0.34500599602E+03  0.00000000000E+00 0.  1.
         -3    1    1    2    0  502 -0.37499537967E+02 -0.13513345238E+02 -0.61915873106E+03  0.62044045652E+03  0.00000000000E+00 0. -1.
<mgrwt>
<rscale>  1 0.30000000E+03</rscale>
<asrwt>0</asrwt>
<pdfrwt beam="1">  1       21 0.61434230E-02 0.30000000E+03</pdfrwt>
<pdfrwt beam="2">0</pdfrwt>
<totfact> 0.20230045E+04</totfact>
</mgrwt>
</event>
<event>
 6    1  0.1274196E-001  0.3000000E+03  0.7818608E-02  0.1093470E+00
         21   -1    0    0  501  502  0.00000000000E+00  0.00000000000E+00  0.23312116033E+01  0.23312116033E+01  0.00000000000E+00 0. -1.
         13   -1    0    0    0    0 -0.00000000000E+00 -0.00000000000E+00 -0.10000000000E+04  0.10000000000E+04  0.00000000000E+00 0.  1.
    9000005    2    1    2  501    0  0.44811439338E+02 -0.15937113554E+02 -0.42377774629E+03  0.42647273516E+03  0.54183852019E+01 0.  0.
         13    1    3    3    0    0  0.13727410038E+02 -0.64376888953E+01 -0.11714432343E+03  0.11812145502E+03  0.00000000000E+00 0.  1.
          3    1    3    3  501    0  0.31084029301E+02 -0.94994246590E+01 -0.30663342286E+03  0.30835128013E+03  0.00000000000E+00 0.  1.
         -1    1    1    2    0  502 -0.44811439338E+02  0.15937113554E+02 -0.57389104211E+03  0.57585847645E+03  0.00000000000E+00 0. -1.
<mgrwt>
<rscale>  1 0.30000000E+03</rscale>
<asrwt>0</asrwt>
<pdfrwt beam="1">  1       21 0.84771510E-02 0.30000000E+03</pdfrwt>
<pdfrwt beam="2">0</pdfrwt>
<totfact> 0.11535882E+04</totfact>
</mgrwt>
</event>
<event>
 6    1  0.1274196E-001  0.3000000E+03  0.7818608E-02  0.1093470E+00
         21   -1    0    0  501  502  0.00000000000E+00  0.00000000000E+00  0.15982793422E+01  0.15982793422E+01  0.00000000000E+00 0. -1.
         13   -1    0    0    0    0 -0.00000000000E+00 -0.00000000000E+00 -0.10000000000E+04  0.10000000000E+04  0.00000000000E+00 0.  1.
    9000005    2    1    2  501    0 -0.35857410456E+02 -0.66858843332E+01 -0.29664831376E+03  0.29889756138E+03  0.30125085030E+01 0.  0.
         13    1    3    3    0    0 -0.10413558712E+02 -0.58752732217E+00 -0.82336922294E+02  0.82994916508E+02  0.00000000000E+00 0.  1.
          1    1    3    3  501    0 -0.25443851743E+02 -0.60983570111E+01 -0.21431139146E+03  0.21590264487E+03  0.00000000000E+00 0.  1.
         -3    1    1    2    0  502  0.35857410456E+02  0.66858843332E+01 -0.70175340690E+03  0.70270071797E+03  0.00000000000E+00 0. -1.
<mgrwt>
<rscale>  1 0.30000000E+03</rscale>
<asrwt>0</asrwt>
<pdfrwt beam="1">  1       21 0.58119371E-02 0.30000000E+03</pdfrwt>
<pdfrwt beam="2">0</pdfrwt>
<totfact> 0.22260606E+04</totfact>
</mgrwt>
</event>
<event>
 6    1  0.1274196E-001  0.3000000E+03  0.7818608E-02  0.1093470E+00
         21   -1    0    0  501  502  0.00000000000E+00  0.00000000000E+00  0.42615736278E+01  0.42615736278E+01  0.00000000000E+00 0. -1.
         13   -1    0    0    0    0 -0.00000000000E+00 -0.00000000000E+00 -0.10000000000E+04  0.10000000000E+04  0.00000000000E+00 0.  1.
    9000005    2    1    2  501    0 -0.42128891096E+02  0.12215608721E+02 -0.86964082814E+03  0.87075251460E+03  0.32721797568E+01 0.  0.
         13    1    3    3    0    0 -0.38126132174E+02  0.11829817493E+02 -0.77788114189E+03  0.77890475505E+03  0.00000000000E+00 0.  1.
          3    1    3    3  501    0 -0.40027589226E+01  0.38579122819E+00 -0.91759686244E+02  0.91847759545E+02  0.00000000000E+00 0.  1.
         -1    1    1    2    0  502  0.42128891096E+02 -0.12215608721E+02 -0.12609759824E+03  0.13350905903E+03  0.00000000000E+00 0. -1.
<mgrwt>
<rscale>  1 0.30000000E+03</rscale>
<asrwt>0</asrwt>
<pdfrwt beam="1">  1       21 0.15496664E-01 0.30000000E+03</pdfrwt>
<pdfrwt beam="2">0</pdfrwt>
<totfact> 0.38766145E+03</totfact>
</mgrwt>
</event>
<event>
 6    1  0.1274196E-001  0.3000000E+03  0.7818608E-02  0.1093470E+00
         21   -1    0    0  501  502  0.00000000000E+00  0.00000000000E+00  0.12854596263E+01  0.12854596263E+01  0.00000000000E+00 0. -1.
         13   -1    0    0    0    0 -0.00000000000E+00 -0.00000000000E+00 -0.10000000000E+04  0.10000000000E+04  0.00000000000E+00 0.  1.
    9000005    2    1    2  501    0  0.23947136142E+02  0.23549176002E+02 -0.67352616910E+03  0.67436726523E+03  0.23830490958E+01 0.  0.
         13    1    3    3    0    0  0.18009085443E+02  0.16236407366E+02 -0.48107468456E+03  0.48168537470E+03  0.00000000000E+00 0.  1.
          3    1    3    3  501    0  0.59380506993E+01  0.73127686365E+01 -0.19245148455E+03  0.19268189052E+03  0.00000000000E+00 0.  1.
         -3    1    1    2    0  502 -0.23947136142E+02 -0.23549176002E+02 -0.32518837127E+03  0.32691819440E+03  0.00000000000E+00 0. -1.
<mgrwt>
<rscale>  1 0.30000000E+03</rscale>
<asrwt>0</asrwt>
<pdfrwt beam="1">  1       21 0.46744085E-02 0.30000000E+03</pdfrwt>
<pdfrwt beam="2">0</pdfrwt>
<totfact> 0.32302784E+04</totfact>
</mgrwt>
</event>
<event>
 6    1  0.1274196E-001  0.3000000E+03  0.7818608E-02  0.1093470E+00
         21   -1    0    0  501  502  0.00000000000E+00  0.00000000000E+00  0.24627937759E+01  0.24627937759E+01  0.00000000000E+00 0. -1.
         13   -1    0    0    0    0 -0.00000000000E+00 -0.00000000000E+00 -0.10000000000E+04  0.10000000000E+04  0.00000000000E+00 0.  1.
    9000005    2    1    2  501    0  0.19158609166E+01 -0.35822993186E+02 -0.84445403944E+03  0.84523234725E+03  0.53045959123E+01 0.  0.
         13    1    3    3    0    0  0.35480775105E+01 -0.28472283724E+02 -0.65182768472E+03  0.65245888021E+03  0.00000000000E+00 0.  1.
          3    1    3    3  501    0 -0.16322165940E+01 -0.73507094624E+01 -0.19262635472E+03  0.19277346704E+03  0.00000000000E+00 0.  1.
         -1    1    1    2    0  502 -0.19158609166E+01  0.35822993186E+02 -0.15308316678E+03  0.15723044653E+03  0.00000000000E+00 0. -1.
<mgrwt>
<rscale>  1 0.30000000E+03</rscale>
<asrwt>0</asrwt>
<pdfrwt beam="1">  1       21 0.89556326E-02 0.30000000E+03</pdfrwt>
<pdfrwt beam="2">0</pdfrwt>
<totfact> 0.10469332E+04</totfact>
</mgrwt>
</event>
<event>
 6    1  0.1274196E-001  0.3000000E+03  0.7818608E-02  0.1093470E+00
         21   -1    0    0  501  502  0.00000000000E+00  0.00000000000E+00  0.41412514186E+01  0.41412514186E+01  0.00000000000E+00 0. -1.
         13   -1    0    0    0    0 -0.00000000000E+00 -0.00000000000E+00 -0.10000000000E+04  0.10000000000E+04  0.00000000000E+00 0.  1.
    9000005    2    1    2  501    0 -0.42191120054E+02 -0.10938586942E+02 -0.86719976949E+03  0.86829988733E+03  0.30839657244E+01 0.  0.
         13    1    3    3    0    0 -0.32022546833E+02 -0.95905437253E+01 -0.65575627452E+03  0.65660773191E+03  0.00000000000E+00 0.  1.
          3    1    3    3  501    0 -0.10168573221E+02 -0.13480432168E+01 -0.21144349496E+03  0.21169215542E+03  0.00000000000E+00 0.  1.
         -3    1    1    2    0  502  0.42191120054E+02  0.10938586942E+02 -0.12865897910E+03  0.13584136409E+03  0.00000000000E+00 0. -1.
<mgrwt>
<rscale>  1 0.30000000E+03</rscale>
<asrwt>0</asrwt>
<pdfrwt beam="1">  1       21 0.15059128E-01 0.30000000E+03</pdfrwt>
<pdfrwt beam="2">0</pdfrwt>
<totfact> 0.40881520E+03</totfact>
</mgrwt>
</event>
<event>
 6    1  0.1274196E-001  0.3000000E+03  0.7818608E-02  0.1093470E+00
         21   -1    0    0  501  502  0.00000000000E+00  0.00000000000E+00  0.51394534734E+01  0.51394534734E+01  0.00000000000E+00 0. -1.
         13   -1    0    0    0    0 -0.00000000000E+00 -0.00000000000E+00 -0.10000000000E+04  0.10000000000E+04  0.00000000000E+00 0.  1.
    9000005    2    1    2  501    0 -0.14553037025E+02  0.38552708685E+02 -0.90841612161E+03  0.90937546842E+03  0.67668556308E+01 0.  0.
         13    1    3    3    0    0 -0.21662484294E+01  0.17885765395E+01 -0.44347716172E+02  0.44436601670E+02  0.00000000000E+00 0.  1.
          3    1    3    3  501    0 -0.12386788596E+02  0.36764132145E+02 -0.86406840544E+03  0.86493886675E+03  0.00000000000E+00 0.  1.
         -3    1    1    2    0  502  0.14553037025E+02 -0.38552708685E+02 -0.86444424919E+02  0.95763985053E+02  0.00000000000E+00 0. -1.
<mgrwt>
<rscale>  1 0.30000000E+03</rscale>
<asrwt>0</asrwt>
<pdfrwt beam="1">  1       21 0.18688961E-01 0.30000000E+03</pdfrwt>
<pdfrwt beam="2">0</pdfrwt>
<totfact> 0.27290608E+03</totfact>
</mgrwt>
</event>
<event>
 6    1  0.1274196E-001  0.3000000E+03  0.7818608E-02  0.1093470E+00
         21   -1    0    0  501  502  0.00000000000E+00  0.00000000000E+00  0.58416815032E+01  0.58416815032E+01  0.00000000000E+00 0. -1.
         13   -1    0    0    0    0 -0.00000000000E+00 -0.00000000000E+00 -0.10000000000E+04  0.10000000000E+04  0.00000000000E+00 0.  1.
    9000005    2    1    2  501    0 -0.26028282925E+02  0.28393621283E+02 -0.93143016791E+03  0.93223128742E+03  0.30571722718E+01 0.  0.
         13    1    3    3    0    0 -0.91943010682E+01  0.11351706097E+02 -0.38185555257E+03  0.38213487074E+03  0.00000000000E+00 0.  1.
          3    1    3    3  501    0 -0.16833981857E+02  0.17041915186E+02 -0.54957461534E+03  0.55009641668E+03  0.00000000000E+00 0.  1.
         -3    1    1    2    0  502  0.26028282925E+02 -0.28393621283E+02 -0.62728150583E+02  0.73610394084E+02  0.00000000000E+00 0. -1.
<mgrwt>
<rscale>  1 0.30000000E+03</rscale>
<asrwt>0</asrwt>
<pdfrwt beam="1">  1       21 0.21242523E-01 0.30000000E+03</pdfrwt>
<pdfrwt beam="2">0</pdfrwt>
<totfact> 0.21378216E+03</totfact>
</mgrwt>
</event>
<event>
 6    1  0.1274196E-001  0.3000000E+03  0.7818608E-02  0.1093470E+00
         21   -1    0    0  501  502  0.00000000000E+00  0.00000000000E+00  0.24841266295E+01  0.24841266295E+01  0.00000000000E+00 0. -1.
         13   -1    0    0    0    0 -0.00000000000E+00 -0.00000000000E+00 -0.10000000000E+04  0.10000000000E+04  0.00000000000E+00 0.  1.
    9000005    2    1    2  501    0 -0.40958060325E+02 -0.19501095949E+02 -0.29321833725E+03  0.29672717495E+03  0.34882100691E+01 0.  0.
         13    1    3    3    0    0 -0.31607283973E+02 -0.16161256725E+02 -0.23562602025E+03  0.23828518216E+03  0.00000000000E+00 0.  1.
          1    1    3    3  501    0 -0.93507763514E+01 -0.33398392236E+01 -0.57592316993E+02  0.58441992788E+02  0.00000000000E+00 0.  1.
         -3    1    1    2    0  502  0.40958060325E+02  0.19501095949E+02 -0.70429753612E+03  0.70575695168E+03  0.00000000000E+00 0. -1.
<mgrwt>
<rscale>  1 0.30000000E+03</rscale>
<asrwt>0</asrwt>
<pdfrwt beam="1">  1       21 0.90332068E-02 0.30000000E+03</pdfrwt>
<pdfrwt beam="2">0</pdfrwt>
<totfact> 0.10310584E+04</totfact>
</mgrwt>
</event>
<event>
 6    1  0.1274196E-001  0.3000000E+03  0.7818608E-02  0.1093470E+00
         21   -1    0    0  501  502  0.00000000000E+00  0.00000000000E+00  0.14168351607E+01  0.14168351607E+01  0.00000000000E+00 0. -1.
         13   -1    0    0    0    0 -0.00000000000E+00 -0.00000000000E+00 -0.10000000000E+04  0.10000000000E+04  0.00000000000E+00 0.  1.
    9000005    2    1    2  501    0 -0.72109399943E+01 -0.36685265356E+02 -0.54862546071E+03  0.54990853861E+03  0.34202844384E+01 0.  0.
         13    1    3    3    0    0 -0.67593028551E+01 -0.35366773349E+02 -0.51697596171E+03  0.51822836840E+03  0.00000000000E+00 0.  1.
          3    1    3    3  501    0 -0.45163713920E+00 -0.13184920079E+01 -0.31649499001E+02  0.31680170206E+02  0.00000000000E+00 0.  1.
         -3    1    1    2    0  502  0.72109399943E+01  0.36685265356E+02 -0.44995770413E+03  0.45150829655E+03  0.00000000000E+00 0. -1.
<mgrwt>
<rscale>  1 0.30000000E+03</rscale>
<asrwt>0</asrwt>
<pdfrwt beam="1">  1       21 0.51521387E-02 0.30000000E+03</pdfrwt>
<pdfrwt beam="2">0</pdfrwt>
<totfact> 0.27368701E+04</totfact>
</mgrwt>
</event>
<event>
 6    1  0.1274196E-001  0.3000000E+03  0.7818608E-02  0.1093470E+00
         21   -1    0    0  501  502  0.00000000000E+00  0.00000000000E+00  0.20937254055E+01  0.20937254055E+01  0.00000000000E+00 0. -1.
         13   -1    0    0    0    0 -0.00000000000E+00 -0.00000000000E+00 -0.10000000000E+04  0.10000000000E+04  0.00000000000E+00 0.  1.
    9000005    2    1    2  501    0 -0.10915958256E+02 -0.30388023277E+02 -0.85364780106E+03  0.85426579404E+03  0.35900585431E+01 0.  0.
         13    1    3    3    0    0 -0.79024291266E+01 -0.16761719506E+02 -0.48297722874E+03  0.48333260506E+03  0.00000000000E+00 0.  1.
          1    1    3    3  501    0 -0.30135291290E+01 -0.13626303771E+02 -0.37067057231E+03  0.37093318899E+03  0.00000000000E+00 0.  1.
         -1    1    1    2    0  502  0.10915958256E+02  0.30388023277E+02 -0.14425847354E+03  0.14782793136E+03  0.00000000000E+00 0. -1.
<mgrwt>
<rscale>  1 0.30000000E+03</rscale>
<asrwt>0</asrwt>
<pdfrwt beam="1">  1       21 0.76135630E-02 0.30000000E+03</pdfrwt>
<pdfrwt beam="2">0</pdfrwt>
<totfact> 0.13932866E+04</totfact>
</mgrwt>
</event>
<event>
 6    1  0.1274196E-001  0.3000000E+03  0.7818608E-02  0.1093470E+00
         21   -1    0    0  501  502  0.00000000000E+00  0.00000000000E+00  0.11123193298E+01  0.11123193298E+01  0.00000000000E+00 0. -1.
         13   -1    0    0    0    0 -0.00000000000E+00 -0.00000000000E+00 -0.10000000000E+04  0.10000000000E+04  0.00000000000E+00 0.  1.
    9000005    2    1    2  501    0  0.21757841960E+02 -0.21290519132E+02 -0.70250426084E+03  0.70316967142E+03  0.29428589548E+01 0.  0.
         13    1    3    3    0    0  0.17162092310E+02 -0.16556363707E+02 -0.52078664293E+03  0.52133231057E+03  0.00000000000E+00 0.  1.
          1    1    3    3  501    0  0.45957496495E+01 -0.47341554252E+01 -0.18171761791E+03  0.18183736085E+03  0.00000000000E+00 0.  1.
         -1    1    1    2    0  502 -0.21757841960E+02  0.21290519132E+02 -0.29638341984E+03  0.29794264791E+03  0.00000000000E+00 0. -1.
<mgrwt>
<rscale>  1 0.30000000E+03</rscale>
<asrwt>0</asrwt>
<pdfrwt beam="1">  1       21 0.40448061E-02 0.30000000E+03</pdfrwt>
<pdfrwt beam="2">0</pdfrwt>
<totfact> 0.41265695E+04</totfact>
</mgrwt>
</event>
<event>
 6    1  0.2303030E-001  0.3000000E+03  0.7818608E-02  0.1093470E+00
         21   -1    0    0  501  502  0.00000000000E+00  0.00000000000E+00  0.60258745590E+02  0.60258745590E+02  0.00000000000E+00 0. -1.
         13   -1    0    0    0    0 -0.00000000000E+00 -0.00000000000E+00 -0.10000000000E+04  0.10000000000E+04  0.00000000000E+00 0.  1.
    9000005    2    1    2  501    0  0.15832802560E+03 -0.16364185119E+03 -0.66789683660E+03  0.70565219370E+03  0.35234904014E+01 0.  0.
         13    1    3    3    0    0  0.84550281500E+02 -0.86574326668E+02 -0.36010836158E+03  0.37989721797E+03  0.00000000000E+00 0.  1.
          1    1    3    3  501    0  0.73777744096E+02 -0.77067524518E+02 -0.30778847502E+03  0.32575497574E+03  0.00000000000E+00 0.  1.
         -1    1    1    2    0  502 -0.15832802560E+03  0.16364185119E+03 -0.27184441781E+03  0.35460655189E+03  0.00000000000E+00 0. -1.
<mgrwt>
<rscale>  1 0.30000000E+03</rscale>
<asrwt>0</asrwt>
<pdfrwt beam="1">  1       21 0.21912317E+00 0.30000000E+03</pdfrwt>
<pdfrwt beam="2">0</pdfrwt>
<totfact> 0.68266745E+00</totfact>
</mgrwt>
</event>
<event>
 6    1  0.1274196E-001  0.3000000E+03  0.7818608E-02  0.1093470E+00
         21   -1    0    0  501  502  0.00000000000E+00  0.00000000000E+00  0.16489541102E+01  0.16489541102E+01  0.00000000000E+00 0. -1.
         13   -1    0    0    0    0 -0.00000000000E+00 -0.00000000000E+00 -0.10000000000E+04  0.10000000000E+04  0.00000000000E+00 0.  1.
    9000005    2    1    2  501    0 -0.11907311483E+02  0.35096217558E+02 -0.70268871357E+03  0.70367287570E+03  0.32495014582E+01 0.  0.
         13    1    3    3    0    0 -0.94664298495E+01  0.23714649064E+02 -0.46963333945E+03  0.47032698349E+03  0.00000000000E+00 0.  1.
          1    1    3    3  501    0 -0.24408816335E+01  0.11381568493E+02 -0.23305537412E+03  0.23334589221E+03  0.00000000000E+00 0.  1.
         -3    1    1    2    0  502  0.11907311483E+02 -0.35096217558E+02 -0.29566233232E+03  0.29797607841E+03  0.00000000000E+00 0. -1.
<mgrwt>
<rscale>  1 0.30000000E+03</rscale>
<asrwt>0</asrwt>
<pdfrwt beam="1">  1       21 0.59962094E-02 0.30000000E+03</pdfrwt>
<pdfrwt beam="2">0</pdfrwt>
<totfact> 0.21094644E+04</totfact>
</mgrwt>
</event>
<event>
 6    1  0.1274196E-001  0.3000000E+03  0.7818608E-02  0.1093470E+00
         21   -1    0    0  501  502  0.00000000000E+00  0.00000000000E+00  0.12053183072E+01  0.12053183072E+01  0.00000000000E+00 0. -1.
         13   -1    0    0    0    0 -0.00000000000E+00 -0.00000000000E+00 -0.10000000000E+04  0.10000000000E+04  0.00000000000E+00 0.  1.
    9000005    2    1    2  501    0 -0.17342660576E+02  0.29866777847E+02 -0.46333378241E+03  0.46463177540E+03  0.34205975499E+01 0.  0.
         13    1    3    3    0    0 -0.93143829313E+01  0.19305748206E+02 -0.28982270688E+03  0.29061429949E+03  0.00000000000E+00 0.  1.
          1    1    3    3  501    0 -0.80282776448E+01  0.10561029641E+02 -0.17351107553E+03  0.17401747591E+03  0.00000000000E+00 0.  1.
         -1    1    1    2    0  502  0.17342660576E+02 -0.29866777847E+02 -0.53546089928E+03  0.53657354291E+03  0.00000000000E+00 0. -1.
<mgrwt>
<rscale>  1 0.30000000E+03</rscale>
<asrwt>0</asrwt>
<pdfrwt beam="1">  1       21 0.43829849E-02 0.30000000E+03</pdfrwt>
<pdfrwt beam="2">0</pdfrwt>
<totfact> 0.36032089E+04</totfact>
</mgrwt>
</event>
<event>
 6    1  0.1274196E-001  0.3000000E+03  0.7818608E-02  0.1093470E+00
         21   -1    0    0  501  502  0.00000000000E+00  0.00000000000E+00  0.97715102488E+00  0.97715102488E+00  0.00000000000E+00 0. -1.
         13   -1    0    0    0    0 -0.00000000000E+00 -0.00000000000E+00 -0.10000000000E+04  0.10000000000E+04  0.00000000000E+00 0.  1.
    9000005    2    1    2  501    0  0.26405068385E+02 -0.16260921435E+02 -0.54893019057E+03  0.54981748266E+03  0.36421044880E+01 0.  0.
         13    1    3    3    0    0  0.62038282694E+01 -0.24961923448E+01 -0.10153920353E+03  0.10175916821E+03  0.00000000000E+00 0.  1.
          3    1    3    3  501    0  0.20201240115E+02 -0.13764729090E+02 -0.44739098704E+03  0.44805831446E+03  0.00000000000E+00 0.  1.
         -3    1    1    2    0  502 -0.26405068385E+02  0.16260921435E+02 -0.45009265841E+03  0.45115966836E+03  0.00000000000E+00 0. -1.
<mgrwt>
<rscale>  1 0.30000000E+03</rscale>
<asrwt>0</asrwt>
<pdfrwt beam="1">  1       21 0.35532839E-02 0.30000000E+03</pdfrwt>
<pdfrwt beam="2">0</pdfrwt>
<totfact> 0.51301575E+04</totfact>
</mgrwt>
</event>
<event>
 6    1  0.1274196E-001  0.3000000E+03  0.7818608E-02  0.1093470E+00
         21   -1    0    0  501  502  0.00000000000E+00  0.00000000000E+00  0.29974717737E+01  0.29974717737E+01  0.00000000000E+00 0. -1.
         13   -1    0    0    0    0 -0.00000000000E+00 -0.00000000000E+00 -0.10000000000E+04  0.10000000000E+04  0.00000000000E+00 0.  1.
    9000005    2    1    2  501    0 -0.30051706056E+02 -0.21206030091E+02 -0.86857170298E+03  0.86940376825E+03  0.96596206640E+01 0.  0.
         13    1    3    3    0    0 -0.10417353271E+00 -0.35224340072E-01 -0.60626239807E+02  0.60626339540E+02  0.00000000000E+00 0.  1.
          3    1    3    3  501    0 -0.29947532523E+02 -0.21170805751E+02 -0.80794546318E+03  0.80877742871E+03  0.00000000000E+00 0.  1.
         -1    1    1    2    0  502  0.30051706056E+02  0.21206030091E+02 -0.12843082524E+03  0.13359370353E+03  0.00000000000E+00 0. -1.
<mgrwt>
<rscale>  1 0.30000000E+03</rscale>
<asrwt>0</asrwt>
<pdfrwt beam="1">  1       21 0.10899920E-01 0.30000000E+03</pdfrwt>
<pdfrwt beam="2">0</pdfrwt>
<totfact> 0.73722117E+03</totfact>
</mgrwt>
</event>
<event>
 6    1  0.1274196E-001  0.3000000E+03  0.7818608E-02  0.1093470E+00
         21   -1    0    0  501  502  0.00000000000E+00  0.00000000000E+00  0.95845921743E+01  0.95845921743E+01  0.00000000000E+00 0. -1.
         13   -1    0    0    0    0 -0.00000000000E+00 -0.00000000000E+00 -0.10000000000E+04  0.10000000000E+04  0.00000000000E+00 0.  1.
    9000005    2    1    2  501    0  0.52423873690E+02  0.34492809739E+02 -0.88261725719E+03  0.88485104521E+03  0.31832490980E+01 0.  0.
         13    1    3    3    0    0  0.13264863533E+01  0.10211126098E+01 -0.17470714041E+02  0.17550728934E+02  0.00000000000E+00 0.  1.
          1    1    3    3  501    0  0.51097387337E+02  0.33471697129E+02 -0.86514654315E+03  0.86730031628E+03  0.00000000000E+00 0.  1.
         -1    1    1    2    0  502 -0.52423873690E+02 -0.34492809739E+02 -0.10779815064E+03  0.12473354696E+03  0.00000000000E+00 0. -1.
<mgrwt>
<rscale>  1 0.30000000E+03</rscale>
<asrwt>0</asrwt>
<pdfrwt beam="1">  1       21 0.34853136E-01 0.30000000E+03</pdfrwt>
<pdfrwt beam="2">0</pdfrwt>
<totfact> 0.80266687E+02</totfact>
</mgrwt>
</event>
<event>
 6    1  0.1274196E-001  0.3000000E+03  0.7818608E-02  0.1093470E+00
         21   -1    0    0  501  502  0.00000000000E+00  0.00000000000E+00  0.14239430869E+01  0.14239430869E+01  0.00000000000E+00 0. -1.
         13   -1    0    0    0    0 -0.00000000000E+00 -0.00000000000E+00 -0.10000000000E+04  0.10000000000E+04  0.00000000000E+00 0.  1.
    9000005    2    1    2  501    0 -0.32452329571E+02 -0.16571858876E+02 -0.62674893503E+03  0.62781560704E+03  0.32293454010E+01 0.  0.
         13    1    3    3    0    0 -0.17381114497E+01 -0.51317406246E+00 -0.22121487656E+02  0.22195598553E+02  0.00000000000E+00 0.  1.
          1    1    3    3  501    0 -0.30714218121E+02 -0.16058684813E+02 -0.60462744738E+03  0.60562000848E+03  0.00000000000E+00 0.  1.
         -1    1    1    2    0  502  0.32452329571E+02  0.16571858876E+02 -0.37182712188E+03  0.37360833605E+03  0.00000000000E+00 0. -1.
<mgrwt>
<rscale>  1 0.30000000E+03</rscale>
<asrwt>0</asrwt>
<pdfrwt beam="1">  1       21 0.51779858E-02 0.30000000E+03</pdfrwt>
<pdfrwt beam="2">0</pdfrwt>
<totfact> 0.27135817E+04</totfact>
</mgrwt>
</event>
<event>
 6    1  0.1274196E-001  0.3000000E+03  0.7818608E-02  0.1093470E+00
         21   -1    0    0  501  502  0.00000000000E+00  0.00000000000E+00  0.27061374687E+01  0.27061374687E+01  0.00000000000E+00 0. -1.
         13   -1    0    0    0    0 -0.00000000000E+00 -0.00000000000E+00 -0.10000000000E+04  0.10000000000E+04  0.00000000000E+00 0.  1.
    9000005    2    1    2  501    0 -0.30296363008E+02 -0.27426377097E+02 -0.80583590506E+03  0.80693528864E+03  0.10147827144E+02 0.  0.
         13    1    3    3    0    0 -0.15347247319E+02 -0.19827843913E+02 -0.52615985402E+03  0.52675693956E+03  0.00000000000E+00 0.  1.
          1    1    3    3  501    0 -0.14949115689E+02 -0.75985331836E+01 -0.27967605105E+03  0.28017834909E+03  0.00000000000E+00 0.  1.
         -1    1    1    2    0  502  0.30296363008E+02  0.27426377097E+02 -0.19145795747E+03  0.19577084883E+03  0.00000000000E+00 0. -1.
<mgrwt>
<rscale>  1 0.30000000E+03</rscale>
<asrwt>0</asrwt>
<pdfrwt beam="1">  1       21 0.98405206E-02 0.30000000E+03</pdfrwt>
<pdfrwt beam="2">0</pdfrwt>
<totfact> 0.88537981E+03</totfact>
</mgrwt>
</event>
<event>
 6    1  0.1274196E-001  0.3000000E+03  0.7818608E-02  0.1093470E+00
         21   -1    0    0  501  502  0.00000000000E+00  0.00000000000E+00  0.13773285467E+01  0.13773285467E+01  0.00000000000E+00 0. -1.
         13   -1    0    0    0    0 -0.00000000000E+00 -0.00000000000E+00 -0.10000000000E+04  0.10000000000E+04  0.00000000000E+00 0.  1.
    9000005    2    1    2  501    0  0.42462435568E+01  0.36590152566E+02 -0.44824792831E+03  0.44977128458E+03  0.33366675814E+01 0.  0.
         13    1    3    3    0    0  0.22958721460E+01  0.10443680413E+02 -0.11729525946E+03  0.11778165978E+03  0.00000000000E+00 0.  1.
          3    1    3    3  501    0  0.19503714108E+01  0.26146472154E+02 -0.33095266885E+03  0.33198962480E+03  0.00000000000E+00 0.  1.
         -3    1    1    2    0  502 -0.42462435568E+01 -0.36590152566E+02 -0.55037474314E+03  0.55160604396E+03  0.00000000000E+00 0. -1.
<mgrwt>
<rscale>  1 0.30000000E+03</rscale>
<asrwt>0</asrwt>
<pdfrwt beam="1">  1       21 0.50084780E-02 0.30000000E+03</pdfrwt>
<pdfrwt beam="2">0</pdfrwt>
<totfact> 0.28721582E+04</totfact>
</mgrwt>
</event>
<event>
 6    1  0.1274196E-001  0.3000000E+03  0.7818608E-02  0.1093470E+00
         21   -1    0    0  501  502  0.00000000000E+00  0.00000000000E+00  0.29774130530E+01  0.29774130530E+01  0.00000000000E+00 0. -1.
         13   -1    0    0    0    0 -0.00000000000E+00 -0.00000000000E+00 -0.10000000000E+04  0.10000000000E+04  0.00000000000E+00 0.  1.
    9000005    2    1    2  501    0 -0.26651617003E+02  0.25721288571E+02 -0.86663863028E+03  0.86743454334E+03  0.28771698228E+01 0.  0.
         13    1    3    3    0    0 -0.18580641071E+02  0.17395905332E+02 -0.62434215020E+03  0.62486076710E+03  0.00000000000E+00 0.  1.
          1    1    3    3  501    0 -0.80709759320E+01  0.83253832391E+01 -0.24229648009E+03  0.24257377624E+03  0.00000000000E+00 0.  1.
         -3    1    1    2    0  502  0.26651617003E+02 -0.25721288571E+02 -0.13038395666E+03  0.13554286971E+03  0.00000000000E+00 0. -1.
<mgrwt>
<rscale>  1 0.30000000E+03</rscale>
<asrwt>0</asrwt>
<pdfrwt beam="1">  1       21 0.10826979E-01 0.30000000E+03</pdfrwt>
<pdfrwt beam="2">0</pdfrwt>
<totfact> 0.74617142E+03</totfact>
</mgrwt>
</event>
<event>
 6    1  0.1274196E-001  0.3000000E+03  0.7818608E-02  0.1093470E+00
         21   -1    0    0  501  502  0.00000000000E+00  0.00000000000E+00  0.21092863844E+01  0.21092863844E+01  0.00000000000E+00 0. -1.
         13   -1    0    0    0    0 -0.00000000000E+00 -0.00000000000E+00 -0.10000000000E+04  0.10000000000E+04  0.00000000000E+00 0.  1.
    9000005    2    1    2  501    0  0.42254455433E+02  0.17659468577E+02 -0.50491465600E+03  0.50701062024E+03  0.48644999445E+01 0.  0.
         13    1    3    3    0    0  0.26469252868E+02  0.11922011485E+02 -0.34348463759E+03  0.34470922814E+03  0.00000000000E+00 0.  1.
          3    1    3    3  501    0  0.15785202566E+02  0.57374570918E+01 -0.16143001841E+03  0.16230139210E+03  0.00000000000E+00 0.  1.
         -1    1    1    2    0  502 -0.42254455433E+02 -0.17659468577E+02 -0.49297605762E+03  0.49509866614E+03  0.00000000000E+00 0. -1.
<mgrwt>
<rscale>  1 0.30000000E+03</rscale>
<asrwt>0</asrwt>
<pdfrwt beam="1">  1       21 0.76701485E-02 0.30000000E+03</pdfrwt>
<pdfrwt beam="2">0</pdfrwt>
<totfact> 0.13753249E+04</totfact>
</mgrwt>
</event>
<event>
 6    1  0.1274196E-001  0.3000000E+03  0.7818608E-02  0.1093470E+00
         21   -1    0    0  501  502  0.00000000000E+00  0.00000000000E+00  0.22124404430E+01  0.22124404430E+01  0.00000000000E+00 0. -1.
         13   -1    0    0    0    0 -0.00000000000E+00 -0.00000000000E+00 -0.10000000000E+04  0.10000000000E+04  0.00000000000E+00 0.  1.
    9000005    2    1    2  501    0  0.30276812344E+02  0.11355635432E+02 -0.86242030660E+03  0.86303654816E+03  0.42026644697E+01 0.  0.
         13    1    3    3    0    0  0.12957013770E+02  0.55185280743E+01 -0.42885558463E+03  0.42908676375E+03  0.00000000000E+00 0.  1.
          3    1    3    3  501    0  0.17319798574E+02  0.58371073573E+01 -0.43356472197E+03  0.43394978440E+03  0.00000000000E+00 0.  1.
         -3    1    1    2    0  502 -0.30276812344E+02 -0.11355635432E+02 -0.13536725295E+03  0.13917589229E+03  0.00000000000E+00 0. -1.
<mgrwt>
<rscale>  1 0.30000000E+03</rscale>
<asrwt>0</asrwt>
<pdfrwt beam="1">  1       21 0.80452549E-02 0.30000000E+03</pdfrwt>
<pdfrwt beam="2">0</pdfrwt>
<totfact> 0.12647909E+04</totfact>
</mgrwt>
</event>
<event>
 6    1  0.1274196E-001  0.3000000E+03  0.7818608E-02  0.1093470E+00
         21   -1    0    0  501  502  0.00000000000E+00  0.00000000000E+00  0.15101773176E+01  0.15101773176E+01  0.00000000000E+00 0. -1.
         13   -1    0    0    0    0 -0.00000000000E+00 -0.00000000000E+00 -0.10000000000E+04  0.10000000000E+04  0.00000000000E+00 0.  1.
    9000005    2    1    2  501    0  0.33624971342E+02  0.16454493268E+02 -0.63129379269E+03  0.63241084992E+03  0.32002117647E+01 0.  0.
         13    1    3    3    0    0  0.11962594597E+02  0.58160107139E+01 -0.19919073348E+03  0.19963436065E+03  0.00000000000E+00 0.  1.
          3    1    3    3  501    0  0.21662376745E+02  0.10638482554E+02 -0.43210305921E+03  0.43277648926E+03  0.00000000000E+00 0.  1.
         -3    1    1    2    0  502 -0.33624971342E+02 -0.16454493268E+02 -0.36719602999E+03  0.36909932740E+03  0.00000000000E+00 0. -1.
<mgrwt>
<rscale>  1 0.30000000E+03</rscale>
<asrwt>0</asrwt>
<pdfrwt beam="1">  1       21 0.54915655E-02 0.30000000E+03</pdfrwt>
<pdfrwt beam="2">0</pdfrwt>
<totfact> 0.24538636E+04</totfact>
</mgrwt>
</event>
<event>
 6    1  0.1274196E-001  0.3000000E+03  0.7818608E-02  0.1093470E+00
         21   -1    0    0  501  502  0.00000000000E+00  0.00000000000E+00  0.48106591514E+01  0.48106591514E+01  0.00000000000E+00 0. -1.
         13   -1    0    0    0    0 -0.00000000000E+00 -0.00000000000E+00 -0.10000000000E+04  0.10000000000E+04  0.00000000000E+00 0.  1.
    9000005    2    1    2  501    0  0.57178341414E+01 -0.36930729891E+02 -0.92078818266E+03  0.92155139674E+03  0.30865951007E+01 0.  0.
         13    1    3    3    0    0  0.35081094543E+01 -0.15590082507E+02 -0.36680526687E+03  0.36715318507E+03  0.00000000000E+00 0.  1.
          1    1    3    3  501    0  0.22097246870E+01 -0.21340647384E+02 -0.55398291579E+03  0.55439821167E+03  0.00000000000E+00 0.  1.
         -3    1    1    2    0  502 -0.57178341414E+01  0.36930729891E+02 -0.74401158191E+02  0.83259262414E+02  0.00000000000E+00 0. -1.
<mgrwt>
<rscale>  1 0.30000000E+03</rscale>
<asrwt>0</asrwt>
<pdfrwt beam="1">  1       21 0.17493343E-01 0.30000000E+03</pdfrwt>
<pdfrwt beam="2">0</pdfrwt>
<totfact> 0.30911525E+03</totfact>
</mgrwt>
</event>
<event>
 6    1  0.1274196E-001  0.3000000E+03  0.7818608E-02  0.1093470E+00
         21   -1    0    0  501  502  0.00000000000E+00  0.00000000000E+00  0.95660164753E+00  0.95660164753E+00  0.00000000000E+00 0. -1.
         13   -1    0    0    0    0 -0.00000000000E+00 -0.00000000000E+00 -0.10000000000E+04  0.10000000000E+04  0.00000000000E+00 0.  1.
    9000005    2    1    2  501    0 -0.73600103118E+01  0.29747819993E+02 -0.45137308458E+03  0.45242959672E+03  0.39718962364E+01 0.  0.
         13    1    3    3    0    0 -0.57388716780E+00  0.51813034465E+01 -0.98051129295E+02  0.98189608452E+02  0.00000000000E+00 0.  1.
          1    1    3    3  501    0 -0.67861231440E+01  0.24566516546E+02 -0.35332195529E+03  0.35423998827E+03  0.00000000000E+00 0.  1.
         -3    1    1    2    0  502  0.73600103118E+01 -0.29747819993E+02 -0.54767031377E+03  0.54852700493E+03  0.00000000000E+00 0. -1.
<mgrwt>
<rscale>  1 0.30000000E+03</rscale>
<asrwt>0</asrwt>
<pdfrwt beam="1">  1       21 0.34785588E-02 0.30000000E+03</pdfrwt>
<pdfrwt beam="2">0</pdfrwt>
<totfact> 0.53160878E+04</totfact>
</mgrwt>
</event>
<event>
 6    1  0.1274196E-001  0.3000000E+03  0.7818608E-02  0.1093470E+00
         21   -1    0    0  501  502  0.00000000000E+00  0.00000000000E+00  0.11913536538E+01  0.11913536538E+01  0.00000000000E+00 0. -1.
         13   -1    0    0    0    0 -0.00000000000E+00 -0.00000000000E+00 -0.10000000000E+04  0.10000000000E+04  0.00000000000E+00 0.  1.
    9000005    2    1    2  501    0  0.17698830064E+02 -0.27915153420E+02 -0.64021131324E+03  0.64107393990E+03  0.35730162948E+01 0.  0.
         13    1    3    3    0    0  0.78226094949E+01 -0.12154303125E+02 -0.24629358001E+03  0.24671734406E+03  0.00000000000E+00 0.  1.
          3    1    3    3  501    0  0.98762205695E+01 -0.15760850295E+02 -0.39391773322E+03  0.39435659584E+03  0.00000000000E+00 0.  1.
         -3    1    1    2    0  502 -0.17698830064E+02  0.27915153420E+02 -0.35859733311E+03  0.36011741375E+03  0.00000000000E+00 0. -1.
<mgrwt>
<rscale>  1 0.30000000E+03</rscale>
<asrwt>0</asrwt>
<pdfrwt beam="1">  1       21 0.43322042E-02 0.30000000E+03</pdfrwt>
<pdfrwt beam="2">0</pdfrwt>
<totfact> 0.36749942E+04</totfact>
</mgrwt>
</event>
<event>
 6    1  0.1274196E-001  0.3000000E+03  0.7818608E-02  0.1093470E+00
         21   -1    0    0  501  502  0.00000000000E+00  0.00000000000E+00  0.11217645445E+01  0.11217645445E+01  0.00000000000E+00 0. -1.
         13   -1    0    0    0    0 -0.00000000000E+00 -0.00000000000E+00 -0.10000000000E+04  0.10000000000E+04  0.00000000000E+00 0.  1.
    9000005    2    1    2  501    0 -0.30300567634E+02 -0.35398468658E+01 -0.70410899316E+03  0.70477811080E+03  0.34722169731E+01 0.  0.
         13    1    3    3    0    0 -0.26734734098E+02 -0.20934482838E+01 -0.62686746028E+03  0.62744078708E+03  0.00000000000E+00 0.  1.
          1    1    3    3  501    0 -0.35658335362E+01 -0.14463985819E+01 -0.77241532880E+02  0.77337323715E+02  0.00000000000E+00 0.  1.
         -1    1    1    2    0  502  0.30300567634E+02  0.35398468658E+01 -0.29476924229E+03  0.29634365375E+03  0.00000000000E+00 0. -1.
<mgrwt>
<rscale>  1 0.30000000E+03</rscale>
<asrwt>0</asrwt>
<pdfrwt beam="1">  1       21 0.40791524E-02 0.30000000E+03</pdfrwt>
<pdfrwt beam="2">0</pdfrwt>
<totfact> 0.40681791E+04</totfact>
</mgrwt>
</event>
<event>
 6    1  0.1274196E-001  0.3000000E+03  0.7818608E-02  0.1093470E+00
         21   -1    0    0  501  502  0.00000000000E+00  0.00000000000E+00  0.10928614881E+01  0.10928614881E+01  0.00000000000E+00 0. -1.
         13   -1    0    0    0    0 -0.00000000000E+00 -0.00000000000E+00 -0.10000000000E+04  0.10000000000E+04  0.00000000000E+00 0.  1.
    9000005    2    1    2  501    0  0.30620125714E+02 -0.53055636614E+01 -0.66692793821E+03  0.66766231319E+03  0.37879527793E+01 0.  0.
         13    1    3    3    0    0  0.79700242437E+01  0.12257621674E+00 -0.18592824391E+03  0.18609902792E+03  0.00000000000E+00 0.  1.
          1    1    3    3  501    0  0.22650101470E+02 -0.54281398782E+01 -0.48099969431E+03  0.48156328527E+03  0.00000000000E+00 0.  1.
         -1    1    1    2    0  502 -0.30620125714E+02  0.53055636614E+01 -0.33197920030E+03  0.33343054830E+03  0.00000000000E+00 0. -1.
<mgrwt>
<rscale>  1 0.30000000E+03</rscale>
<asrwt>0</asrwt>
<pdfrwt beam="1">  1       21 0.39740502E-02 0.30000000E+03</pdfrwt>
<pdfrwt beam="2">0</pdfrwt>
<totfact> 0.42510650E+04</totfact>
</mgrwt>
</event>
<event>
 6    1  0.1274196E-001  0.3000000E+03  0.7818608E-02  0.1093470E+00
         21   -1    0    0  501  502  0.00000000000E+00  0.00000000000E+00  0.11807526301E+01  0.11807526301E+01  0.00000000000E+00 0. -1.
         13   -1    0    0    0    0 -0.00000000000E+00 -0.00000000000E+00 -0.10000000000E+04  0.10000000000E+04  0.00000000000E+00 0.  1.
    9000005    2    1    2  501    0 -0.26798832501E+02  0.15637988812E+02 -0.71266859161E+03  0.71335281460E+03  0.36045132900E+01 0.  0.
         13    1    3    3    0    0 -0.31638296051E+01  0.32954922075E+01 -0.10855988959E+03  0.10865596953E+03  0.00000000000E+00 0.  1.
          1    1    3    3  501    0 -0.23635002896E+02  0.12342496605E+02 -0.60410870202E+03  0.60469684507E+03  0.00000000000E+00 0.  1.
         -3    1    1    2    0  502  0.26798832501E+02 -0.15637988812E+02 -0.28615065576E+03  0.28782793803E+03  0.00000000000E+00 0. -1.
<mgrwt>
<rscale>  1 0.30000000E+03</rscale>
<asrwt>0</asrwt>
<pdfrwt beam="1">  1       21 0.42936550E-02 0.30000000E+03</pdfrwt>
<pdfrwt beam="2">0</pdfrwt>
<totfact> 0.37309799E+04</totfact>
</mgrwt>
</event>
<event>
 6    1  0.1274196E-001  0.3000000E+03  0.7818608E-02  0.1093470E+00
         21   -1    0    0  501  502  0.00000000000E+00  0.00000000000E+00  0.41241707245E+01  0.41241707245E+01  0.00000000000E+00 0. -1.
         13   -1    0    0    0    0 -0.00000000000E+00 -0.00000000000E+00 -0.10000000000E+04  0.10000000000E+04  0.00000000000E+00 0.  1.
    9000005    2    1    2  501    0  0.52109617137E+02  0.11513930720E+02 -0.77692376465E+03  0.77876226312E+03  0.34847626589E+01 0.  0.
         13    1    3    3    0    0  0.26244017164E+02  0.52419720470E+01 -0.41363454594E+03  0.41449941412E+03  0.00000000000E+00 0.  1.
          1    1    3    3  501    0  0.25865599973E+02  0.62719586730E+01 -0.36328921871E+03  0.36426284900E+03  0.00000000000E+00 0.  1.
         -3    1    1    2    0  502 -0.52109617137E+02 -0.11513930720E+02 -0.21895206462E+03  0.22536190761E+03  0.00000000000E+00 0. -1.
<mgrwt>
<rscale>  1 0.30000000E+03</rscale>
<asrwt>0</asrwt>
<pdfrwt beam="1">  1       21 0.14997016E-01 0.30000000E+03</pdfrwt>
<pdfrwt beam="2">0</pdfrwt>
<totfact> 0.41195527E+03</totfact>
</mgrwt>
</event>
<event>
 6    1  0.1274196E-001  0.3000000E+03  0.7818608E-02  0.1093470E+00
         21   -1    0    0  501  502  0.00000000000E+00  0.00000000000E+00  0.10334921220E+01  0.10334921220E+01  0.00000000000E+00 0. -1.
         13   -1    0    0    0    0 -0.00000000000E+00 -0.00000000000E+00 -0.10000000000E+04  0.10000000000E+04  0.00000000000E+00 0.  1.
    9000005    2    1    2  501    0 -0.60815184830E-01  0.31463095623E+02 -0.40359979408E+03  0.40483599634E+03  0.30757213862E+01 0.  0.
         13    1    3    3    0    0  0.14081596619E+01  0.14938398040E+02 -0.18474347895E+03  0.18535180513E+03  0.00000000000E+00 0.  1.
          1    1    3    3  501    0 -0.14689748467E+01  0.16524697583E+02 -0.21885631513E+03  0.21948419121E+03  0.00000000000E+00 0.  1.
         -3    1    1    2    0  502  0.60815184830E-01 -0.31463095623E+02 -0.59536671379E+03  0.59619749578E+03  0.00000000000E+00 0. -1.
<mgrwt>
<rscale>  1 0.30000000E+03</rscale>
<asrwt>0</asrwt>
<pdfrwt beam="1">  1       21 0.37581611E-02 0.30000000E+03</pdfrwt>
<pdfrwt beam="2">0</pdfrwt>
<totfact> 0.46696484E+04</totfact>
</mgrwt>
</event>
<event>
 6    1  0.1274196E-001  0.3000000E+03  0.7818608E-02  0.1093470E+00
         21   -1    0    0  501  502  0.00000000000E+00  0.00000000000E+00  0.17893726099E+01  0.17893726099E+01  0.00000000000E+00 0. -1.
         13   -1    0    0    0    0 -0.00000000000E+00 -0.00000000000E+00 -0.10000000000E+04  0.10000000000E+04  0.00000000000E+00 0.  1.
    9000005    2    1    2  501    0 -0.38402993642E+02 -0.60713436831E+01 -0.69512742822E+03  0.69622256035E+03  0.34728868779E+01 0.  0.
         13    1    3    3    0    0 -0.38274948516E+02 -0.62830815689E+01 -0.69060333351E+03  0.69169170376E+03  0.00000000000E+00 0.  1.
          1    1    3    3  501    0 -0.12804512571E+00  0.21173788587E+00 -0.45240947074E+01  0.45308565866E+01  0.00000000000E+00 0.  1.
         -3    1    1    2    0  502  0.38402993642E+02  0.60713436831E+01 -0.30308319918E+03  0.30556681226E+03  0.00000000000E+00 0. -1.
<mgrwt>
<rscale>  1 0.30000000E+03</rscale>
<asrwt>0</asrwt>
<pdfrwt beam="1">  1       21 0.65068232E-02 0.30000000E+03</pdfrwt>
<pdfrwt beam="2">0</pdfrwt>
<totfact> 0.18316741E+04</totfact>
</mgrwt>
</event>
<event>
 6    1  0.1274196E-001  0.3000000E+03  0.7818608E-02  0.1093470E+00
         21   -1    0    0  501  502  0.00000000000E+00  0.00000000000E+00  0.88199596872E+01  0.88199596872E+01  0.00000000000E+00 0. -1.
         13   -1    0    0    0    0 -0.00000000000E+00 -0.00000000000E+00 -0.10000000000E+04  0.10000000000E+04  0.00000000000E+00 0.  1.
    9000005    2    1    2  501    0 -0.73562083590E+02 -0.49483164502E+02 -0.66042624390E+03  0.66639035005E+03  0.73014590124E+01 0.  0.
         13    1    3    3    0    0 -0.36170413763E+00 -0.10633861298E+00 -0.84537134375E+00  0.92562978162E+00  0.00000000000E+00 0.  1.
          3    1    3    3  501    0 -0.73200379452E+02 -0.49376825889E+02 -0.65958087255E+03  0.66546472027E+03  0.00000000000E+00 0.  1.
         -1    1    1    2    0  502  0.73562083590E+02  0.49483164502E+02 -0.33075379642E+03  0.34242960964E+03  0.00000000000E+00 0. -1.
<mgrwt>
<rscale>  1 0.30000000E+03</rscale>
<asrwt>0</asrwt>
<pdfrwt beam="1">  1       21 0.32072648E-01 0.30000000E+03</pdfrwt>
<pdfrwt beam="2">0</pdfrwt>
<totfact> 0.95059915E+02</totfact>
</mgrwt>
</event>
<event>
 6    1  0.1274196E-001  0.3000000E+03  0.7818608E-02  0.1093470E+00
         21   -1    0    0  501  502  0.00000000000E+00  0.00000000000E+00  0.33428852995E+01  0.33428852995E+01  0.00000000000E+00 0. -1.
         13   -1    0    0    0    0 -0.00000000000E+00 -0.00000000000E+00 -0.10000000000E+04  0.10000000000E+04  0.00000000000E+00 0.  1.
    9000005    2    1    2  501    0  0.44968062204E+02  0.61826542917E+01 -0.18927045119E+03  0.19468128967E+03  0.41411376727E+01 0.  0.
         13    1    3    3    0    0  0.22348501505E+02  0.23709233161E+01 -0.85344236586E+02  0.88253699726E+02  0.00000000000E+00 0.  1.
          1    1    3    3  501    0  0.22619560699E+02  0.38117309757E+01 -0.10392621460E+03  0.10642758994E+03  0.00000000000E+00 0.  1.
         -1    1    1    2    0  502 -0.44968062204E+02 -0.61826542917E+01 -0.80738666351E+03  0.80866159563E+03  0.00000000000E+00 0. -1.
<mgrwt>
<rscale>  1 0.30000000E+03</rscale>
<asrwt>0</asrwt>
<pdfrwt beam="1">  1       21 0.12155972E-01 0.30000000E+03</pdfrwt>
<pdfrwt beam="2">0</pdfrwt>
<totfact> 0.60534537E+03</totfact>
</mgrwt>
</event>
<event>
 6    1  0.1274196E-001  0.3000000E+03  0.7818608E-02  0.1093470E+00
         21   -1    0    0  501  502  0.00000000000E+00  0.00000000000E+00  0.18802484458E+01  0.18802484458E+01  0.00000000000E+00 0. -1.
         13   -1    0    0    0    0 -0.00000000000E+00 -0.00000000000E+00 -0.10000000000E+04  0.10000000000E+04  0.00000000000E+00 0.  1.
    9000005    2    1    2  501    0 -0.33054193258E+02 -0.27804964760E+02 -0.53647529766E+03  0.53821949146E+03  0.29631454659E+01 0.  0.
         13    1    3    3    0    0 -0.32262499477E+02 -0.27145712408E+02 -0.52823019501E+03  0.52991027307E+03  0.00000000000E+00 0.  1.
          1    1    3    3  501    0 -0.79169378095E+00 -0.65925235157E+00 -0.82451026449E+01  0.83092183947E+01  0.00000000000E+00 0.  1.
         -1    1    1    2    0  502  0.33054193258E+02  0.27804964760E+02 -0.46164445389E+03  0.46366075699E+03  0.00000000000E+00 0. -1.
<mgrwt>
<rscale>  1 0.30000000E+03</rscale>
<asrwt>0</asrwt>
<pdfrwt beam="1">  1       21 0.68372815E-02 0.30000000E+03</pdfrwt>
<pdfrwt beam="2">0</pdfrwt>
<totfact> 0.16808814E+04</totfact>
</mgrwt>
</event>
<event>
 6    1  0.1274196E-001  0.3000000E+03  0.7818608E-02  0.1093470E+00
         21   -1    0    0  501  502  0.00000000000E+00  0.00000000000E+00  0.14470836386E+01  0.14470836386E+01  0.00000000000E+00 0. -1.
         13   -1    0    0    0    0 -0.00000000000E+00 -0.00000000000E+00 -0.10000000000E+04  0.10000000000E+04  0.00000000000E+00 0.  1.
    9000005    2    1    2  501    0 -0.35120034449E+02  0.10393524719E+02 -0.63178123901E+03  0.63285122706E+03  0.34204469591E+01 0.  0.
         13    1    3    3    0    0 -0.22248137770E+02  0.64970537721E+01 -0.42741279855E+03  0.42804075940E+03  0.00000000000E+00 0.  1.
          1    1    3    3  501    0 -0.12871896680E+02  0.38964709469E+01 -0.20436844046E+03  0.20481046766E+03  0.00000000000E+00 0.  1.
         -1    1    1    2    0  502  0.35120034449E+02 -0.10393524719E+02 -0.36677167735E+03  0.36859585658E+03  0.00000000000E+00 0. -1.
<mgrwt>
<rscale>  1 0.30000000E+03</rscale>
<asrwt>0</asrwt>
<pdfrwt beam="1">  1       21 0.52621334E-02 0.30000000E+03</pdfrwt>
<pdfrwt beam="2">0</pdfrwt>
<totfact> 0.26398554E+04</totfact>
</mgrwt>
</event>
<event>
 6    1  0.1274196E-001  0.3000000E+03  0.7818608E-02  0.1093470E+00
         21   -1    0    0  501  502  0.00000000000E+00  0.00000000000E+00  0.11955784859E+01  0.11955784859E+01  0.00000000000E+00 0. -1.
         13   -1    0    0    0    0 -0.00000000000E+00 -0.00000000000E+00 -0.10000000000E+04  0.10000000000E+04  0.00000000000E+00 0.  1.
    9000005    2    1    2  501    0 -0.22077091627E+02 -0.20932443615E+02 -0.73385517543E+03  0.73450536838E+03  0.53993046431E+01 0.  0.
         13    1    3    3    0    0 -0.10454798333E+02 -0.12041438374E+02 -0.32980724031E+03  0.33019254202E+03  0.00000000000E+00 0.  1.
          3    1    3    3  501    0 -0.11622293294E+02 -0.88910052403E+01 -0.40404793512E+03  0.40431282635E+03  0.00000000000E+00 0.  1.
         -3    1    1    2    0  502  0.22077091627E+02  0.20932443615E+02 -0.26494924608E+03  0.26669021011E+03  0.00000000000E+00 0. -1.
<mgrwt>
<rscale>  1 0.30000000E+03</rscale>
<asrwt>0</asrwt>
<pdfrwt beam="1">  1       21 0.43475673E-02 0.30000000E+03</pdfrwt>
<pdfrwt beam="2">0</pdfrwt>
<totfact> 0.36530444E+04</totfact>
</mgrwt>
</event>
<event>
 6    1  0.1274196E-001  0.3000000E+03  0.7818608E-02  0.1093470E+00
         21   -1    0    0  501  502  0.00000000000E+00  0.00000000000E+00  0.19602163568E+01  0.19602163568E+01  0.00000000000E+00 0. -1.
         13   -1    0    0    0    0 -0.00000000000E+00 -0.00000000000E+00 -0.10000000000E+04  0.10000000000E+04  0.00000000000E+00 0.  1.
    9000005    2    1    2  501    0  0.27112333221E+02 -0.29557161251E+02 -0.71031527553E+03  0.71145359515E+03  0.31181744512E+01 0.  0.
         13    1    3    3    0    0  0.20925858715E+02 -0.23830072740E+02 -0.57917306766E+03  0.58004069360E+03  0.00000000000E+00 0.  1.
          1    1    3    3  501    0  0.61864745056E+01 -0.57270885105E+01 -0.13114220786E+03  0.13141290155E+03  0.00000000000E+00 0.  1.
         -3    1    1    2    0  502 -0.27112333221E+02  0.29557161251E+02 -0.28772450812E+03  0.29050662121E+03  0.00000000000E+00 0. -1.
<mgrwt>
<rscale>  1 0.30000000E+03</rscale>
<asrwt>0</asrwt>
<pdfrwt beam="1">  1       21 0.71280745E-02 0.30000000E+03</pdfrwt>
<pdfrwt beam="2">0</pdfrwt>
<totfact> 0.15633733E+04</totfact>
</mgrwt>
</event>
<event>
 6    1  0.1274196E-001  0.3000000E+03  0.7818608E-02  0.1093470E+00
         21   -1    0    0  501  502  0.00000000000E+00  0.00000000000E+00  0.18288958223E+01  0.18288958223E+01  0.00000000000E+00 0. -1.
         13   -1    0    0    0    0 -0.00000000000E+00 -0.00000000000E+00 -0.10000000000E+04  0.10000000000E+04  0.00000000000E+00 0.  1.
    9000005    2    1    2  501    0 -0.95992566743E+01 -0.33164692674E+02 -0.79286878847E+03  0.79364368164E+03  0.61102462725E+01 0.  0.
         13    1    3    3    0    0 -0.46637987831E+01 -0.10822945892E+02 -0.32889456200E+03  0.32910563667E+03  0.00000000000E+00 0.  1.
          3    1    3    3  501    0 -0.49354578912E+01 -0.22341746782E+02 -0.46397422647E+03  0.46453804497E+03  0.00000000000E+00 0.  1.
         -3    1    1    2    0  502  0.95992566743E+01  0.33164692674E+02 -0.20530231571E+03  0.20818521418E+03  0.00000000000E+00 0. -1.
<mgrwt>
<rscale>  1 0.30000000E+03</rscale>
<asrwt>0</asrwt>
<pdfrwt beam="1">  1       21 0.66505443E-02 0.30000000E+03</pdfrwt>
<pdfrwt beam="2">0</pdfrwt>
<totfact> 0.17636339E+04</totfact>
</mgrwt>
</event>
<event>
 6    1  0.1274196E-001  0.3000000E+03  0.7818608E-02  0.1093470E+00
         21   -1    0    0  501  502  0.00000000000E+00  0.00000000000E+00  0.15960869214E+01  0.15960869214E+01  0.00000000000E+00 0. -1.
         13   -1    0    0    0    0 -0.00000000000E+00 -0.00000000000E+00 -0.10000000000E+04  0.10000000000E+04  0.00000000000E+00 0.  1.
    9000005    2    1    2  501    0 -0.47031034352E+01 -0.30307332235E+02 -0.81966801157E+03  0.82024786924E+03  0.32037833921E+01 0.  0.
         13    1    3    3    0    0 -0.47426636857E+01 -0.29426339050E+02 -0.80635065964E+03  0.80690134997E+03  0.00000000000E+00 0.  1.
          3    1    3    3  501    0  0.39560250473E-01 -0.88099318491E+00 -0.13317351934E+02  0.13346519267E+02  0.00000000000E+00 0.  1.
         -1    1    1    2    0  502  0.47031034352E+01  0.30307332235E+02 -0.17873590151E+03  0.18134821768E+03  0.00000000000E+00 0. -1.
<mgrwt>
<rscale>  1 0.30000000E+03</rscale>
<asrwt>0</asrwt>
<pdfrwt beam="1">  1       21 0.58039647E-02 0.30000000E+03</pdfrwt>
<pdfrwt beam="2">0</pdfrwt>
<totfact> 0.22313298E+04</totfact>
</mgrwt>
</event>
<event>
 6    1  0.1274196E-001  0.3000000E+03  0.7818608E-02  0.1093470E+00
         21   -1    0    0  501  502  0.00000000000E+00  0.00000000000E+00  0.11247464282E+01  0.11247464282E+01  0.00000000000E+00 0. -1.
         13   -1    0    0    0    0 -0.00000000000E+00 -0.00000000000E+00 -0.10000000000E+04  0.10000000000E+04  0.00000000000E+00 0.  1.
    9000005    2    1    2  501    0  0.30410980478E+02 -0.84654920462E+01 -0.66468997215E+03  0.66545184820E+03  0.41122865169E+01 0.  0.
         13    1    3    3    0    0  0.26348612812E+02 -0.79627868372E+01 -0.60146031196E+03  0.60208982904E+03  0.00000000000E+00 0.  1.
          1    1    3    3  501    0  0.40623676660E+01 -0.50270520900E+00 -0.63229660194E+02  0.63362019159E+02  0.00000000000E+00 0.  1.
         -3    1    1    2    0  502 -0.30410980478E+02  0.84654920462E+01 -0.33418528142E+03  0.33567289823E+03  0.00000000000E+00 0. -1.
<mgrwt>
<rscale>  1 0.30000000E+03</rscale>
<asrwt>0</asrwt>
<pdfrwt beam="1">  1       21 0.40899956E-02 0.30000000E+03</pdfrwt>
<pdfrwt beam="2">0</pdfrwt>
<totfact> 0.40500126E+04</totfact>
</mgrwt>
</event>
<event>
 6    1  0.1274196E-001  0.3000000E+03  0.7818608E-02  0.1093470E+00
         21   -1    0    0  501  502  0.00000000000E+00  0.00000000000E+00  0.15172370165E+01  0.15172370165E+01  0.00000000000E+00 0. -1.
         13   -1    0    0    0    0 -0.00000000000E+00 -0.00000000000E+00 -0.10000000000E+04  0.10000000000E+04  0.00000000000E+00 0.  1.
    9000005    2    1    2  501    0  0.15004667520E+02  0.32455050370E+02 -0.69492810273E+03  0.69586399868E+03  0.48131442577E+01 0.  0.
         13    1    3    3    0    0  0.10945013654E+02  0.20836698376E+02 -0.49255590312E+03  0.49311791594E+03  0.00000000000E+00 0.  1.
          1    1    3    3  501    0  0.40596538663E+01  0.11618351994E+02 -0.20237219961E+03  0.20274608275E+03  0.00000000000E+00 0.  1.
         -1    1    1    2    0  502 -0.15004667520E+02 -0.32455050370E+02 -0.30355466025E+03  0.30565323833E+03  0.00000000000E+00 0. -1.
<mgrwt>
<rscale>  1 0.30000000E+03</rscale>
<asrwt>0</asrwt>
<pdfrwt beam="1">  1       21 0.55172371E-02 0.30000000E+03</pdfrwt>
<pdfrwt beam="2">0</pdfrwt>
<totfact> 0.24343171E+04</totfact>
</mgrwt>
</event>
<event>
 6    1  0.1274196E-001  0.3000000E+03  0.7818608E-02  0.1093470E+00
         21   -1    0    0  501  502  0.00000000000E+00  0.00000000000E+00  0.25432539516E+01  0.25432539516E+01  0.00000000000E+00 0. -1.
         13   -1    0    0    0    0 -0.00000000000E+00 -0.00000000000E+00 -0.10000000000E+04  0.10000000000E+04  0.00000000000E+00 0.  1.
    9000005    2    1    2  501    0  0.91749404709E+01 -0.30065465486E+02 -0.89057500834E+03  0.89113491673E+03  0.30793802568E+01 0.  0.
         13    1    3    3    0    0  0.79022093727E+01 -0.22324844486E+02 -0.64480200006E+03  0.64523674948E+03  0.00000000000E+00 0.  1.
          1    1    3    3  501    0  0.12727310983E+01 -0.77406210004E+01 -0.24577300828E+03  0.24589816725E+03  0.00000000000E+00 0.  1.
         -1    1    1    2    0  502 -0.91749404709E+01  0.30065465486E+02 -0.10688173771E+03  0.11140833723E+03  0.00000000000E+00 0. -1.
<mgrwt>
<rscale>  1 0.30000000E+03</rscale>
<asrwt>0</asrwt>
<pdfrwt beam="1">  1       21 0.92482157E-02 0.30000000E+03</pdfrwt>
<pdfrwt beam="2">0</pdfrwt>
<totfact> 0.98891181E+03</totfact>
</mgrwt>
</event>
<event>
 6    1  0.1274196E-001  0.3000000E+03  0.7818608E-02  0.1093470E+00
         21   -1    0    0  501  502  0.00000000000E+00  0.00000000000E+00  0.20732955576E+01  0.20732955576E+01  0.00000000000E+00 0. -1.
         13   -1    0    0    0    0 -0.00000000000E+00 -0.00000000000E+00 -0.10000000000E+04  0.10000000000E+04  0.00000000000E+00 0.  1.
    9000005    2    1    2  501    0  0.37685564961E+02  0.97445628477E+01 -0.75742791785E+03  0.75844483937E+03  0.51347169606E+01 0.  0.
         13    1    3    3    0    0  0.23871940109E+02  0.36819772601E+01 -0.47864391951E+03  0.47925298973E+03  0.00000000000E+00 0.  1.
          3    1    3    3  501    0  0.13813624853E+02  0.60625855875E+01 -0.27878399834E+03  0.27919184964E+03  0.00000000000E+00 0.  1.
         -3    1    1    2    0  502 -0.37685564961E+02 -0.97445628477E+01 -0.24049878659E+03  0.24362845619E+03  0.00000000000E+00 0. -1.
<mgrwt>
<rscale>  1 0.30000000E+03</rscale>
<asrwt>0</asrwt>
<pdfrwt beam="1">  1       21 0.75392725E-02 0.30000000E+03</pdfrwt>
<pdfrwt beam="2">0</pdfrwt>
<totfact> 0.14174242E+04</totfact>
</mgrwt>
</event>
<event>
 6    1  0.1274196E-001  0.3000000E+03  0.7818608E-02  0.1093470E+00
         21   -1    0    0  501  502  0.00000000000E+00  0.00000000000E+00  0.18386106404E+01  0.18386106404E+01  0.00000000000E+00 0. -1.
         13   -1    0    0    0    0 -0.00000000000E+00 -0.00000000000E+00 -0.10000000000E+04  0.10000000000E+04  0.00000000000E+00 0.  1.
    9000005    2    1    2  501    0  0.42611984901E+02  0.38952701106E+01 -0.49102010929E+03  0.49289536003E+03  0.37594986366E+01 0.  0.
         13    1    3    3    0    0  0.25136350436E+02  0.30696378134E+01 -0.30939649050E+03  0.31043106662E+03  0.00000000000E+00 0.  1.
          1    1    3    3  501    0  0.17475634465E+02  0.82563229717E+00 -0.18162361879E+03  0.18246429341E+03  0.00000000000E+00 0.  1.
         -1    1    1    2    0  502 -0.42611984901E+02 -0.38952701106E+01 -0.50714128007E+03  0.50894325061E+03  0.00000000000E+00 0. -1.
<mgrwt>
<rscale>  1 0.30000000E+03</rscale>
<asrwt>0</asrwt>
<pdfrwt beam="1">  1       21 0.66858710E-02 0.30000000E+03</pdfrwt>
<pdfrwt beam="2">0</pdfrwt>
<totfact> 0.17475053E+04</totfact>
</mgrwt>
</event>
<event>
 6    1  0.1274196E-001  0.3000000E+03  0.7818608E-02  0.1093470E+00
         21   -1    0    0  501  502  0.00000000000E+00  0.00000000000E+00  0.11891625238E+01  0.11891625238E+01  0.00000000000E+00 0. -1.
         13   -1    0    0    0    0 -0.00000000000E+00 -0.00000000000E+00 -0.10000000000E+04  0.10000000000E+04  0.00000000000E+00 0.  1.
    9000005    2    1    2  501    0  0.32377982054E+02  0.75215113856E+01 -0.62749265439E+03  0.62838613149E+03  0.41463337819E+01 0.  0.
         13    1    3    3    0    0  0.12186456129E+02  0.91743874517E+00 -0.21594765547E+03  0.21629318369E+03  0.00000000000E+00 0.  1.
          3    1    3    3  501    0  0.20191525925E+02  0.66040726404E+01 -0.41154499892E+03  0.41209294781E+03  0.00000000000E+00 0.  1.
         -1    1    1    2    0  502 -0.32377982054E+02 -0.75215113856E+01 -0.37131818309E+03  0.37280303103E+03  0.00000000000E+00 0. -1.
<mgrwt>
<rscale>  1 0.30000000E+03</rscale>
<asrwt>0</asrwt>
<pdfrwt beam="1">  1       21 0.43242365E-02 0.30000000E+03</pdfrwt>
<pdfrwt beam="2">0</pdfrwt>
<totfact> 0.36864587E+04</totfact>
</mgrwt>
</event>
<event>
 6    1  0.1274196E-001  0.3000000E+03  0.7818608E-02  0.1093470E+00
         21   -1    0    0  501  502  0.00000000000E+00  0.00000000000E+00  0.43173892582E+01  0.43173892582E+01  0.00000000000E+00 0. -1.
         13   -1    0    0    0    0 -0.00000000000E+00 -0.00000000000E+00 -0.10000000000E+04  0.10000000000E+04  0.00000000000E+00 0.  1.
    9000005    2    1    2  501    0  0.46568673512E+01 -0.51932930813E+02 -0.80319634242E+03  0.80489402250E+03  0.33626276299E+01 0.  0.
         13    1    3    3    0    0  0.55152653027E+00 -0.16303261517E+02 -0.23198303306E+03  0.23255586027E+03  0.00000000000E+00 0.  1.
          3    1    3    3  501    0  0.41053408210E+01 -0.35629669297E+02 -0.57121330936E+03  0.57233816223E+03  0.00000000000E+00 0.  1.
         -3    1    1    2    0  502 -0.46568673512E+01  0.51932930813E+02 -0.19248626832E+03  0.19942336676E+03  0.00000000000E+00 0. -1.
<mgrwt>
<rscale>  1 0.30000000E+03</rscale>
<asrwt>0</asrwt>
<pdfrwt beam="1">  1       21 0.15699630E-01 0.30000000E+03</pdfrwt>
<pdfrwt beam="2">0</pdfrwt>
<totfact> 0.37839082E+03</totfact>
</mgrwt>
</event>
<event>
 6    1  0.1274196E-001  0.3000000E+03  0.7818608E-02  0.1093470E+00
         21   -1    0    0  501  502  0.00000000000E+00  0.00000000000E+00  0.27547008325E+01  0.27547008325E+01  0.00000000000E+00 0. -1.
         13   -1    0    0    0    0 -0.00000000000E+00 -0.00000000000E+00 -0.10000000000E+04  0.10000000000E+04  0.00000000000E+00 0.  1.
    9000005    2    1    2  501    0 -0.51138262646E+02 -0.77274805375E+01 -0.58117374938E+03  0.58348107847E+03  0.35222305993E+01 0.  0.
         13    1    3    3    0    0 -0.85183189052E+01 -0.17515136120E+01 -0.11239684057E+03  0.11273277841E+03  0.00000000000E+00 0.  1.
          3    1    3    3  501    0 -0.42619943741E+02 -0.59759669255E+01 -0.46877690881E+03  0.47074830007E+03  0.00000000000E+00 0.  1.
         -1    1    1    2    0  502  0.51138262646E+02  0.77274805375E+01 -0.41607154979E+03  0.41927362236E+03  0.00000000000E+00 0. -1.
<mgrwt>
<rscale>  1 0.30000000E+03</rscale>
<asrwt>0</asrwt>
<pdfrwt beam="1">  1       21 0.10017115E-01 0.30000000E+03</pdfrwt>
<pdfrwt beam="2">0</pdfrwt>
<totfact> 0.85769488E+03</totfact>
</mgrwt>
</event>
<event>
 6    1  0.1274196E-001  0.3000000E+03  0.7818608E-02  0.1093470E+00
         21   -1    0    0  501  502  0.00000000000E+00  0.00000000000E+00  0.10881741743E+01  0.10881741743E+01  0.00000000000E+00 0. -1.
         13   -1    0    0    0    0 -0.00000000000E+00 -0.00000000000E+00 -0.10000000000E+04  0.10000000000E+04  0.00000000000E+00 0.  1.
    9000005    2    1    2  501    0 -0.31014811033E+02  0.10536300228E+02 -0.55026324338E+03  0.55124544314E+03  0.29949042469E+01 0.  0.
         13    1    3    3    0    0 -0.17084293856E+02  0.65647412569E+01 -0.32876081868E+03  0.32926986625E+03  0.00000000000E+00 0.  1.
          1    1    3    3  501    0 -0.13930517177E+02  0.39715589715E+01 -0.22150242470E+03  0.22197557689E+03  0.00000000000E+00 0.  1.
         -1    1    1    2    0  502  0.31014811033E+02 -0.10536300228E+02 -0.44864858245E+03  0.44984273103E+03  0.00000000000E+00 0. -1.
<mgrwt>
<rscale>  1 0.30000000E+03</rscale>
<asrwt>0</asrwt>
<pdfrwt beam="1">  1       21 0.39570053E-02 0.30000000E+03</pdfrwt>
<pdfrwt beam="2">0</pdfrwt>
<totfact> 0.42819342E+04</totfact>
</mgrwt>
</event>
<event>
 6    1  0.1274196E-001  0.3000000E+03  0.7818608E-02  0.1093470E+00
         21   -1    0    0  501  502  0.00000000000E+00  0.00000000000E+00  0.55579043354E+01  0.55579043354E+01  0.00000000000E+00 0. -1.
         13   -1    0    0    0    0 -0.00000000000E+00 -0.00000000000E+00 -0.10000000000E+04  0.10000000000E+04  0.00000000000E+00 0.  1.
    9000005    2    1    2  501    0 -0.65183781057E+02 -0.33141897939E+02 -0.59400043930E+03  0.59849423504E+03  0.33936367209E+01 0.  0.
         13    1    3    3    0    0 -0.37550871859E+02 -0.17587658436E+02 -0.32827153128E+03  0.33088002653E+03  0.00000000000E+00 0.  1.
          3    1    3    3  501    0 -0.27632909198E+02 -0.15554239504E+02 -0.26572890802E+03  0.26761420850E+03  0.00000000000E+00 0.  1.
         -1    1    1    2    0  502  0.65183781057E+02  0.33141897939E+02 -0.40044165636E+03  0.40706366930E+03  0.00000000000E+00 0. -1.
<mgrwt>
<rscale>  1 0.30000000E+03</rscale>
<asrwt>0</asrwt>
<pdfrwt beam="1">  1       21 0.20210604E-01 0.30000000E+03</pdfrwt>
<pdfrwt beam="2">0</pdfrwt>
<totfact> 0.23516955E+03</totfact>
</mgrwt>
</event>
<event>
 6    1  0.1274196E-001  0.3000000E+03  0.7818608E-02  0.1093470E+00
         21   -1    0    0  501  502  0.00000000000E+00  0.00000000000E+00  0.23008147773E+01  0.23008147773E+01  0.00000000000E+00 0. -1.
         13   -1    0    0    0    0 -0.00000000000E+00 -0.00000000000E+00 -0.10000000000E+04  0.10000000000E+04  0.00000000000E+00 0.  1.
    9000005    2    1    2  501    0  0.46942942427E+02  0.48668470075E+01 -0.41267770823E+03  0.41537879731E+03  0.30542335233E+01 0.  0.
         13    1    3    3    0    0  0.40498940865E+02  0.32156842318E+01 -0.35812256959E+03  0.36041958837E+03  0.00000000000E+00 0.  1.
          3    1    3    3  501    0  0.64440015617E+01  0.16511627757E+01 -0.54555138644E+02  0.54959208938E+02  0.00000000000E+00 0.  1.
         -3    1    1    2    0  502 -0.46942942427E+02 -0.48668470075E+01 -0.58502147699E+03  0.58692201747E+03  0.00000000000E+00 0. -1.
<mgrwt>
<rscale>  1 0.30000000E+03</rscale>
<asrwt>0</asrwt>
<pdfrwt beam="1">  1       21 0.83666168E-02 0.30000000E+03</pdfrwt>
<pdfrwt beam="2">0</pdfrwt>
<totfact> 0.11805800E+04</totfact>
</mgrwt>
</event>
<event>
 6    1  0.1274196E-001  0.3000000E+03  0.7818608E-02  0.1093470E+00
         21   -1    0    0  501  502  0.00000000000E+00  0.00000000000E+00  0.21686481907E+01  0.21686481907E+01  0.00000000000E+00 0. -1.
         13   -1    0    0    0    0 -0.00000000000E+00 -0.00000000000E+00 -0.10000000000E+04  0.10000000000E+04  0.00000000000E+00 0.  1.
    9000005    2    1    2  501    0 -0.19820482849E+02 -0.33120038334E+02 -0.77662027926E+03  0.77761547609E+03  0.75486439772E+01 0.  0.
         13    1    3    3    0    0 -0.18011137382E+02 -0.32850561338E+02 -0.74682408805E+03  0.74776318373E+03  0.00000000000E+00 0.  1.
          3    1    3    3  501    0 -0.18093454670E+01 -0.26947699604E+00 -0.29796191211E+02  0.29852292367E+02  0.00000000000E+00 0.  1.
         -1    1    1    2    0  502  0.19820482849E+02  0.33120038334E+02 -0.22121107255E+03  0.22455317210E+03  0.00000000000E+00 0. -1.
<mgrwt>
<rscale>  1 0.30000000E+03</rscale>
<asrwt>0</asrwt>
<pdfrwt beam="1">  1       21 0.78860101E-02 0.30000000E+03</pdfrwt>
<pdfrwt beam="2">0</pdfrwt>
<totfact> 0.13099825E+04</totfact>
</mgrwt>
</event>
<event>
 6    1  0.1274196E-001  0.3000000E+03  0.7818608E-02  0.1093470E+00
         21   -1    0    0  501  502  0.00000000000E+00  0.00000000000E+00  0.21879110895E+01  0.21879110895E+01  0.00000000000E+00 0. -1.
         13   -1    0    0    0    0 -0.00000000000E+00 -0.00000000000E+00 -0.10000000000E+04  0.10000000000E+04  0.00000000000E+00 0.  1.
    9000005    2    1    2  501    0 -0.33083017934E+02 -0.32231106836E+02 -0.57332390333E+03  0.57519429284E+03  0.38530597295E+01 0.  0.
         13    1    3    3    0    0 -0.14848993795E+02 -0.12595619467E+02 -0.22468510592E+03  0.22552724684E+03  0.00000000000E+00 0.  1.
          1    1    3    3  501    0 -0.18234024139E+02 -0.19635487370E+02 -0.34863879741E+03  0.34966704600E+03  0.00000000000E+00 0.  1.
         -3    1    1    2    0  502  0.33083017934E+02  0.32231106836E+02 -0.42448818558E+03  0.42699361825E+03  0.00000000000E+00 0. -1.
<mgrwt>
<rscale>  1 0.30000000E+03</rscale>
<asrwt>0</asrwt>
<pdfrwt beam="1">  1       21 0.79560571E-02 0.30000000E+03</pdfrwt>
<pdfrwt beam="2">0</pdfrwt>
<totfact> 0.12898031E+04</totfact>
</mgrwt>
</event>
<event>
 6    1  0.1274196E-001  0.3000000E+03  0.7818608E-02  0.1093470E+00
         21   -1    0    0  501  502  0.00000000000E+00  0.00000000000E+00  0.14823699086E+01  0.14823699086E+01  0.00000000000E+00 0. -1.
         13   -1    0    0    0    0 -0.00000000000E+00 -0.00000000000E+00 -0.10000000000E+04  0.10000000000E+04  0.00000000000E+00 0.  1.
    9000005    2    1    2  501    0 -0.13046233470E+02 -0.28270769419E+02 -0.20715304895E+03  0.20950551362E+03  0.32762687185E+01 0.  0.
         13    1    3    3    0    0 -0.47769611592E+01 -0.76429371337E+01 -0.66370184194E+02  0.66979363956E+02  0.00000000000E+00 0.  1.
          1    1    3    3  501    0 -0.82692723107E+01 -0.20627832285E+02 -0.14078286476E+03  0.14252614967E+03  0.00000000000E+00 0.  1.
         -1    1    1    2    0  502  0.13046233470E+02  0.28270769419E+02 -0.79136458114E+03  0.79197685628E+03  0.00000000000E+00 0. -1.
<mgrwt>
<rscale>  1 0.30000000E+03</rscale>
<asrwt>0</asrwt>
<pdfrwt beam="1">  1       21 0.53904474E-02 0.30000000E+03</pdfrwt>
<pdfrwt beam="2">0</pdfrwt>
<totfact> 0.25332578E+04</totfact>
</mgrwt>
</event>
<event>
 6    1  0.1274196E-001  0.3000000E+03  0.7818608E-02  0.1093470E+00
         21   -1    0    0  501  502  0.00000000000E+00  0.00000000000E+00  0.13144564503E+01  0.13144564503E+01  0.00000000000E+00 0. -1.
         13   -1    0    0    0    0 -0.00000000000E+00 -0.00000000000E+00 -0.10000000000E+04  0.10000000000E+04  0.00000000000E+00 0.  1.
    9000005    2    1    2  501    0  0.21570546683E+02 -0.26568552712E+02 -0.66232516580E+03  0.66321760613E+03  0.34338534743E+01 0.  0.
         13    1    3    3    0    0  0.74572761286E+01 -0.68908143394E+01 -0.18430342155E+03  0.18458289597E+03  0.00000000000E+00 0.  1.
          1    1    3    3  501    0  0.14113270555E+02 -0.19677738373E+02 -0.47802174425E+03  0.47863471016E+03  0.00000000000E+00 0.  1.
         -3    1    1    2    0  502 -0.21570546683E+02  0.26568552712E+02 -0.33636037775E+03  0.33809685032E+03  0.00000000000E+00 0. -1.
<mgrwt>
<rscale>  1 0.30000000E+03</rscale>
<asrwt>0</asrwt>
<pdfrwt beam="1">  1       21 0.47798517E-02 0.30000000E+03</pdfrwt>
<pdfrwt beam="2">0</pdfrwt>
<totfact> 0.31100333E+04</totfact>
</mgrwt>
</event>
<event>
 6    1  0.1274196E-001  0.3000000E+03  0.7818608E-02  0.1093470E+00
         21   -1    0    0  501  502  0.00000000000E+00  0.00000000000E+00  0.48327439433E+01  0.48327439433E+01  0.00000000000E+00 0. -1.
         13   -1    0    0    0    0 -0.00000000000E+00 -0.00000000000E+00 -0.10000000000E+04  0.10000000000E+04  0.00000000000E+00 0.  1.
    9000005    2    1    2  501    0  0.14269999443E+01  0.30057310977E+02 -0.95037239215E+03  0.95086925532E+03  0.62592874371E+01 0.  0.
         13    1    3    3    0    0  0.32377920671E+01  0.21391779294E+02 -0.61650557254E+03  0.61688508856E+03  0.00000000000E+00 0.  1.
          3    1    3    3  501    0 -0.18107921228E+01  0.86655316833E+01 -0.33386681961E+03  0.33398416676E+03  0.00000000000E+00 0.  1.
         -1    1    1    2    0  502 -0.14269999443E+01 -0.30057310977E+02 -0.44794863908E+02  0.53963488625E+02  0.00000000000E+00 0. -1.
<mgrwt>
<rscale>  1 0.30000000E+03</rscale>
<asrwt>0</asrwt>
<pdfrwt beam="1">  1       21 0.17573651E-01 0.30000000E+03</pdfrwt>
<pdfrwt beam="2">0</pdfrwt>
<totfact> 0.30646721E+03</totfact>
</mgrwt>
</event>
<event>
 6    1  0.1274196E-001  0.3000000E+03  0.7818608E-02  0.1093470E+00
         21   -1    0    0  501  502  0.00000000000E+00  0.00000000000E+00  0.23720507223E+01  0.23720507223E+01  0.00000000000E+00 0. -1.
         13   -1    0    0    0    0 -0.00000000000E+00 -0.00000000000E+00 -0.10000000000E+04  0.10000000000E+04  0.00000000000E+00 0.  1.
    9000005    2    1    2  501    0  0.37674225286E+02 -0.47319415799E+01 -0.81236532695E+03  0.81325838714E+03  0.31688010178E+01 0.  0.
         13    1    3    3    0    0  0.23646018343E+02 -0.45099456398E+01 -0.51340003286E+03  0.51396407222E+03  0.00000000000E+00 0.  1.
          1    1    3    3  501    0  0.14028206943E+02 -0.22199594015E+00 -0.29896529409E+03  0.29929431492E+03  0.00000000000E+00 0.  1.
         -1    1    1    2    0  502 -0.37674225286E+02  0.47319415799E+01 -0.18526262233E+03  0.18911366359E+03  0.00000000000E+00 0. -1.
<mgrwt>
<rscale>  1 0.30000000E+03</rscale>
<asrwt>0</asrwt>
<pdfrwt beam="1">  1       21 0.86256572E-02 0.30000000E+03</pdfrwt>
<pdfrwt beam="2">0</pdfrwt>
<totfact> 0.11187808E+04</totfact>
</mgrwt>
</event>
<event>
 6    1  0.1274196E-001  0.3000000E+03  0.7818608E-02  0.1093470E+00
         21   -1    0    0  501  502  0.00000000000E+00  0.00000000000E+00  0.15879630531E+01  0.15879630531E+01  0.00000000000E+00 0. -1.
         13   -1    0    0    0    0 -0.00000000000E+00 -0.00000000000E+00 -0.10000000000E+04  0.10000000000E+04  0.00000000000E+00 0.  1.
    9000005    2    1    2  501    0  0.28718061961E+02 -0.17746420936E+02 -0.76427381382E+03  0.76502852006E+03  0.38093936538E+01 0.  0.
         13    1    3    3    0    0  0.25994179274E+02 -0.16797951344E+02 -0.71603120561E+03  0.71669976694E+03  0.00000000000E+00 0.  1.
          3    1    3    3  501    0  0.27238826862E+01 -0.94846959121E+00 -0.48242608209E+02  0.48328753122E+02  0.00000000000E+00 0.  1.
         -3    1    1    2    0  502 -0.28718061961E+02  0.17746420936E+02 -0.23413822313E+03  0.23655944299E+03  0.00000000000E+00 0. -1.
<mgrwt>
<rscale>  1 0.30000000E+03</rscale>
<asrwt>0</asrwt>
<pdfrwt beam="1">  1       21 0.57744233E-02 0.30000000E+03</pdfrwt>
<pdfrwt beam="2">0</pdfrwt>
<totfact> 0.22510216E+04</totfact>
</mgrwt>
</event>
<event>
 6    1  0.1274196E-001  0.3000000E+03  0.7818608E-02  0.1093470E+00
         21   -1    0    0  501  502  0.00000000000E+00  0.00000000000E+00  0.28349345443E+01  0.28349345443E+01  0.00000000000E+00 0. -1.
         13   -1    0    0    0    0 -0.00000000000E+00 -0.00000000000E+00 -0.10000000000E+04  0.10000000000E+04  0.00000000000E+00 0.  1.
    9000005    2    1    2  501    0 -0.38617729716E+02  0.68815669051E+00 -0.15482992830E+03  0.15961474628E+03  0.35718237428E+01 0.  0.
         13    1    3    3    0    0 -0.11141277237E+02 -0.12201503044E+01 -0.41636983103E+02  0.43119081474E+02  0.00000000000E+00 0.  1.
          1    1    3    3  501    0 -0.27476452479E+02  0.19083069949E+01 -0.11319294519E+03  0.11649566480E+03  0.00000000000E+00 0.  1.
         -1    1    1    2    0  502  0.38617729716E+02 -0.68815669051E+00 -0.84233513716E+03  0.84322018827E+03  0.00000000000E+00 0. -1.
<mgrwt>
<rscale>  1 0.30000000E+03</rscale>
<asrwt>0</asrwt>
<pdfrwt beam="1">  1       21 0.10308875E-01 0.30000000E+03</pdfrwt>
<pdfrwt beam="2">0</pdfrwt>
<totfact> 0.81476298E+03</totfact>
</mgrwt>
</event>
<event>
 6    1  0.1274196E-001  0.3000000E+03  0.7818608E-02  0.1093470E+00
         21   -1    0    0  501  502  0.00000000000E+00  0.00000000000E+00  0.37377571409E+01  0.37377571409E+01  0.00000000000E+00 0. -1.
         13   -1    0    0    0    0 -0.00000000000E+00 -0.00000000000E+00 -0.10000000000E+04  0.10000000000E+04  0.00000000000E+00 0.  1.
    9000005    2    1    2  501    0 -0.49690930643E+01  0.35922633927E+02 -0.90201632311E+03  0.90275547699E+03  0.43447178810E+01 0.  0.
         13    1    3    3    0    0 -0.49163764277E+01  0.21734656328E+02 -0.57435296314E+03  0.57478508358E+03  0.00000000000E+00 0.  1.
          1    1    3    3  501    0 -0.52716636630E-01  0.14187977599E+02 -0.32766335997E+03  0.32797039341E+03  0.00000000000E+00 0.  1.
         -1    1    1    2    0  502  0.49690930643E+01 -0.35922633927E+02 -0.94245919751E+02  0.10098228015E+03  0.00000000000E+00 0. -1.
<mgrwt>
<rscale>  1 0.30000000E+03</rscale>
<asrwt>0</asrwt>
<pdfrwt beam="1">  1       21 0.13591873E-01 0.30000000E+03</pdfrwt>
<pdfrwt beam="2">0</pdfrwt>
<totfact> 0.49375689E+03</totfact>
</mgrwt>
</event>
<event>
 6    1  0.1274196E-001  0.3000000E+03  0.7818608E-02  0.1093470E+00
         21   -1    0    0  501  502  0.00000000000E+00  0.00000000000E+00  0.11484447953E+01  0.11484447953E+01  0.00000000000E+00 0. -1.
         13   -1    0    0    0    0 -0.00000000000E+00 -0.00000000000E+00 -0.10000000000E+04  0.10000000000E+04  0.00000000000E+00 0.  1.
    9000005    2    1    2  501    0  0.10265882610E+02  0.29765983235E+02 -0.68256565239E+03  0.68329914965E+03  0.32335721565E+01 0.  0.
         13    1    3    3    0    0  0.28052744187E+01  0.12506203328E+02 -0.29187581223E+03  0.29215708866E+03  0.00000000000E+00 0.  1.
          1    1    3    3  501    0  0.74606081910E+01  0.17259779908E+02 -0.39068984015E+03  0.39114206099E+03  0.00000000000E+00 0.  1.
         -3    1    1    2    0  502 -0.10265882610E+02 -0.29765983235E+02 -0.31628590282E+03  0.31784929515E+03  0.00000000000E+00 0. -1.
<mgrwt>
<rscale>  1 0.30000000E+03</rscale>
<asrwt>0</asrwt>
<pdfrwt beam="1">  1       21 0.41761717E-02 0.30000000E+03</pdfrwt>
<pdfrwt beam="2">0</pdfrwt>
<totfact> 0.39100254E+04</totfact>
</mgrwt>
</event>
<event>
 6    1  0.1274196E-001  0.3000000E+03  0.7818608E-02  0.1093470E+00
         21   -1    0    0  501  502  0.00000000000E+00  0.00000000000E+00  0.64231042982E+01  0.64231042982E+01  0.00000000000E+00 0. -1.
         13   -1    0    0    0    0 -0.00000000000E+00 -0.00000000000E+00 -0.10000000000E+04  0.10000000000E+04  0.00000000000E+00 0.  1.
    9000005    2    1    2  501    0 -0.29174222332E+02 -0.14010169569E+02 -0.95712218788E+03  0.95767512155E+03  0.33668673750E+01 0.  0.
         13    1    3    3    0    0 -0.69504204433E+01 -0.49642448999E+01 -0.24554802419E+03  0.24569652878E+03  0.00000000000E+00 0.  1.
          1    1    3    3  501    0 -0.22223801889E+02 -0.90459246686E+01 -0.71157416369E+03  0.71197859277E+03  0.00000000000E+00 0.  1.
         -1    1    1    2    0  502  0.29174222332E+02  0.14010169569E+02 -0.36454707821E+02  0.48747982751E+02  0.00000000000E+00 0. -1.
<mgrwt>
<rscale>  1 0.30000000E+03</rscale>
<asrwt>0</asrwt>
<pdfrwt beam="1">  1       21 0.23356792E-01 0.30000000E+03</pdfrwt>
<pdfrwt beam="2">0</pdfrwt>
<totfact> 0.17803995E+03</totfact>
</mgrwt>
</event>
<event>
 6    1  0.1274196E-001  0.3000000E+03  0.7818608E-02  0.1093470E+00
         21   -1    0    0  501  502  0.00000000000E+00  0.00000000000E+00  0.20306746469E+01  0.20306746469E+01  0.00000000000E+00 0. -1.
         13   -1    0    0    0    0 -0.00000000000E+00 -0.00000000000E+00 -0.10000000000E+04  0.10000000000E+04  0.00000000000E+00 0.  1.
    9000005    2    1    2  501    0 -0.28037078272E+02  0.12180233243E+02 -0.86696720514E+03  0.86750933306E+03  0.24232894584E+01 0.  0.
         13    1    3    3    0    0 -0.14770748943E+02  0.75533319801E+01 -0.48660465268E+03  0.48688737492E+03  0.00000000000E+00 0.  1.
          3    1    3    3  501    0 -0.13266329329E+02  0.46269012630E+01 -0.38036255246E+03  0.38062195815E+03  0.00000000000E+00 0.  1.
         -3    1    1    2    0  502  0.28037078272E+02 -0.12180233243E+02 -0.13100212022E+03  0.13452134158E+03  0.00000000000E+00 0. -1.
<mgrwt>
<rscale>  1 0.30000000E+03</rscale>
<asrwt>0</asrwt>
<pdfrwt beam="1">  1       21 0.73842870E-02 0.30000000E+03</pdfrwt>
<pdfrwt beam="2">0</pdfrwt>
<totfact> 0.14699030E+04</totfact>
</mgrwt>
</event>
<event>
 6    1  0.1274196E-001  0.3000000E+03  0.7818608E-02  0.1093470E+00
         21   -1    0    0  501  502  0.00000000000E+00  0.00000000000E+00  0.27529108231E+01  0.27529108231E+01  0.00000000000E+00 0. -1.
         13   -1    0    0    0    0 -0.00000000000E+00 -0.00000000000E+00 -0.10000000000E+04  0.10000000000E+04  0.00000000000E+00 0.  1.
    9000005    2    1    2  501    0  0.19979206225E+02  0.46569555616E+02 -0.62745852083E+03  0.62950838311E+03  0.29524304029E+01 0.  0.
         13    1    3    3    0    0  0.16464882503E+02  0.36935010499E+02 -0.51295096762E+03  0.51454249829E+03  0.00000000000E+00 0.  1.
          3    1    3    3  501    0  0.35143237223E+01  0.96345451175E+01 -0.11450755321E+03  0.11496588482E+03  0.00000000000E+00 0.  1.
         -3    1    1    2    0  502 -0.19979206225E+02 -0.46569555616E+02 -0.36978856834E+03  0.37324452771E+03  0.00000000000E+00 0. -1.
<mgrwt>
<rscale>  1 0.30000000E+03</rscale>
<asrwt>0</asrwt>
<pdfrwt beam="1">  1       21 0.10010606E-01 0.30000000E+03</pdfrwt>
<pdfrwt beam="2">0</pdfrwt>
<totfact> 0.85869173E+03</totfact>
</mgrwt>
</event>
<event>
 6    1  0.1274196E-001  0.3000000E+03  0.7818608E-02  0.1093470E+00
         21   -1    0    0  501  502  0.00000000000E+00  0.00000000000E+00  0.19966412746E+01  0.19966412746E+01  0.00000000000E+00 0. -1.
         13   -1    0    0    0    0 -0.00000000000E+00 -0.00000000000E+00 -0.10000000000E+04  0.10000000000E+04  0.00000000000E+00 0.  1.
    9000005    2    1    2  501    0 -0.12021272667E+02 -0.30709052686E+02 -0.83666140778E+03  0.83731882842E+03  0.35989215525E+01 0.  0.
         13    1    3    3    0    0 -0.10306977640E+02 -0.28669028614E+02 -0.75671677728E+03  0.75732980134E+03  0.00000000000E+00 0.  1.
          3    1    3    3  501    0 -0.17142950263E+01 -0.20400240720E+01 -0.79944630505E+02  0.79989027074E+02  0.00000000000E+00 0.  1.
         -1    1    1    2    0  502  0.12021272667E+02  0.30709052686E+02 -0.16134195094E+03  0.16467781286E+03  0.00000000000E+00 0. -1.
<mgrwt>
<rscale>  1 0.30000000E+03</rscale>
<asrwt>0</asrwt>
<pdfrwt beam="1">  1       21 0.72605290E-02 0.30000000E+03</pdfrwt>
<pdfrwt beam="2">0</pdfrwt>
<totfact> 0.15139597E+04</totfact>
</mgrwt>
</event>
<event>
 6    1  0.1274196E-001  0.3000000E+03  0.7818608E-02  0.1093470E+00
         21   -1    0    0  501  502  0.00000000000E+00  0.00000000000E+00  0.20453158450E+01  0.20453158450E+01  0.00000000000E+00 0. -1.
         13   -1    0    0    0    0 -0.00000000000E+00 -0.00000000000E+00 -0.10000000000E+04  0.10000000000E+04  0.00000000000E+00 0.  1.
    9000005    2    1    2  501    0 -0.28553222150E+02  0.18235348902E+02 -0.83051781544E+03  0.83121522643E+03  0.33311318813E+01 0.  0.
         13    1    3    3    0    0 -0.16660009535E+02  0.88775109343E+01 -0.44304240833E+03  0.44344440654E+03  0.00000000000E+00 0.  1.
          3    1    3    3  501    0 -0.11893212615E+02  0.93578379682E+01 -0.38747540711E+03  0.38777081989E+03  0.00000000000E+00 0.  1.
         -3    1    1    2    0  502  0.28553222150E+02 -0.18235348902E+02 -0.16743686871E+03  0.17083008941E+03  0.00000000000E+00 0. -1.
<mgrwt>
<rscale>  1 0.30000000E+03</rscale>
<asrwt>0</asrwt>
<pdfrwt beam="1">  1       21 0.74375278E-02 0.30000000E+03</pdfrwt>
<pdfrwt beam="2">0</pdfrwt>
<totfact> 0.14515454E+04</totfact>
</mgrwt>
</event>
<event>
 6    1  0.1274196E-001  0.3000000E+03  0.7818608E-02  0.1093470E+00
         21   -1    0    0  501  502  0.00000000000E+00  0.00000000000E+00  0.10334367881E+02  0.10334367881E+02  0.00000000000E+00 0. -1.
         13   -1    0    0    0    0 -0.00000000000E+00 -0.00000000000E+00 -0.10000000000E+04  0.10000000000E+04  0.00000000000E+00 0.  1.
    9000005    2    1    2  501    0 -0.42965939243E+02 -0.22771568860E+02 -0.93843874631E+03  0.93970285853E+03  0.30928092735E+01 0.  0.
         13    1    3    3    0    0 -0.41563458586E+02 -0.22568007849E+02 -0.90721415039E+03  0.90844611878E+03  0.00000000000E+00 0.  1.
          1    1    3    3  501    0 -0.14024806569E+01 -0.20356101072E+00 -0.31224595926E+02  0.31256739750E+02  0.00000000000E+00 0.  1.
         -3    1    1    2    0  502  0.42965939243E+02  0.22771568860E+02 -0.51226885805E+02  0.70631509347E+02  0.00000000000E+00 0. -1.
<mgrwt>
<rscale>  1 0.30000000E+03</rscale>
<asrwt>0</asrwt>
<pdfrwt beam="1">  1       21 0.37579599E-01 0.30000000E+03</pdfrwt>
<pdfrwt beam="2">0</pdfrwt>
<totfact> 0.68759501E+02</totfact>
</mgrwt>
</event>
<event>
 6    1  0.1274196E-001  0.3000000E+03  0.7818608E-02  0.1093470E+00
         21   -1    0    0  501  502  0.00000000000E+00  0.00000000000E+00  0.20390467803E+01  0.20390467803E+01  0.00000000000E+00 0. -1.
         13   -1    0    0    0    0 -0.00000000000E+00 -0.00000000000E+00 -0.10000000000E+04  0.10000000000E+04  0.00000000000E+00 0.  1.
    9000005    2    1    2  501    0 -0.67876246592E+01 -0.42244072386E+02 -0.65747685366E+03  0.65887719641E+03  0.35655775085E+01 0.  0.
         13    1    3    3    0    0 -0.46199529306E+01 -0.17646798844E+02 -0.27997367162E+03  0.28056730079E+03  0.00000000000E+00 0.  1.
          3    1    3    3  501    0 -0.21676717286E+01 -0.24597273542E+02 -0.37750318205E+03  0.37830989562E+03  0.00000000000E+00 0.  1.
         -1    1    1    2    0  502  0.67876246592E+01  0.42244072386E+02 -0.34048409956E+03  0.34316185037E+03  0.00000000000E+00 0. -1.
<mgrwt>
<rscale>  1 0.30000000E+03</rscale>
<asrwt>0</asrwt>
<pdfrwt beam="1">  1       21 0.74147312E-02 0.30000000E+03</pdfrwt>
<pdfrwt beam="2">0</pdfrwt>
<totfact> 0.14593630E+04</totfact>
</mgrwt>
</event>
<event>
 6    1  0.1274196E-001  0.3000000E+03  0.7818608E-02  0.1093470E+00
         21   -1    0    0  501  502  0.00000000000E+00  0.00000000000E+00  0.70456340870E+01  0.70456340870E+01  0.00000000000E+00 0. -1.
         13   -1    0    0    0    0 -0.00000000000E+00 -0.00000000000E+00 -0.10000000000E+04  0.10000000000E+04  0.00000000000E+00 0.  1.
    9000005    2    1    2  501    0 -0.80420812128E+02  0.16277774634E+02 -0.60158647492E+03  0.60716902928E+03  0.39332355423E+01 0.  0.
         13    1    3    3    0    0 -0.53655676163E+02  0.92058589712E+01 -0.40546081690E+03  0.40909919758E+03  0.00000000000E+00 0.  1.
          3    1    3    3  501    0 -0.26765135965E+02  0.70719156631E+01 -0.19612565802E+03  0.19806983170E+03  0.00000000000E+00 0.  1.
         -3    1    1    2    0  502  0.80420812128E+02 -0.16277774634E+02 -0.39136789099E+03  0.39987660481E+03  0.00000000000E+00 0. -1.
<mgrwt>
<rscale>  1 0.30000000E+03</rscale>
<asrwt>0</asrwt>
<pdfrwt beam="1">  1       21 0.25620542E-01 0.30000000E+03</pdfrwt>
<pdfrwt beam="2">0</pdfrwt>
<totfact> 0.14863792E+03</totfact>
</mgrwt>
</event>
<event>
 6    1  0.1274196E-001  0.3000000E+03  0.7818608E-02  0.1093470E+00
         21   -1    0    0  501  502  0.00000000000E+00  0.00000000000E+00  0.25016318125E+01  0.25016318125E+01  0.00000000000E+00 0. -1.
         13   -1    0    0    0    0 -0.00000000000E+00 -0.00000000000E+00 -0.10000000000E+04  0.10000000000E+04  0.00000000000E+00 0.  1.
    9000005    2    1    2  501    0 -0.31695990300E+02  0.37115202169E+01 -0.88452716898E+03  0.88510954079E+03  0.34893204006E+01 0.  0.
         13    1    3    3    0    0 -0.26590014592E+02  0.43943340955E+01 -0.74463032761E+03  0.74511788587E+03  0.00000000000E+00 0.  1.
          3    1    3    3  501    0 -0.51059757076E+01 -0.68281387857E+00 -0.13989684137E+03  0.13999165492E+03  0.00000000000E+00 0.  1.
         -1    1    1    2    0  502  0.31695990300E+02 -0.37115202169E+01 -0.11297119921E+03  0.11739209102E+03  0.00000000000E+00 0. -1.
<mgrwt>
<rscale>  1 0.30000000E+03</rscale>
<asrwt>0</asrwt>
<pdfrwt beam="1">  1       21 0.90968621E-02 0.30000000E+03</pdfrwt>
<pdfrwt beam="2">0</pdfrwt>
<totfact> 0.10183023E+04</totfact>
</mgrwt>
</event>
<event>
 6    1  0.1274196E-001  0.3000000E+03  0.7818608E-02  0.1093470E+00
         21   -1    0    0  501  502  0.00000000000E+00  0.00000000000E+00  0.20447529079E+01  0.20447529079E+01  0.00000000000E+00 0. -1.
         13   -1    0    0    0    0 -0.00000000000E+00 -0.00000000000E+00 -0.10000000000E+04  0.10000000000E+04  0.00000000000E+00 0.  1.
    9000005    2    1    2  501    0 -0.25556754628E+02 -0.18999391416E+02 -0.14476274783E+03  0.14825814879E+03  0.31781977281E+01 0.  0.
         13    1    3    3    0    0 -0.20568682350E+02 -0.16159076098E+02 -0.11375060676E+03  0.11671926565E+03  0.00000000000E+00 0.  1.
          3    1    3    3  501    0 -0.49880722789E+01 -0.28403153183E+01 -0.31012141067E+02  0.31538883140E+02  0.00000000000E+00 0.  1.
         -3    1    1    2    0  502  0.25556754628E+02  0.18999391416E+02 -0.85319249926E+03  0.85378660412E+03  0.00000000000E+00 0. -1.
<mgrwt>
<rscale>  1 0.30000000E+03</rscale>
<asrwt>0</asrwt>
<pdfrwt beam="1">  1       21 0.74354808E-02 0.30000000E+03</pdfrwt>
<pdfrwt beam="2">0</pdfrwt>
<totfact> 0.14522448E+04</totfact>
</mgrwt>
</event>
<event>
 6    1  0.1274196E-001  0.3000000E+03  0.7818608E-02  0.1093470E+00
         21   -1    0    0  501  502  0.00000000000E+00  0.00000000000E+00  0.23411959054E+01  0.23411959054E+01  0.00000000000E+00 0. -1.
         13   -1    0    0    0    0 -0.00000000000E+00 -0.00000000000E+00 -0.10000000000E+04  0.10000000000E+04  0.00000000000E+00 0.  1.
    9000005    2    1    2  501    0  0.82923831022E+01 -0.44840058216E+02 -0.66561264938E+03  0.66717848423E+03  0.27452438143E+01 0.  0.
         13    1    3    3    0    0  0.11871083982E+01 -0.10718876788E+02 -0.14499846611E+03  0.14539896396E+03  0.00000000000E+00 0.  1.
          3    1    3    3  501    0  0.71052747039E+01 -0.34121181427E+02 -0.52061418327E+03  0.52177952027E+03  0.00000000000E+00 0.  1.
         -3    1    1    2    0  502 -0.82923831022E+01  0.44840058216E+02 -0.33204615471E+03  0.33516271167E+03  0.00000000000E+00 0. -1.
<mgrwt>
<rscale>  1 0.30000000E+03</rscale>
<asrwt>0</asrwt>
<pdfrwt beam="1">  1       21 0.85134576E-02 0.30000000E+03</pdfrwt>
<pdfrwt beam="2">0</pdfrwt>
<totfact> 0.11449276E+04</totfact>
</mgrwt>
</event>
<event>
 6    1  0.1274196E-001  0.3000000E+03  0.7818608E-02  0.1093470E+00
         21   -1    0    0  501  502  0.00000000000E+00  0.00000000000E+00  0.70283223847E+01  0.70283223847E+01  0.00000000000E+00 0. -1.
         13   -1    0    0    0    0 -0.00000000000E+00 -0.00000000000E+00 -0.10000000000E+04  0.10000000000E+04  0.00000000000E+00 0.  1.
    9000005    2    1    2  501    0 -0.73206206857E+02  0.30185760047E+02 -0.33173679540E+03  0.34106894052E+03  0.28968836564E+01 0.  0.
         13    1    3    3    0    0 -0.39915169377E+02  0.15730981039E+02 -0.18519364658E+03  0.19009831994E+03  0.00000000000E+00 0.  1.
          1    1    3    3  501    0 -0.33291037479E+02  0.14454779008E+02 -0.14654314882E+03  0.15097062058E+03  0.00000000000E+00 0.  1.
         -1    1    1    2    0  502  0.73206206857E+02 -0.30185760047E+02 -0.66123488221E+03  0.66595938186E+03  0.00000000000E+00 0. -1.
<mgrwt>
<rscale>  1 0.30000000E+03</rscale>
<asrwt>0</asrwt>
<pdfrwt beam="1">  1       21 0.25557590E-01 0.30000000E+03</pdfrwt>
<pdfrwt beam="2">0</pdfrwt>
<totfact> 0.14935810E+03</totfact>
</mgrwt>
</event>
<event>
 6    1  0.1274196E-001  0.3000000E+03  0.7818608E-02  0.1093470E+00
         21   -1    0    0  501  502  0.00000000000E+00  0.00000000000E+00  0.13477072466E+01  0.13477072466E+01  0.00000000000E+00 0. -1.
         13   -1    0    0    0    0 -0.00000000000E+00 -0.00000000000E+00 -0.10000000000E+04  0.10000000000E+04  0.00000000000E+00 0.  1.
    9000005    2    1    2  501    0  0.14430952162E+02  0.27228398266E+02 -0.77013379181E+03  0.77076075331E+03  0.40550588891E+01 0.  0.
         13    1    3    3    0    0  0.10688006856E+02  0.16530229152E+02 -0.51197917408E+03  0.51235745009E+03  0.00000000000E+00 0.  1.
          3    1    3    3  501    0  0.37429453060E+01  0.10698169114E+02 -0.25815461772E+03  0.25840330322E+03  0.00000000000E+00 0.  1.
         -1    1    1    2    0  502 -0.14430952162E+02 -0.27228398266E+02 -0.22851850095E+03  0.23058695394E+03  0.00000000000E+00 0. -1.
<mgrwt>
<rscale>  1 0.30000000E+03</rscale>
<asrwt>0</asrwt>
<pdfrwt beam="1">  1       21 0.49007640E-02 0.30000000E+03</pdfrwt>
<pdfrwt beam="2">0</pdfrwt>
<totfact> 0.29805559E+04</totfact>
</mgrwt>
</event>
<event>
 6    1  0.1274196E-001  0.3000000E+03  0.7818608E-02  0.1093470E+00
         21   -1    0    0  501  502  0.00000000000E+00  0.00000000000E+00  0.14260548048E+02  0.14260548048E+02  0.00000000000E+00 0. -1.
         13   -1    0    0    0    0 -0.00000000000E+00 -0.00000000000E+00 -0.10000000000E+04  0.10000000000E+04  0.00000000000E+00 0.  1.
    9000005    2    1    2  501    0 -0.66790695286E+02  0.90001213532E+02 -0.31818485501E+03  0.33736295216E+03  0.33081900645E+01 0.  0.
         13    1    3    3    0    0 -0.61875596705E+02  0.83132099827E+02 -0.29149832968E+03  0.30937164009E+03  0.00000000000E+00 0.  1.
          1    1    3    3  501    0 -0.49150985808E+01  0.68691137046E+01 -0.26686525333E+02  0.27991312072E+02  0.00000000000E+00 0.  1.
         -1    1    1    2    0  502  0.66790695286E+02 -0.90001213532E+02 -0.66755459694E+03  0.67689759588E+03  0.00000000000E+00 0. -1.
<mgrwt>
<rscale>  1 0.30000000E+03</rscale>
<asrwt>0</asrwt>
<pdfrwt beam="1">  1       21 0.51856648E-01 0.30000000E+03</pdfrwt>
<pdfrwt beam="2">0</pdfrwt>
<totfact> 0.34705993E+02</totfact>
</mgrwt>
</event>
<event>
 6    1  0.1274196E-001  0.3000000E+03  0.7818608E-02  0.1093470E+00
         21   -1    0    0  501  502  0.00000000000E+00  0.00000000000E+00  0.25956408303E+01  0.25956408303E+01  0.00000000000E+00 0. -1.
         13   -1    0    0    0    0 -0.00000000000E+00 -0.00000000000E+00 -0.10000000000E+04  0.10000000000E+04  0.00000000000E+00 0.  1.
    9000005    2    1    2  501    0  0.36927689748E+02  0.70546656094E+01 -0.83665677116E+03  0.83751017924E+03  0.39147194852E+01 0.  0.
         13    1    3    3    0    0  0.22159279422E+02  0.61753024456E+01 -0.51140018522E+03  0.51191729554E+03  0.00000000000E+00 0.  1.
          3    1    3    3  501    0  0.14768410326E+02  0.87936316384E+00 -0.32525658594E+03  0.32559288370E+03  0.00000000000E+00 0.  1.
         -1    1    1    2    0  502 -0.36927689748E+02 -0.70546656094E+01 -0.16074758801E+03  0.16508546159E+03  0.00000000000E+00 0. -1.
<mgrwt>
<rscale>  1 0.30000000E+03</rscale>
<asrwt>0</asrwt>
<pdfrwt beam="1">  1       21 0.94387138E-02 0.30000000E+03</pdfrwt>
<pdfrwt beam="2">0</pdfrwt>
<totfact> 0.95370068E+03</totfact>
</mgrwt>
</event>
<event>
 6    1  0.1274196E-001  0.3000000E+03  0.7818608E-02  0.1093470E+00
         21   -1    0    0  501  502  0.00000000000E+00  0.00000000000E+00  0.37268422092E+01  0.37268422092E+01  0.00000000000E+00 0. -1.
         13   -1    0    0    0    0 -0.00000000000E+00 -0.00000000000E+00 -0.10000000000E+04  0.10000000000E+04  0.00000000000E+00 0.  1.
    9000005    2    1    2  501    0  0.48340462917E+02 -0.22669230845E+02 -0.74107090109E+03  0.74299923299E+03  0.33294751389E+01 0.  0.
         13    1    3    3    0    0  0.32756428311E+02 -0.15169819314E+02 -0.52204300020E+03  0.52328959580E+03  0.00000000000E+00 0.  1.
          1    1    3    3  501    0  0.15584034606E+02 -0.74994115306E+01 -0.21902790089E+03  0.21970963719E+03  0.00000000000E+00 0.  1.
         -3    1    1    2    0  502 -0.48340462917E+02  0.22669230845E+02 -0.25520225670E+03  0.26072760922E+03  0.00000000000E+00 0. -1.
<mgrwt>
<rscale>  1 0.30000000E+03</rscale>
<asrwt>0</asrwt>
<pdfrwt beam="1">  1       21 0.13552182E-01 0.30000000E+03</pdfrwt>
<pdfrwt beam="2">0</pdfrwt>
<totfact> 0.49640973E+03</totfact>
</mgrwt>
</event>
<event>
 6    1  0.1274196E-001  0.3000000E+03  0.7818608E-02  0.1093470E+00
         21   -1    0    0  501  502  0.00000000000E+00  0.00000000000E+00  0.48377067501E+01  0.48377067501E+01  0.00000000000E+00 0. -1.
         13   -1    0    0    0    0 -0.00000000000E+00 -0.00000000000E+00 -0.10000000000E+04  0.10000000000E+04  0.00000000000E+00 0.  1.
    9000005    2    1    2  501    0 -0.36496138495E+02  0.53489880948E+01 -0.92346793131E+03  0.92421102796E+03  0.35248046627E+01 0.  0.
         13    1    3    3    0    0 -0.28336765643E+02  0.32810023520E+01 -0.74153300824E+03  0.74208149120E+03  0.00000000000E+00 0.  1.
          1    1    3    3  501    0 -0.81593728520E+01  0.20679857428E+01 -0.18193492307E+03  0.18212953676E+03  0.00000000000E+00 0.  1.
         -3    1    1    2    0  502  0.36496138495E+02 -0.53489880948E+01 -0.71694361943E+02  0.80626678792E+02  0.00000000000E+00 0. -1.
<mgrwt>
<rscale>  1 0.30000000E+03</rscale>
<asrwt>0</asrwt>
<pdfrwt beam="1">  1       21 0.17591698E-01 0.30000000E+03</pdfrwt>
<pdfrwt beam="2">0</pdfrwt>
<totfact> 0.30587678E+03</totfact>
</mgrwt>
</event>
<event>
 6    1  0.1274196E-001  0.3000000E+03  0.7818608E-02  0.1093470E+00
         21   -1    0    0  501  502  0.00000000000E+00  0.00000000000E+00  0.18400890475E+01  0.18400890475E+01  0.00000000000E+00 0. -1.
         13   -1    0    0    0    0 -0.00000000000E+00 -0.00000000000E+00 -0.10000000000E+04  0.10000000000E+04  0.00000000000E+00 0.  1.
    9000005    2    1    2  501    0  0.34031707825E+02 -0.13333120777E+02 -0.76071638287E+03  0.76159987951E+03  0.30053395584E+01 0.  0.
         13    1    3    3    0    0  0.14196891463E+02 -0.42756783460E+01 -0.32594549151E+03  0.32628254104E+03  0.00000000000E+00 0.  1.
          3    1    3    3  501    0  0.19834816362E+02 -0.90574424314E+01 -0.43477089136E+03  0.43531733847E+03  0.00000000000E+00 0.  1.
         -1    1    1    2    0  502 -0.34031707825E+02  0.13333120777E+02 -0.23744352809E+03  0.24024020953E+03  0.00000000000E+00 0. -1.
<mgrwt>
<rscale>  1 0.30000000E+03</rscale>
<asrwt>0</asrwt>
<pdfrwt beam="1">  1       21 0.66912470E-02 0.30000000E+03</pdfrwt>
<pdfrwt beam="2">0</pdfrwt>
<totfact> 0.17450707E+04</totfact>
</mgrwt>
</event>
<event>
 6    1  0.1274196E-001  0.3000000E+03  0.7818608E-02  0.1093470E+00
         21   -1    0    0  501  502  0.00000000000E+00  0.00000000000E+00  0.53363852045E+01  0.53363852045E+01  0.00000000000E+00 0. -1.
         13   -1    0    0    0    0 -0.00000000000E+00 -0.00000000000E+00 -0.10000000000E+04  0.10000000000E+04  0.00000000000E+00 0.  1.
    9000005    2    1    2  501    0 -0.63191274653E+02  0.35540102184E+02 -0.43803381034E+03  0.44400495435E+03  0.32472191283E+01 0.  0.
         13    1    3    3    0    0 -0.16322348505E+02  0.83715703634E+01 -0.10348190391E+03  0.10509522676E+03  0.00000000000E+00 0.  1.
          3    1    3    3  501    0 -0.46868926147E+02  0.27168531821E+02 -0.33455190643E+03  0.33890972759E+03  0.00000000000E+00 0.  1.
         -3    1    1    2    0  502  0.63191274653E+02 -0.35540102184E+02 -0.55662980445E+03  0.56133143085E+03  0.00000000000E+00 0. -1.
<mgrwt>
<rscale>  1 0.30000000E+03</rscale>
<asrwt>0</asrwt>
<pdfrwt beam="1">  1       21 0.19405078E-01 0.30000000E+03</pdfrwt>
<pdfrwt beam="2">0</pdfrwt>
<totfact> 0.25412709E+03</totfact>
</mgrwt>
</event>
<event>
 6    1  0.1274196E-001  0.3000000E+03  0.7818608E-02  0.1093470E+00
         21   -1    0    0  501  502  0.00000000000E+00  0.00000000000E+00  0.43879669969E+01  0.43879669969E+01  0.00000000000E+00 0. -1.
         13   -1    0    0    0    0 -0.00000000000E+00 -0.00000000000E+00 -0.10000000000E+04  0.10000000000E+04  0.00000000000E+00 0.  1.
    9000005    2    1    2  501    0 -0.59776854953E+01 -0.32563768302E+02 -0.93267681728E+03  0.93327556929E+03  0.45946714976E+01 0.  0.
         13    1    3    3    0    0  0.63913416942E+00 -0.18806417599E+01 -0.68933007118E+02  0.68961618138E+02  0.00000000000E+00 0.  1.
          1    1    3    3  501    0 -0.66168196648E+01 -0.30683126542E+02 -0.86374381016E+03  0.86431395115E+03  0.00000000000E+00 0.  1.
         -3    1    1    2    0  502  0.59776854953E+01  0.32563768302E+02 -0.62935215722E+02  0.71112397709E+02  0.00000000000E+00 0. -1.
<mgrwt>
<rscale>  1 0.30000000E+03</rscale>
<asrwt>0</asrwt>
<pdfrwt beam="1">  1       21 0.15956277E-01 0.30000000E+03</pdfrwt>
<pdfrwt beam="2">0</pdfrwt>
<totfact> 0.36713403E+03</totfact>
</mgrwt>
</event>
<event>
 6    1  0.1274196E-001  0.3000000E+03  0.7818608E-02  0.1093470E+00
         21   -1    0    0  501  502  0.00000000000E+00  0.00000000000E+00  0.11735653227E+01  0.11735653227E+01  0.00000000000E+00 0. -1.
         13   -1    0    0    0    0 -0.00000000000E+00 -0.00000000000E+00 -0.10000000000E+04  0.10000000000E+04  0.00000000000E+00 0.  1.
    9000005    2    1    2  501    0 -0.14191625221E+01  0.33967771329E+02 -0.45776947748E+03  0.45904954405E+03  0.42149575563E+01 0.  0.
         13    1    3    3    0    0 -0.10408638701E+01  0.31686929689E+02 -0.40989487640E+03  0.41111914892E+03  0.00000000000E+00 0.  1.
          1    1    3    3  501    0 -0.37829865196E+00  0.22808416392E+01 -0.47874601085E+02  0.47930395131E+02  0.00000000000E+00 0.  1.
         -3    1    1    2    0  502  0.14191625221E+01 -0.33967771329E+02 -0.54105695720E+03  0.54212402127E+03  0.00000000000E+00 0. -1.
<mgrwt>
<rscale>  1 0.30000000E+03</rscale>
<asrwt>0</asrwt>
<pdfrwt beam="1">  1       21 0.42675193E-02 0.30000000E+03</pdfrwt>
<pdfrwt beam="2">0</pdfrwt>
<totfact> 0.37696936E+04</totfact>
</mgrwt>
</event>
<event>
 6    1  0.1274196E-001  0.3000000E+03  0.7818608E-02  0.1093470E+00
         21   -1    0    0  501  502  0.00000000000E+00  0.00000000000E+00  0.45286765442E+01  0.45286765442E+01  0.00000000000E+00 0. -1.
         13   -1    0    0    0    0 -0.00000000000E+00 -0.00000000000E+00 -0.10000000000E+04  0.10000000000E+04  0.00000000000E+00 0.  1.
    9000005    2    1    2  501    0  0.14855692292E+02 -0.28374336604E+02 -0.93941670339E+03  0.93996928527E+03  0.35665205739E+01 0.  0.
         13    1    3    3    0    0  0.14621414938E+02 -0.28418727930E+02 -0.93511122598E+03  0.93565721010E+03  0.00000000000E+00 0.  1.
          3    1    3    3  501    0  0.23427735412E+00  0.44391326416E-01 -0.43054774137E+01  0.43120751650E+01  0.00000000000E+00 0.  1.
         -1    1    1    2    0  502 -0.14855692292E+02  0.28374336604E+02 -0.56054620066E+02  0.64559391276E+02  0.00000000000E+00 0. -1.
<mgrwt>
<rscale>  1 0.30000000E+03</rscale>
<asrwt>0</asrwt>
<pdfrwt beam="1">  1       21 0.16467949E-01 0.30000000E+03</pdfrwt>
<pdfrwt beam="2">0</pdfrwt>
<totfact> 0.34613815E+03</totfact>
</mgrwt>
</event>
<event>
 6    1  0.1274196E-001  0.3000000E+03  0.7818608E-02  0.1093470E+00
         21   -1    0    0  501  502  0.00000000000E+00  0.00000000000E+00  0.16380865948E+01  0.16380865948E+01  0.00000000000E+00 0. -1.
         13   -1    0    0    0    0 -0.00000000000E+00 -0.00000000000E+00 -0.10000000000E+04  0.10000000000E+04  0.00000000000E+00 0.  1.
    9000005    2    1    2  501    0  0.27725426104E+02  0.22324087619E+02 -0.73637514949E+03  0.73724419747E+03  0.36853457816E+01 0.  0.
         13    1    3    3    0    0  0.97841777305E+01  0.76957346630E+01 -0.29477800710E+03  0.29504072251E+03  0.00000000000E+00 0.  1.
          3    1    3    3  501    0  0.17941248374E+02  0.14628352956E+02 -0.44159714239E+03  0.44220347496E+03  0.00000000000E+00 0.  1.
         -3    1    1    2    0  502 -0.27725426104E+02 -0.22324087619E+02 -0.26198676391E+03  0.26439388912E+03  0.00000000000E+00 0. -1.
<mgrwt>
<rscale>  1 0.30000000E+03</rscale>
<asrwt>0</asrwt>
<pdfrwt beam="1">  1       21 0.59566911E-02 0.30000000E+03</pdfrwt>
<pdfrwt beam="2">0</pdfrwt>
<totfact> 0.21336546E+04</totfact>
</mgrwt>
</event>
<event>
 6    1  0.1274196E-001  0.3000000E+03  0.7818608E-02  0.1093470E+00
         21   -1    0    0  501  502  0.00000000000E+00  0.00000000000E+00  0.11855938191E+01  0.11855938191E+01  0.00000000000E+00 0. -1.
         13   -1    0    0    0    0 -0.00000000000E+00 -0.00000000000E+00 -0.10000000000E+04  0.10000000000E+04  0.00000000000E+00 0.  1.
    9000005    2    1    2  501    0  0.30753951023E+02  0.31625476005E+01 -0.28320132672E+03  0.28490500165E+03  0.34729386824E+01 0.  0.
         13    1    3    3    0    0  0.59182633620E+01  0.48414191244E+00 -0.42945240837E+02  0.43353822728E+02  0.00000000000E+00 0.  1.
          1    1    3    3  501    0  0.24835687661E+02  0.26784056880E+01 -0.24025608588E+03  0.24155117893E+03  0.00000000000E+00 0.  1.
         -3    1    1    2    0  502 -0.30753951023E+02 -0.31625476005E+01 -0.71561307947E+03  0.71628059217E+03  0.00000000000E+00 0. -1.
<mgrwt>
<rscale>  1 0.30000000E+03</rscale>
<asrwt>0</asrwt>
<pdfrwt beam="1">  1       21 0.43112593E-02 0.30000000E+03</pdfrwt>
<pdfrwt beam="2">0</pdfrwt>
<totfact> 0.37052499E+04</totfact>
</mgrwt>
</event>
<event>
 6    1  0.1274196E-001  0.3000000E+03  0.7818608E-02  0.1093470E+00
         21   -1    0    0  501  502  0.00000000000E+00  0.00000000000E+00  0.25497644601E+01  0.25497644601E+01  0.00000000000E+00 0. -1.
         13   -1    0    0    0    0 -0.00000000000E+00 -0.00000000000E+00 -0.10000000000E+04  0.10000000000E+04  0.00000000000E+00 0.  1.
    9000005    2    1    2  501    0  0.43918241515E+02 -0.13268805256E+02 -0.70722342063E+03  0.70871906963E+03  0.35888495426E+01 0.  0.
         13    1    3    3    0    0  0.32481028710E+02 -0.84821264610E+01 -0.50141248684E+03  0.50253501933E+03  0.00000000000E+00 0.  1.
          1    1    3    3  501    0  0.11437212806E+02 -0.47866787945E+01 -0.20581093379E+03  0.20618405030E+03  0.00000000000E+00 0.  1.
         -1    1    1    2    0  502 -0.43918241515E+02  0.13268805256E+02 -0.29022681491E+03  0.29383069483E+03  0.00000000000E+00 0. -1.
<mgrwt>
<rscale>  1 0.30000000E+03</rscale>
<asrwt>0</asrwt>
<pdfrwt beam="1">  1       21 0.92718903E-02 0.30000000E+03</pdfrwt>
<pdfrwt beam="2">0</pdfrwt>
<totfact> 0.98443042E+03</totfact>
</mgrwt>
</event>
<event>
 6    1  0.1274196E-001  0.3000000E+03  0.7818608E-02  0.1093470E+00
         21   -1    0    0  501  502  0.00000000000E+00  0.00000000000E+00  0.19300992990E+01  0.19300992990E+01  0.00000000000E+00 0. -1.
         13   -1    0    0    0    0 -0.00000000000E+00 -0.00000000000E+00 -0.10000000000E+04  0.10000000000E+04  0.00000000000E+00 0.  1.
    9000005    2    1    2  501    0 -0.43395498005E+02 -0.43269264045E+01 -0.55370201700E+03  0.55542734723E+03  0.34238696267E+01 0.  0.
         13    1    3    3    0    0 -0.16245293233E+02 -0.16406481781E+00 -0.19573753027E+03  0.19641058329E+03  0.00000000000E+00 0.  1.
          3    1    3    3  501    0 -0.27150204772E+02 -0.41628615867E+01 -0.35796448673E+03  0.35901676395E+03  0.00000000000E+00 0.  1.
         -3    1    1    2    0  502  0.43395498005E+02  0.43269264045E+01 -0.44436788370E+03  0.44650275207E+03  0.00000000000E+00 0. -1.
<mgrwt>
<rscale>  1 0.30000000E+03</rscale>
<asrwt>0</asrwt>
<pdfrwt beam="1">  1       21 0.70185577E-02 0.30000000E+03</pdfrwt>
<pdfrwt beam="2">0</pdfrwt>
<totfact> 0.16061103E+04</totfact>
</mgrwt>
</event>
<event>
 6    1  0.1274196E-001  0.3000000E+03  0.7818608E-02  0.1093470E+00
         21   -1    0    0  501  502  0.00000000000E+00  0.00000000000E+00  0.22546845844E+01  0.22546845844E+01  0.00000000000E+00 0. -1.
         13   -1    0    0    0    0 -0.00000000000E+00 -0.00000000000E+00 -0.10000000000E+04  0.10000000000E+04  0.00000000000E+00 0.  1.
    9000005    2    1    2  501    0  0.37418024747E+02  0.13086456002E+02 -0.77409342662E+03  0.77511699228E+03  0.37887554006E+01 0.  0.
         13    1    3    3    0    0  0.93539737156E+01  0.20803437895E+01 -0.16492615524E+03  0.16520430181E+03  0.00000000000E+00 0.  1.
          3    1    3    3  501    0  0.28064051031E+02  0.11006112212E+02 -0.60916727138E+03  0.60991269046E+03  0.00000000000E+00 0.  1.
         -1    1    1    2    0  502 -0.37418024747E+02 -0.13086456002E+02 -0.22365188879E+03  0.22713769231E+03  0.00000000000E+00 0. -1.
<mgrwt>
<rscale>  1 0.30000000E+03</rscale>
<asrwt>0</asrwt>
<pdfrwt beam="1">  1       21 0.81988703E-02 0.30000000E+03</pdfrwt>
<pdfrwt beam="2">0</pdfrwt>
<totfact> 0.12234267E+04</totfact>
</mgrwt>
</event>
<event>
 6    1  0.1274196E-001  0.3000000E+03  0.7818608E-02  0.1093470E+00
         21   -1    0    0  501  502  0.00000000000E+00  0.00000000000E+00  0.27752047618E+01  0.27752047618E+01  0.00000000000E+00 0. -1.
         13   -1    0    0    0    0 -0.00000000000E+00 -0.00000000000E+00 -0.10000000000E+04  0.10000000000E+04  0.00000000000E+00 0.  1.
    9000005    2    1    2  501    0 -0.47781341402E+02  0.15802370453E+02 -0.35315571941E+03  0.35674289447E+03  0.37093270673E+01 0.  0.
         13    1    3    3    0    0 -0.74730313471E+01  0.20835504169E+01 -0.45915514783E+02  0.46566316986E+02  0.00000000000E+00 0.  1.
          1    1    3    3  501    0 -0.40308310055E+02  0.13718820036E+02 -0.30724020463E+03  0.31017657749E+03  0.00000000000E+00 0.  1.
         -1    1    1    2    0  502  0.47781341402E+02 -0.15802370453E+02 -0.64406907583E+03  0.64603231029E+03  0.00000000000E+00 0. -1.
<mgrwt>
<rscale>  1 0.30000000E+03</rscale>
<asrwt>0</asrwt>
<pdfrwt beam="1">  1       21 0.10091675E-01 0.30000000E+03</pdfrwt>
<pdfrwt beam="2">0</pdfrwt>
<totfact> 0.84640120E+03</totfact>
</mgrwt>
</event>
<event>
 6    1  0.1274196E-001  0.3000000E+03  0.7818608E-02  0.1093470E+00
         21   -1    0    0  501  502  0.00000000000E+00  0.00000000000E+00  0.27483234984E+01  0.27483234984E+01  0.00000000000E+00 0. -1.
         13   -1    0    0    0    0 -0.00000000000E+00 -0.00000000000E+00 -0.10000000000E+04  0.10000000000E+04  0.00000000000E+00 0.  1.
    9000005    2    1    2  501    0  0.15452326735E+02  0.34442781076E+02 -0.84630037718E+03  0.84714827743E+03  0.32857216721E+01 0.  0.
         13    1    3    3    0    0  0.15295717633E+02  0.34025354169E+02 -0.84171148854E+03  0.84253778173E+03  0.00000000000E+00 0.  1.
          3    1    3    3  501    0  0.15660910230E+00  0.41742690708E+00 -0.45888886369E+01  0.46104956952E+01  0.00000000000E+00 0.  1.
         -1    1    1    2    0  502 -0.15452326735E+02 -0.34442781076E+02 -0.15095129932E+03  0.15560004607E+03  0.00000000000E+00 0. -1.
<mgrwt>
<rscale>  1 0.30000000E+03</rscale>
<asrwt>0</asrwt>
<pdfrwt beam="1">  1       21 0.99939247E-02 0.30000000E+03</pdfrwt>
<pdfrwt beam="2">0</pdfrwt>
<totfact> 0.86125446E+03</totfact>
</mgrwt>
</event>
<event>
 6    1  0.1274196E-001  0.3000000E+03  0.7818608E-02  0.1093470E+00
         21   -1    0    0  501  502  0.00000000000E+00  0.00000000000E+00  0.13505171856E+01  0.13505171856E+01  0.00000000000E+00 0. -1.
         13   -1    0    0    0    0 -0.00000000000E+00 -0.00000000000E+00 -0.10000000000E+04  0.10000000000E+04  0.00000000000E+00 0.  1.
    9000005    2    1    2  501    0  0.14578806612E+02  0.31429376499E+02 -0.33631142009E+03  0.33810692947E+03  0.32522553605E+01 0.  0.
         13    1    3    3    0    0  0.79701763257E+01  0.15334023548E+02 -0.18146469159E+03  0.18228573802E+03  0.00000000000E+00 0.  1.
          1    1    3    3  501    0  0.66086302866E+01  0.16095352951E+02 -0.15484672850E+03  0.15582119146E+03  0.00000000000E+00 0.  1.
         -1    1    1    2    0  502 -0.14578806612E+02 -0.31429376499E+02 -0.66233806272E+03  0.66324358771E+03  0.00000000000E+00 0. -1.
<mgrwt>
<rscale>  1 0.30000000E+03</rscale>
<asrwt>0</asrwt>
<pdfrwt beam="1">  1       21 0.49109819E-02 0.30000000E+03</pdfrwt>
<pdfrwt beam="2">0</pdfrwt>
<totfact> 0.29700013E+04</totfact>
</mgrwt>
</event>
<event>
 6    1  0.1274196E-001  0.3000000E+03  0.7818608E-02  0.1093470E+00
         21   -1    0    0  501  502  0.00000000000E+00  0.00000000000E+00  0.22906194520E+01  0.22906194520E+01  0.00000000000E+00 0. -1.
         13   -1    0    0    0    0 -0.00000000000E+00 -0.00000000000E+00 -0.10000000000E+04  0.10000000000E+04  0.00000000000E+00 0.  1.
    9000005    2    1    2  501    0  0.32993572866E+02  0.82766491236E+01 -0.85111402617E+03  0.85180049787E+03  0.34530916721E+01 0.  0.
         13    1    3    3    0    0  0.73542200744E+01  0.48336713113E+00 -0.17106431881E+03  0.17122301063E+03  0.00000000000E+00 0.  1.
          1    1    3    3  501    0  0.25639352792E+02  0.77932819925E+01 -0.68004970736E+03  0.68057748724E+03  0.00000000000E+00 0.  1.
         -3    1    1    2    0  502 -0.32993572866E+02 -0.82766491236E+01 -0.14659535437E+03  0.15049012159E+03  0.00000000000E+00 0. -1.
<mgrwt>
<rscale>  1 0.30000000E+03</rscale>
<asrwt>0</asrwt>
<pdfrwt beam="1">  1       21 0.83295428E-02 0.30000000E+03</pdfrwt>
<pdfrwt beam="2">0</pdfrwt>
<totfact> 0.11898498E+04</totfact>
</mgrwt>
</event>
<event>
 6    1  0.1274196E-001  0.3000000E+03  0.7818608E-02  0.1093470E+00
         21   -1    0    0  501  502  0.00000000000E+00  0.00000000000E+00  0.13769556357E+01  0.13769556357E+01  0.00000000000E+00 0. -1.
         13   -1    0    0    0    0 -0.00000000000E+00 -0.00000000000E+00 -0.10000000000E+04  0.10000000000E+04  0.00000000000E+00 0.  1.
    9000005    2    1    2  501    0 -0.63180623321E+00  0.30622408565E+02 -0.78115768187E+03  0.78176521877E+03  0.33767210623E+01 0.  0.
         13    1    3    3    0    0  0.82949687933E+00  0.16232079908E+02 -0.38225963734E+03  0.38260501672E+03  0.00000000000E+00 0.  1.
          3    1    3    3  501    0 -0.14613031125E+01  0.14390328657E+02 -0.39889804453E+03  0.39916020204E+03  0.00000000000E+00 0.  1.
         -1    1    1    2    0  502  0.63180623321E+00 -0.30622408565E+02 -0.21746536250E+03  0.21961173687E+03  0.00000000000E+00 0. -1.
<mgrwt>
<rscale>  1 0.30000000E+03</rscale>
<asrwt>0</asrwt>
<pdfrwt beam="1">  1       21 0.50071220E-02 0.30000000E+03</pdfrwt>
<pdfrwt beam="2">0</pdfrwt>
<totfact> 0.28734844E+04</totfact>
</mgrwt>
</event>
<event>
 6    1  0.1274196E-001  0.3000000E+03  0.7818608E-02  0.1093470E+00
         21   -1    0    0  501  502  0.00000000000E+00  0.00000000000E+00  0.12807961756E+01  0.12807961756E+01  0.00000000000E+00 0. -1.
         13   -1    0    0    0    0 -0.00000000000E+00 -0.00000000000E+00 -0.10000000000E+04  0.10000000000E+04  0.00000000000E+00 0.  1.
    9000005    2    1    2  501    0 -0.29353150313E+02 -0.18906990456E+02 -0.60477022262E+03  0.60578758320E+03  0.35344114760E+01 0.  0.
         13    1    3    3    0    0 -0.29250402538E+02 -0.18904124184E+02 -0.59597044867E+03  0.59698720895E+03  0.00000000000E+00 0.  1.
          3    1    3    3  501    0 -0.10274777561E+00 -0.28662721338E-02 -0.87997739510E+01  0.88003742482E+01  0.00000000000E+00 0.  1.
         -1    1    1    2    0  502  0.29353150313E+02  0.18906990456E+02 -0.39394898120E+03  0.39549321298E+03  0.00000000000E+00 0. -1.
<mgrwt>
<rscale>  1 0.30000000E+03</rscale>
<asrwt>0</asrwt>
<pdfrwt beam="1">  1       21 0.46574505E-02 0.30000000E+03</pdfrwt>
<pdfrwt beam="2">0</pdfrwt>
<totfact> 0.32502960E+04</totfact>
</mgrwt>
</event>
<event>
 6    1  0.1274196E-001  0.3000000E+03  0.7818608E-02  0.1093470E+00
         21   -1    0    0  501  502  0.00000000000E+00  0.00000000000E+00  0.55337819264E+01  0.55337819264E+01  0.00000000000E+00 0. -1.
         13   -1    0    0    0    0 -0.00000000000E+00 -0.00000000000E+00 -0.10000000000E+04  0.10000000000E+04  0.00000000000E+00 0.  1.
    9000005    2    1    2  501    0  0.45582729184E+02 -0.47283132215E+02 -0.26160510648E+03  0.26973565154E+03  0.25710278369E+01 0.  0.
         13    1    3    3    0    0  0.41150615064E+02 -0.41717736362E+02 -0.23500691611E+03  0.24220238080E+03  0.00000000000E+00 0.  1.
          1    1    3    3  501    0  0.44321141193E+01 -0.55653958529E+01 -0.26598190372E+02  0.27533270740E+02  0.00000000000E+00 0.  1.
         -3    1    1    2    0  502 -0.45582729184E+02  0.47283132215E+02 -0.73286111159E+03  0.73579813038E+03  0.00000000000E+00 0. -1.
<mgrwt>
<rscale>  1 0.30000000E+03</rscale>
<asrwt>0</asrwt>
<pdfrwt beam="1">  1       21 0.20122886E-01 0.30000000E+03</pdfrwt>
<pdfrwt beam="2">0</pdfrwt>
<totfact> 0.23713198E+03</totfact>
</mgrwt>
</event>
<event>
 6    1  0.1274196E-001  0.3000000E+03  0.7818608E-02  0.1093470E+00
         21   -1    0    0  501  502  0.00000000000E+00  0.00000000000E+00  0.21881027036E+01  0.21881027036E+01  0.00000000000E+00 0. -1.
         13   -1    0    0    0    0 -0.00000000000E+00 -0.00000000000E+00 -0.10000000000E+04  0.10000000000E+04  0.00000000000E+00 0.  1.
    9000005    2    1    2  501    0 -0.28054741147E+02 -0.20543649498E+02 -0.83368568228E+03  0.83441884303E+03  0.37254168549E+01 0.  0.
         13    1    3    3    0    0 -0.21306189624E+02 -0.13864976977E+02 -0.58528643930E+03  0.58583820917E+03  0.00000000000E+00 0.  1.
          3    1    3    3  501    0 -0.67485515229E+01 -0.66786725206E+01 -0.24839924298E+03  0.24858063386E+03  0.00000000000E+00 0.  1.
         -3    1    1    2    0  502  0.28054741147E+02  0.20543649498E+02 -0.16412621502E+03  0.16776925967E+03  0.00000000000E+00 0. -1.
<mgrwt>
<rscale>  1 0.30000000E+03</rscale>
<asrwt>0</asrwt>
<pdfrwt beam="1">  1       21 0.79567539E-02 0.30000000E+03</pdfrwt>
<pdfrwt beam="2">0</pdfrwt>
<totfact> 0.12896048E+04</totfact>
</mgrwt>
</event>
<event>
 6    1  0.1274196E-001  0.3000000E+03  0.7818608E-02  0.1093470E+00
         21   -1    0    0  501  502  0.00000000000E+00  0.00000000000E+00  0.15150946913E+01  0.15150946913E+01  0.00000000000E+00 0. -1.
         13   -1    0    0    0    0 -0.00000000000E+00 -0.00000000000E+00 -0.10000000000E+04  0.10000000000E+04  0.00000000000E+00 0.  1.
    9000005    2    1    2  501    0 -0.20081394296E+02 -0.29773475042E+02 -0.69107150240E+03  0.69201110037E+03  0.31335910606E+01 0.  0.
         13    1    3    3    0    0 -0.15520059186E+02 -0.22172524333E+02 -0.49505579436E+03  0.49579505101E+03  0.00000000000E+00 0.  1.
          3    1    3    3  501    0 -0.45613351107E+01 -0.76009507087E+01 -0.19601570804E+03  0.19621604937E+03  0.00000000000E+00 0.  1.
         -1    1    1    2    0  502  0.20081394296E+02  0.29773475042E+02 -0.30741340291E+03  0.30950399432E+03  0.00000000000E+00 0. -1.
<mgrwt>
<rscale>  1 0.30000000E+03</rscale>
<asrwt>0</asrwt>
<pdfrwt beam="1">  1       21 0.55094469E-02 0.30000000E+03</pdfrwt>
<pdfrwt beam="2">0</pdfrwt>
<totfact> 0.24402232E+04</totfact>
</mgrwt>
</event>
<event>
 6    1  0.1274196E-001  0.3000000E+03  0.7818608E-02  0.1093470E+00
         21   -1    0    0  501  502  0.00000000000E+00  0.00000000000E+00  0.14849076702E+01  0.14849076702E+01  0.00000000000E+00 0. -1.
         13   -1    0    0    0    0 -0.00000000000E+00 -0.00000000000E+00 -0.10000000000E+04  0.10000000000E+04  0.00000000000E+00 0.  1.
    9000005    2    1    2  501    0 -0.29158805735E+02  0.15628609781E+02 -0.75494081235E+03  0.75567416897E+03  0.36510398722E+01 0.  0.
         13    1    3    3    0    0 -0.12768200196E+02  0.88724945825E+01 -0.36061791078E+03  0.36095294108E+03  0.00000000000E+00 0.  1.
          1    1    3    3  501    0 -0.16390605538E+02  0.67561151989E+01 -0.39432290157E+03  0.39472122789E+03  0.00000000000E+00 0.  1.
         -3    1    1    2    0  502  0.29158805735E+02 -0.15628609781E+02 -0.24357427998E+03  0.24581073870E+03  0.00000000000E+00 0. -1.
<mgrwt>
<rscale>  1 0.30000000E+03</rscale>
<asrwt>0</asrwt>
<pdfrwt beam="1">  1       21 0.53996756E-02 0.30000000E+03</pdfrwt>
<pdfrwt beam="2">0</pdfrwt>
<totfact> 0.25258489E+04</totfact>
</mgrwt>
</event>
<event>
 6    1  0.1274196E-001  0.3000000E+03  0.7818608E-02  0.1093470E+00
         21   -1    0    0  501  502  0.00000000000E+00  0.00000000000E+00  0.33664085466E+01  0.33664085466E+01  0.00000000000E+00 0. -1.
         13   -1    0    0    0    0 -0.00000000000E+00 -0.00000000000E+00 -0.10000000000E+04  0.10000000000E+04  0.00000000000E+00 0.  1.
    9000005    2    1    2  501    0 -0.10700448831E+02 -0.43616184903E+02 -0.81569336230E+03  0.81693615961E+03  0.34866022909E+01 0.  0.
         13    1    3    3    0    0 -0.81556553301E+01 -0.31226166003E+02 -0.55796498268E+03  0.55889758459E+03  0.00000000000E+00 0.  1.
          1    1    3    3  501    0 -0.25447935008E+01 -0.12390018900E+02 -0.25772837961E+03  0.25803857502E+03  0.00000000000E+00 0.  1.
         -1    1    1    2    0  502  0.10700448831E+02  0.43616184903E+02 -0.18094022916E+03  0.18643024894E+03  0.00000000000E+00 0. -1.
<mgrwt>
<rscale>  1 0.30000000E+03</rscale>
<asrwt>0</asrwt>
<pdfrwt beam="1">  1       21 0.12241511E-01 0.30000000E+03</pdfrwt>
<pdfrwt beam="2">0</pdfrwt>
<totfact> 0.59767532E+03</totfact>
</mgrwt>
</event>
<event>
 6    1  0.1274196E-001  0.3000000E+03  0.7818608E-02  0.1093470E+00
         21   -1    0    0  501  502  0.00000000000E+00  0.00000000000E+00  0.10988445079E+01  0.10988445079E+01  0.00000000000E+00 0. -1.
         13   -1    0    0    0    0 -0.00000000000E+00 -0.00000000000E+00 -0.10000000000E+04  0.10000000000E+04  0.00000000000E+00 0.  1.
    9000005    2    1    2  501    0 -0.29596297728E+02 -0.75227926083E+01 -0.69233545783E+03  0.69301596567E+03  0.31951935381E+01 0.  0.
         13    1    3    3    0    0 -0.65555416922E+01 -0.20952210941E+01 -0.12912068241E+03  0.12930396631E+03  0.00000000000E+00 0.  1.
          1    1    3    3  501    0 -0.23040756036E+02 -0.54275715142E+01 -0.56321477542E+03  0.56371199936E+03  0.00000000000E+00 0.  1.
         -1    1    1    2    0  502  0.29596297728E+02  0.75227926083E+01 -0.30656569766E+03  0.30808287884E+03  0.00000000000E+00 0. -1.
<mgrwt>
<rscale>  1 0.30000000E+03</rscale>
<asrwt>0</asrwt>
<pdfrwt beam="1">  1       21 0.39958066E-02 0.30000000E+03</pdfrwt>
<pdfrwt beam="2">0</pdfrwt>
<totfact> 0.42121658E+04</totfact>
</mgrwt>
</event>
<event>
 6    1  0.1274196E-001  0.3000000E+03  0.7818608E-02  0.1093470E+00
         21   -1    0    0  501  502  0.00000000000E+00  0.00000000000E+00  0.11802737836E+02  0.11802737836E+02  0.00000000000E+00 0. -1.
         13   -1    0    0    0    0 -0.00000000000E+00 -0.00000000000E+00 -0.10000000000E+04  0.10000000000E+04  0.00000000000E+00 0.  1.
    9000005    2    1    2  501    0 -0.10007668132E+02 -0.29426726069E+02 -0.97884633052E+03  0.97934467950E+03  0.31267956489E+01 0.  0.
         13    1    3    3    0    0 -0.33007442017E+01 -0.61048768380E+01 -0.23656966341E+03  0.23667143908E+03  0.00000000000E+00 0.  1.
          3    1    3    3  501    0 -0.67069239308E+01 -0.23321849231E+02 -0.74227666712E+03  0.74267324041E+03  0.00000000000E+00 0.  1.
         -1    1    1    2    0  502  0.10007668132E+02  0.29426726069E+02 -0.93509316399E+01  0.32458058339E+02  0.00000000000E+00 0. -1.
<mgrwt>
<rscale>  1 0.30000000E+03</rscale>
<asrwt>0</asrwt>
<pdfrwt beam="1">  1       21 0.42919137E-01 0.30000000E+03</pdfrwt>
<pdfrwt beam="2">0</pdfrwt>
<totfact> 0.52087057E+02</totfact>
</mgrwt>
</event>
<event>
 6    1  0.1274196E-001  0.3000000E+03  0.7818608E-02  0.1093470E+00
         21   -1    0    0  501  502  0.00000000000E+00  0.00000000000E+00  0.17434895029E+01  0.17434895029E+01  0.00000000000E+00 0. -1.
         13   -1    0    0    0    0 -0.00000000000E+00 -0.00000000000E+00 -0.10000000000E+04  0.10000000000E+04  0.00000000000E+00 0.  1.
    9000005    2    1    2  501    0 -0.40230119958E+02 -0.90550388367E+01 -0.56752842140E+03  0.56904597043E+03  0.49346811881E+01 0.  0.
         13    1    3    3    0    0 -0.28688659600E+02 -0.55629746741E+01 -0.37197932346E+03  0.37312545204E+03  0.00000000000E+00 0.  1.
          3    1    3    3  501    0 -0.11541460358E+02 -0.34920641626E+01 -0.19554909794E+03  0.19592051839E+03  0.00000000000E+00 0.  1.
         -1    1    1    2    0  502  0.40230119958E+02  0.90550388367E+01 -0.43072808909E+03  0.43269751908E+03  0.00000000000E+00 0. -1.
<mgrwt>
<rscale>  1 0.30000000E+03</rscale>
<asrwt>0</asrwt>
<pdfrwt beam="1">  1       21 0.63399752E-02 0.30000000E+03</pdfrwt>
<pdfrwt beam="2">0</pdfrwt>
<totfact> 0.19158770E+04</totfact>
</mgrwt>
</event>
<event>
 6    1  0.1274196E-001  0.3000000E+03  0.7818608E-02  0.1093470E+00
         21   -1    0    0  501  502  0.00000000000E+00  0.00000000000E+00  0.25400737177E+01  0.25400737177E+01  0.00000000000E+00 0. -1.
         13   -1    0    0    0    0 -0.00000000000E+00 -0.00000000000E+00 -0.10000000000E+04  0.10000000000E+04  0.00000000000E+00 0.  1.
    9000005    2    1    2  501    0 -0.83438218218E+01  0.40008868262E+02 -0.79161913731E+03  0.79268117038E+03  0.35000613248E+01 0.  0.
         13    1    3    3    0    0 -0.12430943126E+01  0.21465885173E+01 -0.42826599740E+02  0.42898377254E+02  0.00000000000E+00 0.  1.
          3    1    3    3  501    0 -0.71007275092E+01  0.37862279745E+02 -0.74879253757E+03  0.74978279313E+03  0.00000000000E+00 0.  1.
         -1    1    1    2    0  502  0.83438218218E+01 -0.40008868262E+02 -0.20584078898E+03  0.20985890333E+03  0.00000000000E+00 0. -1.
<mgrwt>
<rscale>  1 0.30000000E+03</rscale>
<asrwt>0</asrwt>
<pdfrwt beam="1">  1       21 0.92366512E-02 0.30000000E+03</pdfrwt>
<pdfrwt beam="2">0</pdfrwt>
<totfact> 0.99111205E+03</totfact>
</mgrwt>
</event>
<event>
 6    1  0.1274196E-001  0.3000000E+03  0.7818608E-02  0.1093470E+00
         21   -1    0    0  501  502  0.00000000000E+00  0.00000000000E+00  0.56147721990E+01  0.56147721990E+01  0.00000000000E+00 0. -1.
         13   -1    0    0    0    0 -0.00000000000E+00 -0.00000000000E+00 -0.10000000000E+04  0.10000000000E+04  0.00000000000E+00 0.  1.
    9000005    2    1    2  501    0  0.99489633482E+01 -0.36252812749E+02 -0.93208322135E+03  0.93284947613E+03  0.39705532920E+01 0.  0.
         13    1    3    3    0    0  0.33727457459E+01 -0.68843697248E+01 -0.17245839382E+03  0.17262869854E+03  0.00000000000E+00 0.  1.
          3    1    3    3  501    0  0.65762176023E+01 -0.29368443024E+02 -0.75962482752E+03  0.76022077759E+03  0.00000000000E+00 0.  1.
         -3    1    1    2    0  502 -0.99489633482E+01  0.36252812749E+02 -0.62302006452E+02  0.72765296068E+02  0.00000000000E+00 0. -1.
<mgrwt>
<rscale>  1 0.30000000E+03</rscale>
<asrwt>0</asrwt>
<pdfrwt beam="1">  1       21 0.20417397E-01 0.30000000E+03</pdfrwt>
<pdfrwt beam="2">0</pdfrwt>
<totfact> 0.23063740E+03</totfact>
</mgrwt>
</event>
<event>
 6    1  0.1274196E-001  0.3000000E+03  0.7818608E-02  0.1093470E+00
         21   -1    0    0  501  502  0.00000000000E+00  0.00000000000E+00  0.28447556145E+01  0.28447556145E+01  0.00000000000E+00 0. -1.
         13   -1    0    0    0    0 -0.00000000000E+00 -0.00000000000E+00 -0.10000000000E+04  0.10000000000E+04  0.00000000000E+00 0.  1.
    9000005    2    1    2  501    0 -0.34832986251E+02  0.30701846220E+02 -0.74485805105E+03  0.74631051997E+03  0.31520964689E+01 0.  0.
         13    1    3    3    0    0 -0.24431771087E+02  0.22794542188E+02 -0.55198741041E+03  0.55299783349E+03  0.00000000000E+00 0.  1.
          3    1    3    3  501    0 -0.10401215164E+02  0.79073040317E+01 -0.19287064064E+03  0.19331268648E+03  0.00000000000E+00 0.  1.
         -1    1    1    2    0  502  0.34832986251E+02 -0.30701846220E+02 -0.25229719334E+03  0.25653423564E+03  0.00000000000E+00 0. -1.
<mgrwt>
<rscale>  1 0.30000000E+03</rscale>
<asrwt>0</asrwt>
<pdfrwt beam="1">  1       21 0.10344588E-01 0.30000000E+03</pdfrwt>
<pdfrwt beam="2">0</pdfrwt>
<totfact> 0.80973351E+03</totfact>
</mgrwt>
</event>
<event>
 6    1  0.1274196E-001  0.3000000E+03  0.7818608E-02  0.1093470E+00
         21   -1    0    0  501  502  0.00000000000E+00  0.00000000000E+00  0.28138725924E+01  0.28138725924E+01  0.00000000000E+00 0. -1.
         13   -1    0    0    0    0 -0.00000000000E+00 -0.00000000000E+00 -0.10000000000E+04  0.10000000000E+04  0.00000000000E+00 0.  1.
    9000005    2    1    2  501    0  0.48723348627E+02 -0.56572969447E+01 -0.30914787981E+03  0.31302941360E+03  0.30054080525E+01 0.  0.
         13    1    3    3    0    0  0.77127955815E+00 -0.44471563057E+00 -0.45812014584E+01  0.46669102146E+01  0.00000000000E+00 0.  1.
          3    1    3    3  501    0  0.47952069069E+02 -0.52125813141E+01 -0.30456667835E+03  0.30836250339E+03  0.00000000000E+00 0.  1.
         -3    1    1    2    0  502 -0.48723348627E+02  0.56572969447E+01 -0.68803824760E+03  0.68978445899E+03  0.00000000000E+00 0. -1.
<mgrwt>
<rscale>  1 0.30000000E+03</rscale>
<asrwt>0</asrwt>
<pdfrwt beam="1">  1       21 0.10232286E-01 0.30000000E+03</pdfrwt>
<pdfrwt beam="2">0</pdfrwt>
<totfact> 0.82571059E+03</totfact>
</mgrwt>
</event>
<event>
 6    1  0.1274196E-001  0.3000000E+03  0.7818608E-02  0.1093470E+00
         21   -1    0    0  501  502  0.00000000000E+00  0.00000000000E+00  0.51069834621E+01  0.51069834621E+01  0.00000000000E+00 0. -1.
         13   -1    0    0    0    0 -0.00000000000E+00 -0.00000000000E+00 -0.10000000000E+04  0.10000000000E+04  0.00000000000E+00 0.  1.
    9000005    2    1    2  501    0  0.43169913557E+02  0.72521898076E+01 -0.89460509629E+03  0.89568165439E+03  0.33334697033E+01 0.  0.
         13    1    3    3    0    0  0.33154110794E+02  0.43580094695E+01 -0.69717613029E+03  0.69797760993E+03  0.00000000000E+00 0.  1.
          1    1    3    3  501    0  0.10015802764E+02  0.28941803382E+01 -0.19742896599E+03  0.19770404447E+03  0.00000000000E+00 0.  1.
         -3    1    1    2    0  502 -0.43169913557E+02 -0.72521898076E+01 -0.10028792025E+03  0.10942532907E+03  0.00000000000E+00 0. -1.
<mgrwt>
<rscale>  1 0.30000000E+03</rscale>
<asrwt>0</asrwt>
<pdfrwt beam="1">  1       21 0.18570888E-01 0.30000000E+03</pdfrwt>
<pdfrwt beam="2">0</pdfrwt>
<totfact> 0.27619611E+03</totfact>
</mgrwt>
</event>
<event>
 6    1  0.1274196E-001  0.3000000E+03  0.7818608E-02  0.1093470E+00
         21   -1    0    0  501  502  0.00000000000E+00  0.00000000000E+00  0.24835735652E+01  0.24835735652E+01  0.00000000000E+00 0. -1.
         13   -1    0    0    0    0 -0.00000000000E+00 -0.00000000000E+00 -0.10000000000E+04  0.10000000000E+04  0.00000000000E+00 0.  1.
    9000005    2    1    2  501    0 -0.26024788123E+02  0.18056744634E+02 -0.88559471113E+03  0.88616587938E+03  0.29390089726E+01 0.  0.
         13    1    3    3    0    0 -0.20161978576E+02  0.14834940310E+02 -0.67013905498E+03  0.67060639264E+03  0.00000000000E+00 0.  1.
          3    1    3    3  501    0 -0.58628095468E+01  0.32218043244E+01 -0.21545565615E+03  0.21555948674E+03  0.00000000000E+00 0.  1.
         -1    1    1    2    0  502  0.26024788123E+02 -0.18056744634E+02 -0.11192171530E+03  0.11631769418E+03  0.00000000000E+00 0. -1.
<mgrwt>
<rscale>  1 0.30000000E+03</rscale>
<asrwt>0</asrwt>
<pdfrwt beam="1">  1       21 0.90311956E-02 0.30000000E+03</pdfrwt>
<pdfrwt beam="2">0</pdfrwt>
<totfact> 0.10314654E+04</totfact>
</mgrwt>
</event>
<event>
 6    1  0.1274196E-001  0.3000000E+03  0.7818608E-02  0.1093470E+00
         21   -1    0    0  501  502  0.00000000000E+00  0.00000000000E+00  0.12907276605E+01  0.12907276605E+01  0.00000000000E+00 0. -1.
         13   -1    0    0    0    0 -0.00000000000E+00 -0.00000000000E+00 -0.10000000000E+04  0.10000000000E+04  0.00000000000E+00 0.  1.
    9000005    2    1    2  501    0 -0.21977253631E+02 -0.28267289455E+02 -0.47349716977E+03  0.47485954316E+03  0.31585785578E+01 0.  0.
         13    1    3    3    0    0 -0.14221801728E+02 -0.19137785458E+02 -0.33309005879E+03  0.33394236290E+03  0.00000000000E+00 0.  1.
          3    1    3    3  501    0 -0.77554519036E+01 -0.91295039977E+01 -0.14040711099E+03  0.14091718026E+03  0.00000000000E+00 0.  1.
         -3    1    1    2    0  502  0.21977253631E+02  0.28267289455E+02 -0.52521210256E+03  0.52643118450E+03  0.00000000000E+00 0. -1.
<mgrwt>
<rscale>  1 0.30000000E+03</rscale>
<asrwt>0</asrwt>
<pdfrwt beam="1">  1       21 0.46935650E-02 0.30000000E+03</pdfrwt>
<pdfrwt beam="2">0</pdfrwt>
<totfact> 0.32078970E+04</totfact>
</mgrwt>
</event>
<event>
 6    1  0.1274196E-001  0.3000000E+03  0.7818608E-02  0.1093470E+00
         21   -1    0    0  501  502  0.00000000000E+00  0.00000000000E+00  0.22125357221E+01  0.22125357221E+01  0.00000000000E+00 0. -1.
         13   -1    0    0    0    0 -0.00000000000E+00 -0.00000000000E+00 -0.10000000000E+04  0.10000000000E+04  0.00000000000E+00 0.  1.
    9000005    2    1    2  501    0 -0.84494355021E+01 -0.29996931215E+02 -0.87402010831E+03  0.87458194673E+03  0.33500712023E+01 0.  0.
         13    1    3    3    0    0 -0.44416180393E+01 -0.21024803942E+02 -0.61672240103E+03  0.61709666202E+03  0.00000000000E+00 0.  1.
          3    1    3    3  501    0 -0.40078174629E+01 -0.89721272724E+01 -0.25729770728E+03  0.25748528471E+03  0.00000000000E+00 0.  1.
         -3    1    1    2    0  502  0.84494355021E+01  0.29996931215E+02 -0.12376735597E+03  0.12763058899E+03  0.00000000000E+00 0. -1.
<mgrwt>
<rscale>  1 0.30000000E+03</rscale>
<asrwt>0</asrwt>
<pdfrwt beam="1">  1       21 0.80456014E-02 0.30000000E+03</pdfrwt>
<pdfrwt beam="2">0</pdfrwt>
<totfact> 0.12646952E+04</totfact>
</mgrwt>
</event>
<event>
 6    1  0.1274196E-001  0.3000000E+03  0.7818608E-02  0.1093470E+00
         21   -1    0    0  501  502  0.00000000000E+00  0.00000000000E+00  0.21872751321E+01  0.21872751321E+01  0.00000000000E+00 0. -1.
         13   -1    0    0    0    0 -0.00000000000E+00 -0.00000000000E+00 -0.10000000000E+04  0.10000000000E+04  0.00000000000E+00 0.  1.
    9000005    2    1    2  501    0 -0.29310024662E+02  0.34965268881E+02 -0.59156558550E+03  0.59338611831E+03  0.86945892832E+01 0.  0.
         13    1    3    3    0    0 -0.17974796996E+02  0.16329733239E+02 -0.27515298449E+03  0.27622258849E+03  0.00000000000E+00 0.  1.
          1    1    3    3  501    0 -0.11335227666E+02  0.18635535642E+02 -0.31641260100E+03  0.31716352982E+03  0.00000000000E+00 0.  1.
         -1    1    1    2    0  502  0.29310024662E+02 -0.34965268881E+02 -0.40624713937E+03  0.40880115682E+03  0.00000000000E+00 0. -1.
<mgrwt>
<rscale>  1 0.30000000E+03</rscale>
<asrwt>0</asrwt>
<pdfrwt beam="1">  1       21 0.79537445E-02 0.30000000E+03</pdfrwt>
<pdfrwt beam="2">0</pdfrwt>
<totfact> 0.12904617E+04</totfact>
</mgrwt>
</event>
<event>
 6    1  0.1274196E-001  0.3000000E+03  0.7818608E-02  0.1093470E+00
         21   -1    0    0  501  502  0.00000000000E+00  0.00000000000E+00  0.84488111469E+01  0.84488111469E+01  0.00000000000E+00 0. -1.
         13   -1    0    0    0    0 -0.00000000000E+00 -0.00000000000E+00 -0.10000000000E+04  0.10000000000E+04  0.00000000000E+00 0.  1.
    9000005    2    1    2  501    0 -0.51228974407E+02 -0.25563294649E+02 -0.89020019580E+03  0.89204471481E+03  0.30813565001E+01 0.  0.
         13    1    3    3    0    0 -0.43404795267E+02 -0.20419055904E+02 -0.74083841537E+03  0.74238970345E+03  0.00000000000E+00 0.  1.
          3    1    3    3  501    0 -0.78241791393E+01 -0.51442387450E+01 -0.14936178043E+03  0.14965501136E+03  0.00000000000E+00 0.  1.
         -1    1    1    2    0  502  0.51228974407E+02  0.25563294649E+02 -0.10135099305E+03  0.11640409634E+03  0.00000000000E+00 0. -1.
<mgrwt>
<rscale>  1 0.30000000E+03</rscale>
<asrwt>0</asrwt>
<pdfrwt beam="1">  1       21 0.30723014E-01 0.30000000E+03</pdfrwt>
<pdfrwt beam="2">0</pdfrwt>
<totfact> 0.10366084E+03</totfact>
</mgrwt>
</event>
<event>
 6    1  0.1274196E-001  0.3000000E+03  0.7818608E-02  0.1093470E+00
         21   -1    0    0  501  502  0.00000000000E+00  0.00000000000E+00  0.13840020028E+01  0.13840020028E+01  0.00000000000E+00 0. -1.
         13   -1    0    0    0    0 -0.00000000000E+00 -0.00000000000E+00 -0.10000000000E+04  0.10000000000E+04  0.00000000000E+00 0.  1.
    9000005    2    1    2  501    0 -0.28748574901E+02 -0.16392903028E+02 -0.72219170743E+03  0.72298573289E+03  0.72318639069E+01 0.  0.
         13    1    3    3    0    0 -0.16805197943E+02 -0.64994335562E+01 -0.43909410853E+03  0.43946364293E+03  0.00000000000E+00 0.  1.
          3    1    3    3  501    0 -0.11943376958E+02 -0.98934694723E+01 -0.28309759890E+03  0.28352208996E+03  0.00000000000E+00 0.  1.
         -3    1    1    2    0  502  0.28748574901E+02  0.16392903028E+02 -0.27642429057E+03  0.27839826911E+03  0.00000000000E+00 0. -1.
<mgrwt>
<rscale>  1 0.30000000E+03</rscale>
<asrwt>0</asrwt>
<pdfrwt beam="1">  1       21 0.50327452E-02 0.30000000E+03</pdfrwt>
<pdfrwt beam="2">0</pdfrwt>
<totfact> 0.28485845E+04</totfact>
</mgrwt>
</event>
<event>
 6    1  0.1274196E-001  0.3000000E+03  0.7818608E-02  0.1093470E+00
         21   -1    0    0  501  502  0.00000000000E+00  0.00000000000E+00  0.17425337836E+01  0.17425337836E+01  0.00000000000E+00 0. -1.
         13   -1    0    0    0    0 -0.00000000000E+00 -0.00000000000E+00 -0.10000000000E+04  0.10000000000E+04  0.00000000000E+00 0.  1.
    9000005    2    1    2  501    0  0.18843445371E+02  0.31712343155E+02 -0.73269050170E+03  0.73362584131E+03  0.32795748351E+01 0.  0.
         13    1    3    3    0    0  0.15511009899E+02  0.28250972878E+02 -0.63768177580E+03  0.63849569778E+03  0.00000000000E+00 0.  1.
          3    1    3    3  501    0  0.33324354716E+01  0.34613702763E+01 -0.95008725903E+02  0.95130143530E+02  0.00000000000E+00 0.  1.
         -3    1    1    2    0  502 -0.18843445371E+02 -0.31712343155E+02 -0.26556696452E+03  0.26811669248E+03  0.00000000000E+00 0. -1.
<mgrwt>
<rscale>  1 0.30000000E+03</rscale>
<asrwt>0</asrwt>
<pdfrwt beam="1">  1       21 0.63364998E-02 0.30000000E+03</pdfrwt>
<pdfrwt beam="2">0</pdfrwt>
<totfact> 0.19176942E+04</totfact>
</mgrwt>
</event>
<event>
 6    1  0.1274196E-001  0.3000000E+03  0.7818608E-02  0.1093470E+00
         21   -1    0    0  501  502  0.00000000000E+00  0.00000000000E+00  0.10090015861E+01  0.10090015861E+01  0.00000000000E+00 0. -1.
         13   -1    0    0    0    0 -0.00000000000E+00 -0.00000000000E+00 -0.10000000000E+04  0.10000000000E+04  0.00000000000E+00 0.  1.
    9000005    2    1    2  501    0  0.21270097353E+02  0.23148387183E+02 -0.56329082774E+03  0.56417619193E+03  0.31550038348E+01 0.  0.
         13    1    3    3    0    0  0.14855239005E+02  0.14257559319E+02 -0.35367417038E+03  0.35427302313E+03  0.00000000000E+00 0.  1.
          3    1    3    3  501    0  0.64148583478E+01  0.88908278645E+01 -0.20961665736E+03  0.20990316880E+03  0.00000000000E+00 0.  1.
         -3    1    1    2    0  502 -0.21270097353E+02 -0.23148387183E+02 -0.43570017067E+03  0.43683280966E+03  0.00000000000E+00 0. -1.
<mgrwt>
<rscale>  1 0.30000000E+03</rscale>
<asrwt>0</asrwt>
<pdfrwt beam="1">  1       21 0.36691044E-02 0.30000000E+03</pdfrwt>
<pdfrwt beam="2">0</pdfrwt>
<totfact> 0.48614764E+04</totfact>
</mgrwt>
</event>
<event>
 6    1  0.1274196E-001  0.3000000E+03  0.7818608E-02  0.1093470E+00
         21   -1    0    0  501  502  0.00000000000E+00  0.00000000000E+00  0.45319277851E+01  0.45319277851E+01  0.00000000000E+00 0. -1.
         13   -1    0    0    0    0 -0.00000000000E+00 -0.00000000000E+00 -0.10000000000E+04  0.10000000000E+04  0.00000000000E+00 0.  1.
    9000005    2    1    2  501    0  0.26898432902E+02 -0.60663544873E+02 -0.58088105852E+03  0.58466768390E+03  0.31472337039E+01 0.  0.
         13    1    3    3    0    0  0.15568055670E+01 -0.22251809827E+01 -0.26912519411E+02  0.27049191763E+02  0.00000000000E+00 0.  1.
          3    1    3    3  501    0  0.25341627335E+02 -0.58438363891E+02 -0.55396853911E+03  0.55761849214E+03  0.00000000000E+00 0.  1.
         -1    1    1    2    0  502 -0.26898432902E+02  0.60663544873E+02 -0.41458701369E+03  0.41986424388E+03  0.00000000000E+00 0. -1.
<mgrwt>
<rscale>  1 0.30000000E+03</rscale>
<asrwt>0</asrwt>
<pdfrwt beam="1">  1       21 0.16479772E-01 0.30000000E+03</pdfrwt>
<pdfrwt beam="2">0</pdfrwt>
<totfact> 0.34567443E+03</totfact>
</mgrwt>
</event>
<event>
 6    1  0.1274196E-001  0.3000000E+03  0.7818608E-02  0.1093470E+00
         21   -1    0    0  501  502  0.00000000000E+00  0.00000000000E+00  0.10602134063E+01  0.10602134063E+01  0.00000000000E+00 0. -1.
         13   -1    0    0    0    0 -0.00000000000E+00 -0.00000000000E+00 -0.10000000000E+04  0.10000000000E+04  0.00000000000E+00 0.  1.
    9000005    2    1    2  501    0 -0.26343675430E+02  0.14501631885E+02 -0.31282914226E+03  0.31429089054E+03  0.35220827193E+01 0.  0.
         13    1    3    3    0    0 -0.20243817744E+02  0.12717906995E+02 -0.24310649769E+03  0.24427919792E+03  0.00000000000E+00 0.  1.
          3    1    3    3  501    0 -0.60998576861E+01  0.17837248903E+01 -0.69722644568E+02  0.70011692622E+02  0.00000000000E+00 0.  1.
         -1    1    1    2    0  502  0.26343675430E+02 -0.14501631885E+02 -0.68611064433E+03  0.68676932286E+03  0.00000000000E+00 0. -1.
<mgrwt>
<rscale>  1 0.30000000E+03</rscale>
<asrwt>0</asrwt>
<pdfrwt beam="1">  1       21 0.38553296E-02 0.30000000E+03</pdfrwt>
<pdfrwt beam="2">0</pdfrwt>
<totfact> 0.44735941E+04</totfact>
</mgrwt>
</event>
<event>
 6    1  0.1274196E-001  0.3000000E+03  0.7818608E-02  0.1093470E+00
         21   -1    0    0  501  502  0.00000000000E+00  0.00000000000E+00  0.19437381887E+01  0.19437381887E+01  0.00000000000E+00 0. -1.
         13   -1    0    0    0    0 -0.00000000000E+00 -0.00000000000E+00 -0.10000000000E+04  0.10000000000E+04  0.00000000000E+00 0.  1.
    9000005    2    1    2  501    0 -0.16626420616E+02 -0.39614887554E+02 -0.39038962083E+03  0.39276024881E+03  0.32832620600E+01 0.  0.
         13    1    3    3    0    0 -0.40049494017E+01 -0.13451922830E+02 -0.12971689602E+03  0.13047400876E+03  0.00000000000E+00 0.  1.
          3    1    3    3  501    0 -0.12621471214E+02 -0.26162964724E+02 -0.26067272481E+03  0.26228624005E+03  0.00000000000E+00 0.  1.
         -1    1    1    2    0  502  0.16626420616E+02  0.39614887554E+02 -0.60766664098E+03  0.60918348938E+03  0.00000000000E+00 0. -1.
<mgrwt>
<rscale>  1 0.30000000E+03</rscale>
<asrwt>0</asrwt>
<pdfrwt beam="1">  1       21 0.70681538E-02 0.30000000E+03</pdfrwt>
<pdfrwt beam="2">0</pdfrwt>
<totfact> 0.15865383E+04</totfact>
</mgrwt>
</event>
<event>
 6    1  0.1274196E-001  0.3000000E+03  0.7818608E-02  0.1093470E+00
         21   -1    0    0  501  502  0.00000000000E+00  0.00000000000E+00  0.13089766356E+01  0.13089766356E+01  0.00000000000E+00 0. -1.
         13   -1    0    0    0    0 -0.00000000000E+00 -0.00000000000E+00 -0.10000000000E+04  0.10000000000E+04  0.00000000000E+00 0.  1.
    9000005    2    1    2  501    0 -0.27909772737E+02  0.22847985110E+02 -0.52169630506E+03  0.52295247033E+03  0.33564370401E+01 0.  0.
         13    1    3    3    0    0 -0.91976401393E+01  0.96195751315E+01 -0.19118187964E+03  0.19164457705E+03  0.00000000000E+00 0.  1.
          1    1    3    3  501    0 -0.18712132597E+02  0.13228409979E+02 -0.33051442542E+03  0.33130789328E+03  0.00000000000E+00 0.  1.
         -1    1    1    2    0  502  0.27909772737E+02 -0.22847985110E+02 -0.47699471830E+03  0.47835650631E+03  0.00000000000E+00 0. -1.
<mgrwt>
<rscale>  1 0.30000000E+03</rscale>
<asrwt>0</asrwt>
<pdfrwt beam="1">  1       21 0.47599251E-02 0.30000000E+03</pdfrwt>
<pdfrwt beam="2">0</pdfrwt>
<totfact> 0.31322145E+04</totfact>
</mgrwt>
</event>
<event>
 6    1  0.1274196E-001  0.3000000E+03  0.7818608E-02  0.1093470E+00
         21   -1    0    0  501  502  0.00000000000E+00  0.00000000000E+00  0.19960406380E+01  0.19960406380E+01  0.00000000000E+00 0. -1.
         13   -1    0    0    0    0 -0.00000000000E+00 -0.00000000000E+00 -0.10000000000E+04  0.10000000000E+04  0.00000000000E+00 0.  1.
    9000005    2    1    2  501    0 -0.31250323544E+02 -0.36741522977E+01 -0.85439914698E+03  0.85498439397E+03  0.32139470795E+01 0.  0.
         13    1    3    3    0    0 -0.26958035603E+02 -0.23747381354E+01 -0.70978399865E+03  0.71029972533E+03  0.00000000000E+00 0.  1.
          1    1    3    3  501    0 -0.42922879410E+01 -0.12994141623E+01 -0.14461514833E+03  0.14468466864E+03  0.00000000000E+00 0.  1.
         -1    1    1    2    0  502  0.31250323544E+02  0.36741522977E+01 -0.14360481238E+03  0.14701164667E+03  0.00000000000E+00 0. -1.
<mgrwt>
<rscale>  1 0.30000000E+03</rscale>
<asrwt>0</asrwt>
<pdfrwt beam="1">  1       21 0.72583449E-02 0.30000000E+03</pdfrwt>
<pdfrwt beam="2">0</pdfrwt>
<totfact> 0.15147551E+04</totfact>
</mgrwt>
</event>
<event>
 6    1  0.1274196E-001  0.3000000E+03  0.7818608E-02  0.1093470E+00
         21   -1    0    0  501  502  0.00000000000E+00  0.00000000000E+00  0.12238014657E+01  0.12238014657E+01  0.00000000000E+00 0. -1.
         13   -1    0    0    0    0 -0.00000000000E+00 -0.00000000000E+00 -0.10000000000E+04  0.10000000000E+04  0.00000000000E+00 0.  1.
    9000005    2    1    2  501    0 -0.33770915735E+02  0.68184083304E+01 -0.57986654606E+03  0.58089980456E+03  0.35222510251E+01 0.  0.
         13    1    3    3    0    0 -0.27177742325E+02  0.46203062837E+01 -0.48091927246E+03  0.48170875384E+03  0.00000000000E+00 0.  1.
          1    1    3    3  501    0 -0.65931734101E+01  0.21981020467E+01 -0.98947273603E+02  0.99191050714E+02  0.00000000000E+00 0.  1.
         -3    1    1    2    0  502  0.33770915735E+02 -0.68184083304E+01 -0.41890965247E+03  0.42032399691E+03  0.00000000000E+00 0. -1.
<mgrwt>
<rscale>  1 0.30000000E+03</rscale>
<asrwt>0</asrwt>
<pdfrwt beam="1">  1       21 0.44501965E-02 0.30000000E+03</pdfrwt>
<pdfrwt beam="2">0</pdfrwt>
<totfact> 0.35114825E+04</totfact>
</mgrwt>
</event>
<event>
 6    1  0.1274196E-001  0.3000000E+03  0.7818608E-02  0.1093470E+00
         21   -1    0    0  501  502  0.00000000000E+00  0.00000000000E+00  0.89557585026E+01  0.89557585026E+01  0.00000000000E+00 0. -1.
         13   -1    0    0    0    0 -0.00000000000E+00 -0.00000000000E+00 -0.10000000000E+04  0.10000000000E+04  0.00000000000E+00 0.  1.
    9000005    2    1    2  501    0 -0.79711565378E+02 -0.26419562897E+02 -0.72795961498E+03  0.73279376316E+03  0.30937573535E+01 0.  0.
         13    1    3    3    0    0 -0.59821798845E+02 -0.18728139787E+02 -0.53565651734E+03  0.53931187212E+03  0.00000000000E+00 0.  1.
          3    1    3    3  501    0 -0.19889766533E+02 -0.76914231092E+01 -0.19230309763E+03  0.19348189104E+03  0.00000000000E+00 0.  1.
         -3    1    1    2    0  502  0.79711565378E+02  0.26419562897E+02 -0.26308462652E+03  0.27616199534E+03  0.00000000000E+00 0. -1.
<mgrwt>
<rscale>  1 0.30000000E+03</rscale>
<asrwt>0</asrwt>
<pdfrwt beam="1">  1       21 0.32566463E-01 0.30000000E+03</pdfrwt>
<pdfrwt beam="2">0</pdfrwt>
<totfact> 0.92163617E+02</totfact>
</mgrwt>
</event>
<event>
 6    1  0.1274196E-001  0.3000000E+03  0.7818608E-02  0.1093470E+00
         21   -1    0    0  501  502  0.00000000000E+00  0.00000000000E+00  0.18162553366E+01  0.18162553366E+01  0.00000000000E+00 0. -1.
         13   -1    0    0    0    0 -0.00000000000E+00 -0.00000000000E+00 -0.10000000000E+04  0.10000000000E+04  0.00000000000E+00 0.  1.
    9000005    2    1    2  501    0 -0.12118711234E+02 -0.34179684571E+02 -0.23762364747E+03  0.24039207957E+03  0.28705545810E+01 0.  0.
         13    1    3    3    0    0 -0.53881176259E+01 -0.12087867385E+02 -0.80636056490E+02  0.81714882095E+02  0.00000000000E+00 0.  1.
          1    1    3    3  501    0 -0.67305936084E+01 -0.22091817185E+02 -0.15698759098E+03  0.15867719747E+03  0.00000000000E+00 0.  1.
         -3    1    1    2    0  502  0.12118711234E+02  0.34179684571E+02 -0.76056009719E+03  0.76142417577E+03  0.00000000000E+00 0. -1.
<mgrwt>
<rscale>  1 0.30000000E+03</rscale>
<asrwt>0</asrwt>
<pdfrwt beam="1">  1       21 0.66045788E-02 0.30000000E+03</pdfrwt>
<pdfrwt beam="2">0</pdfrwt>
<totfact> 0.17849652E+04</totfact>
</mgrwt>
</event>
<event>
 6    1  0.1274196E-001  0.3000000E+03  0.7818608E-02  0.1093470E+00
         21   -1    0    0  501  502  0.00000000000E+00  0.00000000000E+00  0.10761782577E+02  0.10761782577E+02  0.00000000000E+00 0. -1.
         13   -1    0    0    0    0 -0.00000000000E+00 -0.00000000000E+00 -0.10000000000E+04  0.10000000000E+04  0.00000000000E+00 0.  1.
    9000005    2    1    2  501    0  0.60684389632E+02 -0.35300963902E+02 -0.86663177482E+03  0.86947805044E+03  0.35628469302E+01 0.  0.
         13    1    3    3    0    0  0.49073172266E+02 -0.29456874782E+02 -0.69167712155E+03  0.69404115453E+03  0.00000000000E+00 0.  1.
          1    1    3    3  501    0  0.11611217367E+02 -0.58440891207E+01 -0.17495465327E+03  0.17543689591E+03  0.00000000000E+00 0.  1.
         -3    1    1    2    0  502 -0.60684389632E+02  0.35300963902E+02 -0.12260644260E+03  0.14128373213E+03  0.00000000000E+00 0. -1.
<mgrwt>
<rscale>  1 0.30000000E+03</rscale>
<asrwt>0</asrwt>
<pdfrwt beam="1">  1       21 0.39133837E-01 0.30000000E+03</pdfrwt>
<pdfrwt beam="2">0</pdfrwt>
<totfact> 0.63220817E+02</totfact>
</mgrwt>
</event>
<event>
 6    1  0.1274196E-001  0.3000000E+03  0.7818608E-02  0.1093470E+00
         21   -1    0    0  501  502  0.00000000000E+00  0.00000000000E+00  0.27507931485E+02  0.27507931485E+02  0.00000000000E+00 0. -1.
         13   -1    0    0    0    0 -0.00000000000E+00 -0.00000000000E+00 -0.10000000000E+04  0.10000000000E+04  0.00000000000E+00 0.  1.
    9000005    2    1    2  501    0 -0.95630774954E+02 -0.43948262010E+02 -0.88327291501E+03  0.88953419412E+03  0.48316924964E+01 0.  0.
         13    1    3    3    0    0 -0.39661936199E+02 -0.20319927073E+02 -0.38598931859E+03  0.38855337174E+03  0.00000000000E+00 0.  1.
          1    1    3    3  501    0 -0.55968838755E+02 -0.23628334937E+02 -0.49728359642E+03  0.50098082238E+03  0.00000000000E+00 0.  1.
         -1    1    1    2    0  502  0.95630774954E+02  0.43948262010E+02 -0.89219153501E+02  0.13797373737E+03  0.00000000000E+00 0. -1.
<mgrwt>
<rscale>  1 0.30000000E+03</rscale>
<asrwt>0</asrwt>
<pdfrwt beam="1">  1       21 0.10002905E+00 0.30000000E+03</pdfrwt>
<pdfrwt beam="2">0</pdfrwt>
<totfact> 0.73644483E+01</totfact>
</mgrwt>
</event>
<event>
 6    1  0.1274196E-001  0.3000000E+03  0.7818608E-02  0.1093470E+00
         21   -1    0    0  501  502  0.00000000000E+00  0.00000000000E+00  0.10590040772E+01  0.10590040772E+01  0.00000000000E+00 0. -1.
         13   -1    0    0    0    0 -0.00000000000E+00 -0.00000000000E+00 -0.10000000000E+04  0.10000000000E+04  0.00000000000E+00 0.  1.
    9000005    2    1    2  501    0 -0.12975536273E+02 -0.29724517053E+02 -0.48012096471E+03  0.48122620765E+03  0.32574096517E+01 0.  0.
         13    1    3    3    0    0 -0.76815655720E+01 -0.15821983146E+02 -0.28149673649E+03  0.28204565987E+03  0.00000000000E+00 0.  1.
          3    1    3    3  501    0 -0.52939707013E+01 -0.13902533907E+02 -0.19862422822E+03  0.19918054778E+03  0.00000000000E+00 0.  1.
         -3    1    1    2    0  502  0.12975536273E+02  0.29724517053E+02 -0.51882003121E+03  0.51983279643E+03  0.00000000000E+00 0. -1.
<mgrwt>
<rscale>  1 0.30000000E+03</rscale>
<asrwt>0</asrwt>
<pdfrwt beam="1">  1       21 0.38509320E-02 0.30000000E+03</pdfrwt>
<pdfrwt beam="2">0</pdfrwt>
<totfact> 0.44821856E+04</totfact>
</mgrwt>
</event>
<event>
 6    1  0.1274196E-001  0.3000000E+03  0.7818608E-02  0.1093470E+00
         21   -1    0    0  501  502  0.00000000000E+00  0.00000000000E+00  0.13323077518E+01  0.13323077518E+01  0.00000000000E+00 0. -1.
         13   -1    0    0    0    0 -0.00000000000E+00 -0.00000000000E+00 -0.10000000000E+04  0.10000000000E+04  0.00000000000E+00 0.  1.
    9000005    2    1    2  501    0 -0.25058513128E+02  0.21296707256E+02 -0.71538787734E+03  0.71615002858E+03  0.30934717843E+01 0.  0.
         13    1    3    3    0    0 -0.49387895329E+01  0.39351981914E+01 -0.16536309010E+03  0.16548362153E+03  0.00000000000E+00 0.  1.
          1    1    3    3  501    0 -0.20119723595E+02  0.17361509065E+02 -0.55002478724E+03  0.55066640705E+03  0.00000000000E+00 0.  1.
         -3    1    1    2    0  502  0.25058513128E+02 -0.21296707256E+02 -0.28327981491E+03  0.28518227918E+03  0.00000000000E+00 0. -1.
<mgrwt>
<rscale>  1 0.30000000E+03</rscale>
<asrwt>0</asrwt>
<pdfrwt beam="1">  1       21 0.48447657E-02 0.30000000E+03</pdfrwt>
<pdfrwt beam="2">0</pdfrwt>
<totfact> 0.30394527E+04</totfact>
</mgrwt>
</event>
<event>
 6    1  0.1274196E-001  0.3000000E+03  0.7818608E-02  0.1093470E+00
         21   -1    0    0  501  502  0.00000000000E+00  0.00000000000E+00  0.16766410835E+01  0.16766410835E+01  0.00000000000E+00 0. -1.
         13   -1    0    0    0    0 -0.00000000000E+00 -0.00000000000E+00 -0.10000000000E+04  0.10000000000E+04  0.00000000000E+00 0.  1.
    9000005    2    1    2  501    0 -0.33340063202E+02 -0.23412726191E+02 -0.54229007850E+03  0.54382724618E+03  0.31351062217E+01 0.  0.
         13    1    3    3    0    0 -0.17781703919E+02 -0.11142955719E+02 -0.26404646914E+03  0.26487901450E+03  0.00000000000E+00 0.  1.
          3    1    3    3  501    0 -0.15558359283E+02 -0.12269770472E+02 -0.27824360936E+03  0.27894823169E+03  0.00000000000E+00 0.  1.
         -1    1    1    2    0  502  0.33340063202E+02  0.23412726191E+02 -0.45603328042E+03  0.45784939490E+03  0.00000000000E+00 0. -1.
<mgrwt>
<rscale>  1 0.30000000E+03</rscale>
<asrwt>0</asrwt>
<pdfrwt beam="1">  1       21 0.60968895E-02 0.30000000E+03</pdfrwt>
<pdfrwt beam="2">0</pdfrwt>
<totfact> 0.20497292E+04</totfact>
</mgrwt>
</event>
<event>
 6    1  0.1274196E-001  0.3000000E+03  0.7818608E-02  0.1093470E+00
         21   -1    0    0  501  502  0.00000000000E+00  0.00000000000E+00  0.18398551637E+01  0.18398551637E+01  0.00000000000E+00 0. -1.
         13   -1    0    0    0    0 -0.00000000000E+00 -0.00000000000E+00 -0.10000000000E+04  0.10000000000E+04  0.00000000000E+00 0.  1.
    9000005    2    1    2  501    0  0.40798779012E+02  0.10563399196E+02 -0.41094770298E+03  0.41311701916E+03  0.33957556752E+01 0.  0.
         13    1    3    3    0    0  0.37945632950E+02  0.89618701094E+01 -0.37564106538E+03  0.37765910048E+03  0.00000000000E+00 0.  1.
          3    1    3    3  501    0  0.28531460624E+01  0.16015290870E+01 -0.35306637605E+02  0.35457918676E+02  0.00000000000E+00 0.  1.
         -1    1    1    2    0  502 -0.40798779012E+02 -0.10563399196E+02 -0.58721244185E+03  0.58872283601E+03  0.00000000000E+00 0. -1.
<mgrwt>
<rscale>  1 0.30000000E+03</rscale>
<asrwt>0</asrwt>
<pdfrwt beam="1">  1       21 0.66903965E-02 0.30000000E+03</pdfrwt>
<pdfrwt beam="2">0</pdfrwt>
<totfact> 0.17454555E+04</totfact>
</mgrwt>
</event>
<event>
 6    1  0.1274196E-001  0.3000000E+03  0.7818608E-02  0.1093470E+00
         21   -1    0    0  501  502  0.00000000000E+00  0.00000000000E+00  0.35615033993E+01  0.35615033993E+01  0.00000000000E+00 0. -1.
         13   -1    0    0    0    0 -0.00000000000E+00 -0.00000000000E+00 -0.10000000000E+04  0.10000000000E+04  0.00000000000E+00 0.  1.
    9000005    2    1    2  501    0 -0.43890444326E+02  0.32589101715E+02 -0.69887248179E+03  0.70101571542E+03  0.34448234800E+01 0.  0.
         13    1    3    3    0    0 -0.58903735404E+01  0.38473034683E+01 -0.10457188859E+03  0.10480829227E+03  0.00000000000E+00 0.  1.
          1    1    3    3  501    0 -0.38000070786E+02  0.28741798246E+02 -0.59430059320E+03  0.59620742315E+03  0.00000000000E+00 0.  1.
         -3    1    1    2    0  502  0.43890444326E+02 -0.32589101715E+02 -0.29756601481E+03  0.30254578798E+03  0.00000000000E+00 0. -1.
<mgrwt>
<rscale>  1 0.30000000E+03</rscale>
<asrwt>0</asrwt>
<pdfrwt beam="1">  1       21 0.12950949E-01 0.30000000E+03</pdfrwt>
<pdfrwt beam="2">0</pdfrwt>
<totfact> 0.53936254E+03</totfact>
</mgrwt>
</event>
<event>
 6    1  0.1274196E-001  0.3000000E+03  0.7818608E-02  0.1093470E+00
         21   -1    0    0  501  502  0.00000000000E+00  0.00000000000E+00  0.19457579157E+01  0.19457579157E+01  0.00000000000E+00 0. -1.
         13   -1    0    0    0    0 -0.00000000000E+00 -0.00000000000E+00 -0.10000000000E+04  0.10000000000E+04  0.00000000000E+00 0.  1.
    9000005    2    1    2  501    0 -0.29070390957E+02 -0.15138687650E+02 -0.83382037092E+03  0.83447327680E+03  0.38692679393E+01 0.  0.
         13    1    3    3    0    0 -0.28558388699E+02 -0.14348392378E+02 -0.79635758770E+03  0.79699866086E+03  0.00000000000E+00 0.  1.
          1    1    3    3  501    0 -0.51200225874E+00 -0.79029527126E+00 -0.37462783220E+02  0.37474615936E+02  0.00000000000E+00 0.  1.
         -3    1    1    2    0  502  0.29070390957E+02  0.15138687650E+02 -0.16423387117E+03  0.16747248112E+03  0.00000000000E+00 0. -1.
<mgrwt>
<rscale>  1 0.30000000E+03</rscale>
<asrwt>0</asrwt>
<pdfrwt beam="1">  1       21 0.70754983E-02 0.30000000E+03</pdfrwt>
<pdfrwt beam="2">0</pdfrwt>
<totfact> 0.15836709E+04</totfact>
</mgrwt>
</event>
<event>
 6    1  0.1274196E-001  0.3000000E+03  0.7818608E-02  0.1093470E+00
         21   -1    0    0  501  502  0.00000000000E+00  0.00000000000E+00  0.16303442292E+01  0.16303442292E+01  0.00000000000E+00 0. -1.
         13   -1    0    0    0    0 -0.00000000000E+00 -0.00000000000E+00 -0.10000000000E+04  0.10000000000E+04  0.00000000000E+00 0.  1.
    9000005    2    1    2  501    0  0.23430061053E+02 -0.20529069515E+02 -0.81363819000E+03  0.81429074644E+03  0.95867119388E+01 0.  0.
         13    1    3    3    0    0  0.45922281039E+01 -0.10001426644E+02 -0.26638870102E+03  0.26661593562E+03  0.00000000000E+00 0.  1.
          3    1    3    3  501    0  0.18837832950E+02 -0.10527642870E+02 -0.54724948898E+03  0.54767481082E+03  0.00000000000E+00 0.  1.
         -1    1    1    2    0  502 -0.23430061053E+02  0.20529069515E+02 -0.18473146577E+03  0.18733959779E+03  0.00000000000E+00 0. -1.
<mgrwt>
<rscale>  1 0.30000000E+03</rscale>
<asrwt>0</asrwt>
<pdfrwt beam="1">  1       21 0.59285370E-02 0.30000000E+03</pdfrwt>
<pdfrwt beam="2">0</pdfrwt>
<totfact> 0.21511531E+04</totfact>
</mgrwt>
</event>
<event>
 6    1  0.1274196E-001  0.3000000E+03  0.7818608E-02  0.1093470E+00
         21   -1    0    0  501  502  0.00000000000E+00  0.00000000000E+00  0.28895617563E+01  0.28895617563E+01  0.00000000000E+00 0. -1.
         13   -1    0    0    0    0 -0.00000000000E+00 -0.00000000000E+00 -0.10000000000E+04  0.10000000000E+04  0.00000000000E+00 0.  1.
    9000005    2    1    2  501    0 -0.28216516798E+02 -0.45292496610E+02 -0.55569709239E+03  0.55826238763E+03  0.31706289100E+01 0.  0.
         13    1    3    3    0    0 -0.31864135236E+01 -0.69958835349E+01 -0.74898342012E+02  0.75291813989E+02  0.00000000000E+00 0.  1.
          3    1    3    3  501    0 -0.25030103275E+02 -0.38296613075E+02 -0.48079875038E+03  0.48297057364E+03  0.00000000000E+00 0.  1.
         -1    1    1    2    0  502  0.28216516798E+02  0.45292496610E+02 -0.44141334585E+03  0.44462717412E+03  0.00000000000E+00 0. -1.
<mgrwt>
<rscale>  1 0.30000000E+03</rscale>
<asrwt>0</asrwt>
<pdfrwt beam="1">  1       21 0.10507519E-01 0.30000000E+03</pdfrwt>
<pdfrwt beam="2">0</pdfrwt>
<totfact> 0.78737579E+03</totfact>
</mgrwt>
</event>
<event>
 6    1  0.1274196E-001  0.3000000E+03  0.7818608E-02  0.1093470E+00
         21   -1    0    0  501  502  0.00000000000E+00  0.00000000000E+00  0.21425778664E+01  0.21425778664E+01  0.00000000000E+00 0. -1.
         13   -1    0    0    0    0 -0.00000000000E+00 -0.00000000000E+00 -0.10000000000E+04  0.10000000000E+04  0.00000000000E+00 0.  1.
    9000005    2    1    2  501    0  0.53139807897E+01  0.38744889375E+02 -0.23219063734E+03  0.23547770311E+03  0.28020975140E+01 0.  0.
         13    1    3    3    0    0  0.55746209744E+01  0.37370268000E+02 -0.22532814465E+03  0.22847403814E+03  0.00000000000E+00 0.  1.
          1    1    3    3  501    0 -0.26064018465E+00  0.13746213749E+01 -0.68624926876E+01  0.70036649775E+01  0.00000000000E+00 0.  1.
         -3    1    1    2    0  502 -0.53139807897E+01 -0.38744889375E+02 -0.76566678479E+03  0.76666487475E+03  0.00000000000E+00 0. -1.
<mgrwt>
<rscale>  1 0.30000000E+03</rscale>
<asrwt>0</asrwt>
<pdfrwt beam="1">  1       21 0.77912087E-02 0.30000000E+03</pdfrwt>
<pdfrwt beam="2">0</pdfrwt>
<totfact> 0.13380769E+04</totfact>
</mgrwt>
</event>
<event>
 6    1  0.1274196E-001  0.3000000E+03  0.7818608E-02  0.1093470E+00
         21   -1    0    0  501  502  0.00000000000E+00  0.00000000000E+00  0.97004152156E+00  0.97004152156E+00  0.00000000000E+00 0. -1.
         13   -1    0    0    0    0 -0.00000000000E+00 -0.00000000000E+00 -0.10000000000E+04  0.10000000000E+04  0.00000000000E+00 0.  1.
    9000005    2    1    2  501    0 -0.15556987197E+02  0.26246139706E+02 -0.41161140348E+03  0.41275967230E+03  0.39648334789E+01 0.  0.
         13    1    3    3    0    0 -0.12404396497E+01  0.47481031558E+01 -0.59255083368E+02  0.59457952194E+02  0.00000000000E+00 0.  1.
          1    1    3    3  501    0 -0.14316547547E+02  0.21498036551E+02 -0.35235632011E+03  0.35330172010E+03  0.00000000000E+00 0.  1.
         -3    1    1    2    0  502  0.15556987197E+02 -0.26246139706E+02 -0.58741855500E+03  0.58821036922E+03  0.00000000000E+00 0. -1.
<mgrwt>
<rscale>  1 0.30000000E+03</rscale>
<asrwt>0</asrwt>
<pdfrwt beam="1">  1       21 0.35274312E-02 0.30000000E+03</pdfrwt>
<pdfrwt beam="2">0</pdfrwt>
<totfact> 0.51933259E+04</totfact>
</mgrwt>
</event>
<event>
 6    1  0.1274196E-001  0.3000000E+03  0.7818608E-02  0.1093470E+00
         21   -1    0    0  501  502  0.00000000000E+00  0.00000000000E+00  0.23060577065E+01  0.23060577065E+01  0.00000000000E+00 0. -1.
         13   -1    0    0    0    0 -0.00000000000E+00 -0.00000000000E+00 -0.10000000000E+04  0.10000000000E+04  0.00000000000E+00 0.  1.
    9000005    2    1    2  501    0 -0.15259737487E+02 -0.42533308473E+02 -0.66668369997E+03  0.66822564457E+03  0.40514612831E+01 0.  0.
         13    1    3    3    0    0 -0.12922023369E+02 -0.34153768314E+02 -0.51537203991E+03  0.51666410568E+03  0.00000000000E+00 0.  1.
          1    1    3    3  501    0 -0.23377141179E+01 -0.83795401587E+01 -0.15131166006E+03  0.15156153889E+03  0.00000000000E+00 0.  1.
         -3    1    1    2    0  502  0.15259737487E+02  0.42533308473E+02 -0.33101024233E+03  0.33408041314E+03  0.00000000000E+00 0. -1.
<mgrwt>
<rscale>  1 0.30000000E+03</rscale>
<asrwt>0</asrwt>
<pdfrwt beam="1">  1       21 0.83856821E-02 0.30000000E+03</pdfrwt>
<pdfrwt beam="2">0</pdfrwt>
<totfact> 0.11758560E+04</totfact>
</mgrwt>
</event>
<event>
 6    1  0.1274196E-001  0.3000000E+03  0.7818608E-02  0.1093470E+00
         21   -1    0    0  501  502  0.00000000000E+00  0.00000000000E+00  0.28637985498E+01  0.28637985498E+01  0.00000000000E+00 0. -1.
         13   -1    0    0    0    0 -0.00000000000E+00 -0.00000000000E+00 -0.10000000000E+04  0.10000000000E+04  0.00000000000E+00 0.  1.
    9000005    2    1    2  501    0 -0.10005480980E+02  0.52358680445E+02 -0.46076800131E+03  0.46385323540E+03  0.33364487795E+01 0.  0.
         13    1    3    3    0    0 -0.77005280683E+01  0.45866010017E+02 -0.39782965666E+03  0.40053891787E+03  0.00000000000E+00 0.  1.
          1    1    3    3  501    0 -0.23049529119E+01  0.64926704275E+01 -0.62938344648E+02  0.63314317530E+02  0.00000000000E+00 0.  1.
         -3    1    1    2    0  502  0.10005480980E+02 -0.52358680445E+02 -0.53636820014E+03  0.53901056315E+03  0.00000000000E+00 0. -1.
<mgrwt>
<rscale>  1 0.30000000E+03</rscale>
<asrwt>0</asrwt>
<pdfrwt beam="1">  1       21 0.10413835E-01 0.30000000E+03</pdfrwt>
<pdfrwt beam="2">0</pdfrwt>
<totfact> 0.80011496E+03</totfact>
</mgrwt>
</event>
<event>
 6    1  0.1274196E-001  0.3000000E+03  0.7818608E-02  0.1093470E+00
         21   -1    0    0  501  502  0.00000000000E+00  0.00000000000E+00  0.44189945705E+01  0.44189945705E+01  0.00000000000E+00 0. -1.
         13   -1    0    0    0    0 -0.00000000000E+00 -0.00000000000E+00 -0.10000000000E+04  0.10000000000E+04  0.00000000000E+00 0.  1.
    9000005    2    1    2  501    0  0.42826509050E+02 -0.50673940770E+02 -0.47309397606E+03  0.47773630641E+03  0.34799605711E+01 0.  0.
         13    1    3    3    0    0  0.93074287963E+01 -0.96210873918E+01 -0.10331200069E+03  0.10417563554E+03  0.00000000000E+00 0.  1.
          3    1    3    3  501    0  0.33519080254E+02 -0.41052853378E+02 -0.36978197537E+03  0.37356067087E+03  0.00000000000E+00 0.  1.
         -1    1    1    2    0  502 -0.42826509050E+02  0.50673940770E+02 -0.52248702937E+03  0.52668268816E+03  0.00000000000E+00 0. -1.
<mgrwt>
<rscale>  1 0.30000000E+03</rscale>
<asrwt>0</asrwt>
<pdfrwt beam="1">  1       21 0.16069105E-01 0.30000000E+03</pdfrwt>
<pdfrwt beam="2">0</pdfrwt>
<totfact> 0.36234355E+03</totfact>
</mgrwt>
</event>
<event>
 6    1  0.1274196E-001  0.3000000E+03  0.7818608E-02  0.1093470E+00
         21   -1    0    0  501  502  0.00000000000E+00  0.00000000000E+00  0.86222842641E+01  0.86222842641E+01  0.00000000000E+00 0. -1.
         13   -1    0    0    0    0 -0.00000000000E+00 -0.00000000000E+00 -0.10000000000E+04  0.10000000000E+04  0.00000000000E+00 0.  1.
    9000005    2    1    2  501    0 -0.30833387636E+02 -0.23558555556E+02 -0.95383745426E+03  0.95463177987E+03  0.32004151699E+01 0.  0.
         13    1    3    3    0    0 -0.23018546842E+02 -0.17137040360E+02 -0.73715638616E+03  0.73771476148E+03  0.00000000000E+00 0.  1.
          1    1    3    3  501    0 -0.78148407935E+01 -0.64215151964E+01 -0.21668106810E+03  0.21691701839E+03  0.00000000000E+00 0.  1.
         -3    1    1    2    0  502  0.30833387636E+02  0.23558555556E+02 -0.37540261478E+02  0.53990504395E+02  0.00000000000E+00 0. -1.
<mgrwt>
<rscale>  1 0.30000000E+03</rscale>
<asrwt>0</asrwt>
<pdfrwt beam="1">  1       21 0.31353827E-01 0.30000000E+03</pdfrwt>
<pdfrwt beam="2">0</pdfrwt>
<totfact> 0.99509603E+02</totfact>
</mgrwt>
</event>
<event>
 6    1  0.1274196E-001  0.3000000E+03  0.7818608E-02  0.1093470E+00
         21   -1    0    0  501  502  0.00000000000E+00  0.00000000000E+00  0.11112570813E+01  0.11112570813E+01  0.00000000000E+00 0. -1.
         13   -1    0    0    0    0 -0.00000000000E+00 -0.00000000000E+00 -0.10000000000E+04  0.10000000000E+04  0.00000000000E+00 0.  1.
    9000005    2    1    2  501    0  0.10732419250E+02 -0.31176186804E+02 -0.56641603933E+03  0.56738348671E+03  0.31228077568E+01 0.  0.
         13    1    3    3    0    0  0.96552104891E+01 -0.24150839462E+02 -0.44771927832E+03  0.44847412224E+03  0.00000000000E+00 0.  1.
          3    1    3    3  501    0  0.10772087605E+01 -0.70253473426E+01 -0.11869676101E+03  0.11890936447E+03  0.00000000000E+00 0.  1.
         -3    1    1    2    0  502 -0.10732419250E+02  0.31176186804E+02 -0.43247270359E+03  0.43372777037E+03  0.00000000000E+00 0. -1.
<mgrwt>
<rscale>  1 0.30000000E+03</rscale>
<asrwt>0</asrwt>
<pdfrwt beam="1">  1       21 0.40409434E-02 0.30000000E+03</pdfrwt>
<pdfrwt beam="2">0</pdfrwt>
<totfact> 0.41332181E+04</totfact>
</mgrwt>
</event>
<event>
 6    1  0.1274196E-001  0.3000000E+03  0.7818608E-02  0.1093470E+00
         21   -1    0    0  501  502  0.00000000000E+00  0.00000000000E+00  0.16506621174E+01  0.16506621174E+01  0.00000000000E+00 0. -1.
         13   -1    0    0    0    0 -0.00000000000E+00 -0.00000000000E+00 -0.10000000000E+04  0.10000000000E+04  0.00000000000E+00 0.  1.
    9000005    2    1    2  501    0 -0.13723846335E+02  0.37963947402E+02 -0.44985976452E+03  0.45167755610E+03  0.30334279726E+01 0.  0.
         13    1    3    3    0    0 -0.16634689755E+01  0.77995604604E+01 -0.83000350491E+02  0.83382602826E+02  0.00000000000E+00 0.  1.
          1    1    3    3  501    0 -0.12060377359E+02  0.30164386941E+02 -0.36685941403E+03  0.36829495327E+03  0.00000000000E+00 0.  1.
         -3    1    1    2    0  502  0.13723846335E+02 -0.37963947402E+02 -0.54848957336E+03  0.54997310602E+03  0.00000000000E+00 0. -1.
<mgrwt>
<rscale>  1 0.30000000E+03</rscale>
<asrwt>0</asrwt>
<pdfrwt beam="1">  1       21 0.60024204E-02 0.30000000E+03</pdfrwt>
<pdfrwt beam="2">0</pdfrwt>
<totfact> 0.21057013E+04</totfact>
</mgrwt>
</event>
<event>
 6    1  0.1274196E-001  0.3000000E+03  0.7818608E-02  0.1093470E+00
         21   -1    0    0  501  502  0.00000000000E+00  0.00000000000E+00  0.12074192340E+01  0.12074192340E+01  0.00000000000E+00 0. -1.
         13   -1    0    0    0    0 -0.00000000000E+00 -0.00000000000E+00 -0.10000000000E+04  0.10000000000E+04  0.00000000000E+00 0.  1.
    9000005    2    1    2  501    0 -0.30932527652E+02 -0.65804124641E+01 -0.70593631219E+03  0.70664856749E+03  0.24490764450E+01 0.  0.
         13    1    3    3    0    0 -0.28448758219E+01 -0.10326048504E+01 -0.55516530366E+02  0.55598963436E+02  0.00000000000E+00 0.  1.
          3    1    3    3  501    0 -0.28087651830E+02 -0.55478076136E+01 -0.65041978182E+03  0.65104960405E+03  0.00000000000E+00 0.  1.
         -1    1    1    2    0  502  0.30932527652E+02  0.65804124641E+01 -0.29285626858E+03  0.29455885175E+03  0.00000000000E+00 0. -1.
<mgrwt>
<rscale>  1 0.30000000E+03</rscale>
<asrwt>0</asrwt>
<pdfrwt beam="1">  1       21 0.43906247E-02 0.30000000E+03</pdfrwt>
<pdfrwt beam="2">0</pdfrwt>
<totfact> 0.35925971E+04</totfact>
</mgrwt>
</event>
<event>
 6    1  0.1274196E-001  0.3000000E+03  0.7818608E-02  0.1093470E+00
         21   -1    0    0  501  502  0.00000000000E+00  0.00000000000E+00  0.21906888352E+01  0.21906888352E+01  0.00000000000E+00 0. -1.
         13   -1    0    0    0    0 -0.00000000000E+00 -0.00000000000E+00 -0.10000000000E+04  0.10000000000E+04  0.00000000000E+00 0.  1.
    9000005    2    1    2  501    0 -0.38392527820E+02 -0.26179067228E+02 -0.55185232818E+03  0.55381923521E+03  0.39272658811E+01 0.  0.
         13    1    3    3    0    0 -0.22000613468E+02 -0.13624820221E+02 -0.28797668179E+03  0.28913704704E+03  0.00000000000E+00 0.  1.
          1    1    3    3  501    0 -0.16391914352E+02 -0.12554247007E+02 -0.26387564639E+03  0.26468218817E+03  0.00000000000E+00 0.  1.
         -1    1    1    2    0  502  0.38392527820E+02  0.26179067228E+02 -0.44595698299E+03  0.44837145363E+03  0.00000000000E+00 0. -1.
<mgrwt>
<rscale>  1 0.30000000E+03</rscale>
<asrwt>0</asrwt>
<pdfrwt beam="1">  1       21 0.79661580E-02 0.30000000E+03</pdfrwt>
<pdfrwt beam="2">0</pdfrwt>
<totfact> 0.12869327E+04</totfact>
</mgrwt>
</event>
<event>
 6    1  0.1274196E-001  0.3000000E+03  0.7818608E-02  0.1093470E+00
         21   -1    0    0  501  502  0.00000000000E+00  0.00000000000E+00  0.14211639603E+01  0.14211639603E+01  0.00000000000E+00 0. -1.
         13   -1    0    0    0    0 -0.00000000000E+00 -0.00000000000E+00 -0.10000000000E+04  0.10000000000E+04  0.00000000000E+00 0.  1.
    9000005    2    1    2  501    0 -0.20614425937E+02 -0.24659661810E+02 -0.75854190768E+03  0.75924193188E+03  0.54251205050E+01 0.  0.
         13    1    3    3    0    0 -0.15403903915E+02 -0.19040541561E+02 -0.51910422369E+03  0.51968165017E+03  0.00000000000E+00 0.  1.
          3    1    3    3  501    0 -0.52105220214E+01 -0.56191202492E+01 -0.23943768400E+03  0.23956028170E+03  0.00000000000E+00 0.  1.
         -3    1    1    2    0  502  0.20614425937E+02  0.24659661810E+02 -0.24003692836E+03  0.24217923208E+03  0.00000000000E+00 0. -1.
<mgrwt>
<rscale>  1 0.30000000E+03</rscale>
<asrwt>0</asrwt>
<pdfrwt beam="1">  1       21 0.51678798E-02 0.30000000E+03</pdfrwt>
<pdfrwt beam="2">0</pdfrwt>
<totfact> 0.27226505E+04</totfact>
</mgrwt>
</event>
<event>
 6    1  0.1274196E-001  0.3000000E+03  0.7818608E-02  0.1093470E+00
         21   -1    0    0  501  502  0.00000000000E+00  0.00000000000E+00  0.23791291035E+01  0.23791291035E+01  0.00000000000E+00 0. -1.
         13   -1    0    0    0    0 -0.00000000000E+00 -0.00000000000E+00 -0.10000000000E+04  0.10000000000E+04  0.00000000000E+00 0.  1.
    9000005    2    1    2  501    0  0.29721655611E+02  0.64564121134E+01 -0.89044103751E+03  0.89096737589E+03  0.35442271555E+01 0.  0.
         13    1    3    3    0    0  0.14656498993E+02  0.47537740790E+01 -0.47461161109E+03  0.47486165640E+03  0.00000000000E+00 0.  1.
          3    1    3    3  501    0  0.15065156619E+02  0.17026380344E+01 -0.41582942642E+03  0.41610571949E+03  0.00000000000E+00 0.  1.
         -1    1    1    2    0  502 -0.29721655611E+02 -0.64564121134E+01 -0.10717983338E+03  0.11141175321E+03  0.00000000000E+00 0. -1.
<mgrwt>
<rscale>  1 0.30000000E+03</rscale>
<asrwt>0</asrwt>
<pdfrwt beam="1">  1       21 0.86513968E-02 0.30000000E+03</pdfrwt>
<pdfrwt beam="2">0</pdfrwt>
<totfact> 0.11129108E+04</totfact>
</mgrwt>
</event>
<event>
 6    1  0.1274196E-001  0.3000000E+03  0.7818608E-02  0.1093470E+00
         21   -1    0    0  501  502  0.00000000000E+00  0.00000000000E+00  0.17086117029E+01  0.17086117029E+01  0.00000000000E+00 0. -1.
         13   -1    0    0    0    0 -0.00000000000E+00 -0.00000000000E+00 -0.10000000000E+04  0.10000000000E+04  0.00000000000E+00 0.  1.
    9000005    2    1    2  501    0  0.33200323095E+02  0.17490577563E+02 -0.70811946018E+03  0.70912028381E+03  0.31976953435E+01 0.  0.
         13    1    3    3    0    0  0.26438443164E+02  0.15313764171E+02 -0.57003438306E+03  0.57085260841E+03  0.00000000000E+00 0.  1.
          1    1    3    3  501    0  0.67618799315E+01  0.21768133917E+01 -0.13808507712E+03  0.13826767540E+03  0.00000000000E+00 0.  1.
         -3    1    1    2    0  502 -0.33200323095E+02 -0.17490577563E+02 -0.29017192811E+03  0.29258832790E+03  0.00000000000E+00 0. -1.
<mgrwt>
<rscale>  1 0.30000000E+03</rscale>
<asrwt>0</asrwt>
<pdfrwt beam="1">  1       21 0.62131466E-02 0.30000000E+03</pdfrwt>
<pdfrwt beam="2">0</pdfrwt>
<totfact> 0.19839626E+04</totfact>
</mgrwt>
</event>
<event>
 6    1  0.1274196E-001  0.3000000E+03  0.7818608E-02  0.1093470E+00
         21   -1    0    0  501  502  0.00000000000E+00  0.00000000000E+00  0.17766637177E+01  0.17766637177E+01  0.00000000000E+00 0. -1.
         13   -1    0    0    0    0 -0.00000000000E+00 -0.00000000000E+00 -0.10000000000E+04  0.10000000000E+04  0.00000000000E+00 0.  1.
    9000005    2    1    2  501    0  0.39463740175E+02  0.99843036871E+01 -0.62564386424E+03  0.62698000405E+03  0.40752315355E+01 0.  0.
         13    1    3    3    0    0  0.21014269537E+02  0.32793932584E+01 -0.33292739180E+03  0.33360605833E+03  0.00000000000E+00 0.  1.
          1    1    3    3  501    0  0.18449470638E+02  0.67049104288E+01 -0.29271647243E+03  0.29337394572E+03  0.00000000000E+00 0.  1.
         -3    1    1    2    0  502 -0.39463740175E+02 -0.99843036871E+01 -0.37257947205E+03  0.37479665967E+03  0.00000000000E+00 0. -1.
<mgrwt>
<rscale>  1 0.30000000E+03</rscale>
<asrwt>0</asrwt>
<pdfrwt beam="1">  1       21 0.64606090E-02 0.30000000E+03</pdfrwt>
<pdfrwt beam="2">0</pdfrwt>
<totfact> 0.18544154E+04</totfact>
</mgrwt>
</event>
<event>
 6    1  0.1274196E-001  0.3000000E+03  0.7818608E-02  0.1093470E+00
         21   -1    0    0  501  502  0.00000000000E+00  0.00000000000E+00  0.13930598452E+01  0.13930598452E+01  0.00000000000E+00 0. -1.
         13   -1    0    0    0    0 -0.00000000000E+00 -0.00000000000E+00 -0.10000000000E+04  0.10000000000E+04  0.00000000000E+00 0.  1.
    9000005    2    1    2  501    0 -0.13218003524E+02  0.33600873737E+02 -0.37849995145E+03  0.38023574340E+03  0.36432098609E+01 0.  0.
         13    1    3    3    0    0 -0.91298565012E+01  0.20807062597E+02 -0.22153282210E+03  0.22269503676E+03  0.00000000000E+00 0.  1.
          3    1    3    3  501    0 -0.40881470229E+01  0.12793811140E+02 -0.15696712935E+03  0.15754070664E+03  0.00000000000E+00 0.  1.
         -3    1    1    2    0  502  0.13218003524E+02 -0.33600873737E+02 -0.62010698870E+03  0.62115731645E+03  0.00000000000E+00 0. -1.
<mgrwt>
<rscale>  1 0.30000000E+03</rscale>
<asrwt>0</asrwt>
<pdfrwt beam="1">  1       21 0.50656828E-02 0.30000000E+03</pdfrwt>
<pdfrwt beam="2">0</pdfrwt>
<totfact> 0.28170668E+04</totfact>
</mgrwt>
</event>
<event>
 6    1  0.1274196E-001  0.3000000E+03  0.7818608E-02  0.1093470E+00
         21   -1    0    0  501  502  0.00000000000E+00  0.00000000000E+00  0.28196888858E+01  0.28196888858E+01  0.00000000000E+00 0. -1.
         13   -1    0    0    0    0 -0.00000000000E+00 -0.00000000000E+00 -0.10000000000E+04  0.10000000000E+04  0.00000000000E+00 0.  1.
    9000005    2    1    2  501    0 -0.26045322007E+02  0.27959235688E+02 -0.84655752142E+03  0.84742566572E+03  0.32471832478E+01 0.  0.
         13    1    3    3    0    0 -0.64095871222E+01  0.60781652912E+01 -0.22471652839E+03  0.22489007322E+03  0.00000000000E+00 0.  1.
          3    1    3    3  501    0 -0.19635734885E+02  0.21881070397E+02 -0.62184099303E+03  0.62253559251E+03  0.00000000000E+00 0.  1.
         -1    1    1    2    0  502  0.26045322007E+02 -0.27959235688E+02 -0.15062278970E+03  0.15539402316E+03  0.00000000000E+00 0. -1.
<mgrwt>
<rscale>  1 0.30000000E+03</rscale>
<asrwt>0</asrwt>
<pdfrwt beam="1">  1       21 0.10253436E-01 0.30000000E+03</pdfrwt>
<pdfrwt beam="2">0</pdfrwt>
<totfact> 0.82266512E+03</totfact>
</mgrwt>
</event>
<event>
 6    1  0.1274196E-001  0.3000000E+03  0.7818608E-02  0.1093470E+00
         21   -1    0    0  501  502  0.00000000000E+00  0.00000000000E+00  0.26574412114E+01  0.26574412114E+01  0.00000000000E+00 0. -1.
         13   -1    0    0    0    0 -0.00000000000E+00 -0.00000000000E+00 -0.10000000000E+04  0.10000000000E+04  0.00000000000E+00 0.  1.
    9000005    2    1    2  501    0  0.27616514768E+02  0.40878664117E+02 -0.64291221708E+03  0.64481026127E+03  0.32275534606E+01 0.  0.
         13    1    3    3    0    0  0.18909442822E+02  0.26021297414E+02 -0.40454190276E+03  0.40581871080E+03  0.00000000000E+00 0.  1.
          1    1    3    3  501    0  0.87070719456E+01  0.14857366703E+02 -0.23837031432E+03  0.23899155047E+03  0.00000000000E+00 0.  1.
         -1    1    1    2    0  502 -0.27616514768E+02 -0.40878664117E+02 -0.35443034171E+03  0.35784717994E+03  0.00000000000E+00 0. -1.
<mgrwt>
<rscale>  1 0.30000000E+03</rscale>
<asrwt>0</asrwt>
<pdfrwt beam="1">  1       21 0.96634430E-02 0.30000000E+03</pdfrwt>
<pdfrwt beam="2">0</pdfrwt>
<totfact> 0.91453627E+03</totfact>
</mgrwt>
</event>
<event>
 6    1  0.1274196E-001  0.3000000E+03  0.7818608E-02  0.1093470E+00
         21   -1    0    0  501  502  0.00000000000E+00  0.00000000000E+00  0.29222654553E+01  0.29222654553E+01  0.00000000000E+00 0. -1.
         13   -1    0    0    0    0 -0.00000000000E+00 -0.00000000000E+00 -0.10000000000E+04  0.10000000000E+04  0.00000000000E+00 0.  1.
    9000005    2    1    2  501    0  0.20951755503E+02 -0.36043665977E+02 -0.81744125534E+03  0.81851134773E+03  0.35353236403E+01 0.  0.
         13    1    3    3    0    0  0.81214313865E+01 -0.11378580575E+02 -0.29424735288E+03  0.29457924982E+03  0.00000000000E+00 0.  1.
          3    1    3    3  501    0  0.12830324116E+02 -0.24665085402E+02 -0.52319390246E+03  0.52393209791E+03  0.00000000000E+00 0.  1.
         -3    1    1    2    0  502 -0.20951755503E+02  0.36043665977E+02 -0.17963647921E+03  0.18441091773E+03  0.00000000000E+00 0. -1.
<mgrwt>
<rscale>  1 0.30000000E+03</rscale>
<asrwt>0</asrwt>
<pdfrwt beam="1">  1       21 0.10626442E-01 0.30000000E+03</pdfrwt>
<pdfrwt beam="2">0</pdfrwt>
<totfact> 0.77164318E+03</totfact>
</mgrwt>
</event>
<event>
 6    1  0.1274196E-001  0.3000000E+03  0.7818608E-02  0.1093470E+00
         21   -1    0    0  501  502  0.00000000000E+00  0.00000000000E+00  0.17650256766E+01  0.17650256766E+01  0.00000000000E+00 0. -1.
         13   -1    0    0    0    0 -0.00000000000E+00 -0.00000000000E+00 -0.10000000000E+04  0.10000000000E+04  0.00000000000E+00 0.  1.
    9000005    2    1    2  501    0  0.37889728764E+02 -0.17550715465E+02 -0.48453243186E+03  0.48636812881E+03  0.62145028448E+01 0.  0.
         13    1    3    3    0    0  0.10016835117E+02 -0.70395280051E+01 -0.12133255652E+03  0.12194868270E+03  0.00000000000E+00 0.  1.
          3    1    3    3  501    0  0.27872893648E+02 -0.10511187460E+02 -0.36319987534E+03  0.36441944612E+03  0.00000000000E+00 0.  1.
         -1    1    1    2    0  502 -0.37889728764E+02  0.17550715465E+02 -0.51370254247E+03  0.51539689686E+03  0.00000000000E+00 0. -1.
<mgrwt>
<rscale>  1 0.30000000E+03</rscale>
<asrwt>0</asrwt>
<pdfrwt beam="1">  1       21 0.64182887E-02 0.30000000E+03</pdfrwt>
<pdfrwt beam="2">0</pdfrwt>
<totfact> 0.18756255E+04</totfact>
</mgrwt>
</event>
<event>
 6    1  0.1274196E-001  0.3000000E+03  0.7818608E-02  0.1093470E+00
         21   -1    0    0  501  502  0.00000000000E+00  0.00000000000E+00  0.16455807846E+01  0.16455807846E+01  0.00000000000E+00 0. -1.
         13   -1    0    0    0    0 -0.00000000000E+00 -0.00000000000E+00 -0.10000000000E+04  0.10000000000E+04  0.00000000000E+00 0.  1.
    9000005    2    1    2  501    0  0.11493012135E+02  0.33791094275E+02 -0.73642962518E+03  0.73730011532E+03  0.29899549628E+01 0.  0.
         13    1    3    3    0    0  0.61644225499E+01  0.22512076171E+02 -0.47626263629E+03  0.47683423996E+03  0.00000000000E+00 0.  1.
          1    1    3    3  501    0  0.53285895848E+01  0.11279018104E+02 -0.26016698889E+03  0.26046587536E+03  0.00000000000E+00 0.  1.
         -1    1    1    2    0  502 -0.11493012135E+02 -0.33791094275E+02 -0.26192479404E+03  0.26434546546E+03  0.00000000000E+00 0. -1.
<mgrwt>
<rscale>  1 0.30000000E+03</rscale>
<asrwt>0</asrwt>
<pdfrwt beam="1">  1       21 0.59839427E-02 0.30000000E+03</pdfrwt>
<pdfrwt beam="2">0</pdfrwt>
<totfact> 0.21169272E+04</totfact>
</mgrwt>
</event>
<event>
 6    1  0.1274196E-001  0.3000000E+03  0.7818608E-02  0.1093470E+00
         21   -1    0    0  501  502  0.00000000000E+00  0.00000000000E+00  0.29021098905E+01  0.29021098905E+01  0.00000000000E+00 0. -1.
         13   -1    0    0    0    0 -0.00000000000E+00 -0.00000000000E+00 -0.10000000000E+04  0.10000000000E+04  0.00000000000E+00 0.  1.
    9000005    2    1    2  501    0  0.39521564753E+02  0.39449327148E+01 -0.83714183118E+03  0.83808870824E+03  0.29530995345E+01 0.  0.
         13    1    3    3    0    0  0.29887692015E+02  0.42106472136E+01 -0.62761813449E+03  0.62834347806E+03  0.00000000000E+00 0.  1.
          3    1    3    3  501    0  0.96338727375E+01 -0.26571449879E+00 -0.20952369669E+03  0.20974523018E+03  0.00000000000E+00 0.  1.
         -3    1    1    2    0  502 -0.39521564753E+02 -0.39449327148E+01 -0.15995605893E+03  0.16481340165E+03  0.00000000000E+00 0. -1.
<mgrwt>
<rscale>  1 0.30000000E+03</rscale>
<asrwt>0</asrwt>
<pdfrwt beam="1">  1       21 0.10553149E-01 0.30000000E+03</pdfrwt>
<pdfrwt beam="2">0</pdfrwt>
<totfact> 0.78128229E+03</totfact>
</mgrwt>
</event>
<event>
 6    1  0.1274196E-001  0.3000000E+03  0.7818608E-02  0.1093470E+00
         21   -1    0    0  501  502  0.00000000000E+00  0.00000000000E+00  0.10995559280E+01  0.10995559280E+01  0.00000000000E+00 0. -1.
         13   -1    0    0    0    0 -0.00000000000E+00 -0.00000000000E+00 -0.10000000000E+04  0.10000000000E+04  0.00000000000E+00 0.  1.
    9000005    2    1    2  501    0  0.30174417270E+02 -0.35541090464E+01 -0.69821985838E+03  0.69888780605E+03  0.31729589849E+01 0.  0.
         13    1    3    3    0    0  0.27449739321E+02 -0.32633690077E+01 -0.65317675424E+03  0.65376143205E+03  0.00000000000E+00 0.  1.
          1    1    3    3  501    0  0.27246779490E+01 -0.29074003869E+00 -0.45043104140E+02  0.45126373999E+02  0.00000000000E+00 0.  1.
         -3    1    1    2    0  502 -0.30174417270E+02  0.35541090464E+01 -0.30068058570E+03  0.30221174988E+03  0.00000000000E+00 0. -1.
<mgrwt>
<rscale>  1 0.30000000E+03</rscale>
<asrwt>0</asrwt>
<pdfrwt beam="1">  1       21 0.39983936E-02 0.30000000E+03</pdfrwt>
<pdfrwt beam="2">0</pdfrwt>
<totfact> 0.42075775E+04</totfact>
</mgrwt>
</event>
<event>
 6    1  0.1274196E-001  0.3000000E+03  0.7818608E-02  0.1093470E+00
         21   -1    0    0  501  502  0.00000000000E+00  0.00000000000E+00  0.24107815709E+01  0.24107815709E+01  0.00000000000E+00 0. -1.
         13   -1    0    0    0    0 -0.00000000000E+00 -0.00000000000E+00 -0.10000000000E+04  0.10000000000E+04  0.00000000000E+00 0.  1.
    9000005    2    1    2  501    0 -0.32596065547E+02  0.19094351811E+02 -0.81832599393E+03  0.81921034102E+03  0.45883256605E+01 0.  0.
         13    1    3    3    0    0 -0.20388380716E+02  0.10089186866E+02 -0.45635965204E+03  0.45692626294E+03  0.00000000000E+00 0.  1.
          3    1    3    3  501    0 -0.12207684831E+02  0.90051649444E+01 -0.36196634190E+03  0.36228407808E+03  0.00000000000E+00 0.  1.
         -3    1    1    2    0  502  0.32596065547E+02 -0.19094351811E+02 -0.17926322450E+03  0.18320044055E+03  0.00000000000E+00 0. -1.
<mgrwt>
<rscale>  1 0.30000000E+03</rscale>
<asrwt>0</asrwt>
<pdfrwt beam="1">  1       21 0.87664969E-02 0.30000000E+03</pdfrwt>
<pdfrwt beam="2">0</pdfrwt>
<totfact> 0.10872263E+04</totfact>
</mgrwt>
</event>
<event>
 6    1  0.1274196E-001  0.3000000E+03  0.7818608E-02  0.1093470E+00
         21   -1    0    0  501  502  0.00000000000E+00  0.00000000000E+00  0.35432205577E+01  0.35432205577E+01  0.00000000000E+00 0. -1.
         13   -1    0    0    0    0 -0.00000000000E+00 -0.00000000000E+00 -0.10000000000E+04  0.10000000000E+04  0.00000000000E+00 0.  1.
    9000005    2    1    2  501    0  0.28291170402E+02  0.39467858136E+02 -0.78816285725E+03  0.78966367462E+03  0.31507643823E+01 0.  0.
         13    1    3    3    0    0  0.97842430217E+01  0.15093303184E+02 -0.27148009401E+03  0.27207532166E+03  0.00000000000E+00 0.  1.
          3    1    3    3  501    0  0.18506927380E+02  0.24374554951E+02 -0.51668276324E+03  0.51758835296E+03  0.00000000000E+00 0.  1.
         -1    1    1    2    0  502 -0.28291170402E+02 -0.39467858136E+02 -0.20829392219E+03  0.21387954594E+03  0.00000000000E+00 0. -1.
<mgrwt>
<rscale>  1 0.30000000E+03</rscale>
<asrwt>0</asrwt>
<pdfrwt beam="1">  1       21 0.12884466E-01 0.30000000E+03</pdfrwt>
<pdfrwt beam="2">0</pdfrwt>
<totfact> 0.54445337E+03</totfact>
</mgrwt>
</event>
<event>
 6    1  0.1274196E-001  0.3000000E+03  0.7818608E-02  0.1093470E+00
         21   -1    0    0  501  502  0.00000000000E+00  0.00000000000E+00  0.19062963046E+01  0.19062963046E+01  0.00000000000E+00 0. -1.
         13   -1    0    0    0    0 -0.00000000000E+00 -0.00000000000E+00 -0.10000000000E+04  0.10000000000E+04  0.00000000000E+00 0.  1.
    9000005    2    1    2  501    0  0.35861470556E+02 -0.46446957510E+01 -0.77888046029E+03  0.77973054525E+03  0.41633540749E+01 0.  0.
         13    1    3    3    0    0  0.27756161604E+02 -0.27048820526E+01 -0.56513400351E+03  0.56582167051E+03  0.00000000000E+00 0.  1.
          3    1    3    3  501    0  0.81053089512E+01 -0.19398136984E+01 -0.21374645677E+03  0.21390887474E+03  0.00000000000E+00 0.  1.
         -3    1    1    2    0  502 -0.35861470556E+02  0.46446957510E+01 -0.21921324341E+03  0.22217575105E+03  0.00000000000E+00 0. -1.
<mgrwt>
<rscale>  1 0.30000000E+03</rscale>
<asrwt>0</asrwt>
<pdfrwt beam="1">  1       21 0.69320012E-02 0.30000000E+03</pdfrwt>
<pdfrwt beam="2">0</pdfrwt>
<totfact> 0.16411633E+04</totfact>
</mgrwt>
</event>
<event>
 6    1  0.1274196E-001  0.3000000E+03  0.7818608E-02  0.1093470E+00
         21   -1    0    0  501  502  0.00000000000E+00  0.00000000000E+00  0.19750794797E+01  0.19750794797E+01  0.00000000000E+00 0. -1.
         13   -1    0    0    0    0 -0.00000000000E+00 -0.00000000000E+00 -0.10000000000E+04  0.10000000000E+04  0.00000000000E+00 0.  1.
    9000005    2    1    2  501    0  0.29680436685E+02  0.24712754869E+02 -0.74613831962E+03  0.74714472750E+03  0.33471266151E+01 0.  0.
         13    1    3    3    0    0  0.15744973927E+02  0.15181415630E+02 -0.43008993818E+03  0.43064571809E+03  0.00000000000E+00 0.  1.
          1    1    3    3  501    0  0.13935462758E+02  0.95313392394E+01 -0.31604838143E+03  0.31649900941E+03  0.00000000000E+00 0.  1.
         -3    1    1    2    0  502 -0.29680436685E+02 -0.24712754869E+02 -0.25188660090E+03  0.25483035198E+03  0.00000000000E+00 0. -1.
<mgrwt>
<rscale>  1 0.30000000E+03</rscale>
<asrwt>0</asrwt>
<pdfrwt beam="1">  1       21 0.71821223E-02 0.30000000E+03</pdfrwt>
<pdfrwt beam="2">0</pdfrwt>
<totfact> 0.15429179E+04</totfact>
</mgrwt>
</event>
<event>
 6    1  0.1274196E-001  0.3000000E+03  0.7818608E-02  0.1093470E+00
         21   -1    0    0  501  502  0.00000000000E+00  0.00000000000E+00  0.11839007264E+01  0.11839007264E+01  0.00000000000E+00 0. -1.
         13   -1    0    0    0    0 -0.00000000000E+00 -0.00000000000E+00 -0.10000000000E+04  0.10000000000E+04  0.00000000000E+00 0.  1.
    9000005    2    1    2  501    0  0.30066154562E+02  0.34998941733E+01 -0.29665359940E+03  0.29836927429E+03  0.10229510831E+02 0.  0.
         13    1    3    3    0    0  0.26028488120E+02  0.12914817159E+01 -0.27499756003E+03  0.27622962937E+03  0.00000000000E+00 0.  1.
          1    1    3    3  501    0  0.40376664417E+01  0.22084124575E+01 -0.21656039372E+02  0.22139644920E+02  0.00000000000E+00 0.  1.
         -3    1    1    2    0  502 -0.30066154562E+02 -0.34998941733E+01 -0.70216249987E+03  0.70281462644E+03  0.00000000000E+00 0. -1.
<mgrwt>
<rscale>  1 0.30000000E+03</rscale>
<asrwt>0</asrwt>
<pdfrwt beam="1">  1       21 0.43051026E-02 0.30000000E+03</pdfrwt>
<pdfrwt beam="2">0</pdfrwt>
<totfact> 0.37142170E+04</totfact>
</mgrwt>
</event>
<event>
 6    1  0.1274196E-001  0.3000000E+03  0.7818608E-02  0.1093470E+00
         21   -1    0    0  501  502  0.00000000000E+00  0.00000000000E+00  0.61372960837E+01  0.61372960837E+01  0.00000000000E+00 0. -1.
         13   -1    0    0    0    0 -0.00000000000E+00 -0.00000000000E+00 -0.10000000000E+04  0.10000000000E+04  0.00000000000E+00 0.  1.
    9000005    2    1    2  501    0  0.55063504621E+02  0.36248136811E+01 -0.85392084065E+03  0.85570839623E+03  0.33058243733E+01 0.  0.
         13    1    3    3    0    0  0.34093049680E+02  0.34438223777E+01 -0.51302764897E+03  0.51417075428E+03  0.00000000000E+00 0.  1.
          3    1    3    3  501    0  0.20970454942E+02  0.18099130341E+00 -0.34089319168E+03  0.34153764195E+03  0.00000000000E+00 0.  1.
         -1    1    1    2    0  502 -0.55063504621E+02 -0.36248136811E+01 -0.13994186327E+03  0.15042889985E+03  0.00000000000E+00 0. -1.
<mgrwt>
<rscale>  1 0.30000000E+03</rscale>
<asrwt>0</asrwt>
<pdfrwt beam="1">  1       21 0.22317487E-01 0.30000000E+03</pdfrwt>
<pdfrwt beam="2">0</pdfrwt>
<totfact> 0.19441713E+03</totfact>
</mgrwt>
</event>
<event>
 6    1  0.1274196E-001  0.3000000E+03  0.7818608E-02  0.1093470E+00
         21   -1    0    0  501  502  0.00000000000E+00  0.00000000000E+00  0.91304859325E+00  0.91304859325E+00  0.00000000000E+00 0. -1.
         13   -1    0    0    0    0 -0.00000000000E+00 -0.00000000000E+00 -0.10000000000E+04  0.10000000000E+04  0.00000000000E+00 0.  1.
    9000005    2    1    2  501    0 -0.10998034722E+02 -0.28052440435E+02 -0.51093316501E+03  0.51183021782E+03  0.30946059665E+01 0.  0.
         13    1    3    3    0    0  0.19970840032E+00 -0.82705850467E+00 -0.14950771364E+02  0.14974961556E+02  0.00000000000E+00 0.  1.
          3    1    3    3  501    0 -0.11197743122E+02 -0.27225381930E+02 -0.49598239364E+03  0.49685525626E+03  0.00000000000E+00 0.  1.
         -1    1    1    2    0  502  0.10998034722E+02  0.28052440435E+02 -0.48815378640E+03  0.48908283078E+03  0.00000000000E+00 0. -1.
<mgrwt>
<rscale>  1 0.30000000E+03</rscale>
<asrwt>0</asrwt>
<pdfrwt beam="1">  1       21 0.33201837E-02 0.30000000E+03</pdfrwt>
<pdfrwt beam="2">0</pdfrwt>
<totfact> 0.57465943E+04</totfact>
</mgrwt>
</event>
<event>
 6    1  0.1274196E-001  0.3000000E+03  0.7818608E-02  0.1093470E+00
         21   -1    0    0  501  502  0.00000000000E+00  0.00000000000E+00  0.20333701443E+01  0.20333701443E+01  0.00000000000E+00 0. -1.
         13   -1    0    0    0    0 -0.00000000000E+00 -0.00000000000E+00 -0.10000000000E+04  0.10000000000E+04  0.00000000000E+00 0.  1.
    9000005    2    1    2  501    0 -0.44630411361E+02  0.22656837302E+01 -0.56169331045E+03  0.56347731197E+03  0.32092293878E+01 0.  0.
         13    1    3    3    0    0 -0.17780983991E+02  0.12520082465E+01 -0.20502361359E+03  0.20579701904E+03  0.00000000000E+00 0.  1.
          1    1    3    3  501    0 -0.26849427370E+02  0.10136754837E+01 -0.35666969687E+03  0.35768029293E+03  0.00000000000E+00 0.  1.
         -3    1    1    2    0  502  0.44630411361E+02 -0.22656837302E+01 -0.43627331940E+03  0.43855605818E+03  0.00000000000E+00 0. -1.
<mgrwt>
<rscale>  1 0.30000000E+03</rscale>
<asrwt>0</asrwt>
<pdfrwt beam="1">  1       21 0.73940888E-02 0.30000000E+03</pdfrwt>
<pdfrwt beam="2">0</pdfrwt>
<totfact> 0.14664970E+04</totfact>
</mgrwt>
</event>
<event>
 6    1  0.1274196E-001  0.3000000E+03  0.7818608E-02  0.1093470E+00
         21   -1    0    0  501  502  0.00000000000E+00  0.00000000000E+00  0.81576300162E+01  0.81576300162E+01  0.00000000000E+00 0. -1.
         13   -1    0    0    0    0 -0.00000000000E+00 -0.00000000000E+00 -0.10000000000E+04  0.10000000000E+04  0.00000000000E+00 0.  1.
    9000005    2    1    2  501    0 -0.76853627162E+02 -0.27556335822E+02 -0.70998621093E+03  0.71471474622E+03  0.84212295339E+01 0.  0.
         13    1    3    3    0    0 -0.19435646243E+02 -0.96174596924E+01 -0.16508394305E+03  0.16650209647E+03  0.00000000000E+00 0.  1.
          1    1    3    3  501    0 -0.57417980919E+02 -0.17938876129E+02 -0.54490226788E+03  0.54821264976E+03  0.00000000000E+00 0.  1.
         -3    1    1    2    0  502  0.76853627162E+02  0.27556335822E+02 -0.28185615905E+03  0.29344288379E+03  0.00000000000E+00 0. -1.
<mgrwt>
<rscale>  1 0.30000000E+03</rscale>
<asrwt>0</asrwt>
<pdfrwt beam="1">  1       21 0.29664172E-01 0.30000000E+03</pdfrwt>
<pdfrwt beam="2">0</pdfrwt>
<totfact> 0.11120226E+03</totfact>
</mgrwt>
</event>
<event>
 6    1  0.1274196E-001  0.3000000E+03  0.7818608E-02  0.1093470E+00
         21   -1    0    0  501  502  0.00000000000E+00  0.00000000000E+00  0.20289783864E+01  0.20289783864E+01  0.00000000000E+00 0. -1.
         13   -1    0    0    0    0 -0.00000000000E+00 -0.00000000000E+00 -0.10000000000E+04  0.10000000000E+04  0.00000000000E+00 0.  1.
    9000005    2    1    2  501    0  0.38885907541E+02 -0.20875973468E+02 -0.59658466018E+03  0.59822341724E+03  0.31749157963E+01 0.  0.
         13    1    3    3    0    0  0.26652509923E+02 -0.15948007380E+02 -0.41684120257E+03  0.41799675045E+03  0.00000000000E+00 0.  1.
          3    1    3    3  501    0  0.12233397618E+02 -0.49279660874E+01 -0.17974345762E+03  0.18022666679E+03  0.00000000000E+00 0.  1.
         -1    1    1    2    0  502 -0.38885907541E+02  0.20875973468E+02 -0.40138636143E+03  0.40380556115E+03  0.00000000000E+00 0. -1.
<mgrwt>
<rscale>  1 0.30000000E+03</rscale>
<asrwt>0</asrwt>
<pdfrwt beam="1">  1       21 0.73781188E-02 0.30000000E+03</pdfrwt>
<pdfrwt beam="2">0</pdfrwt>
<totfact> 0.14720526E+04</totfact>
</mgrwt>
</event>
<event>
 6    1  0.1274196E-001  0.3000000E+03  0.7818608E-02  0.1093470E+00
         21   -1    0    0  501  502  0.00000000000E+00  0.00000000000E+00  0.17076350702E+01  0.17076350702E+01  0.00000000000E+00 0. -1.
         13   -1    0    0    0    0 -0.00000000000E+00 -0.00000000000E+00 -0.10000000000E+04  0.10000000000E+04  0.00000000000E+00 0.  1.
    9000005    2    1    2  501    0  0.31620399584E+02  0.13352754263E+02 -0.77738681338E+03  0.77815135933E+03  0.33368694249E+01 0.  0.
         13    1    3    3    0    0  0.29516937987E+02  0.13317381674E+02 -0.73030130908E+03  0.73101888096E+03  0.00000000000E+00 0.  1.
          3    1    3    3  501    0  0.21034615971E+01  0.35372589337E-01 -0.47085504304E+02  0.47132478372E+02  0.00000000000E+00 0.  1.
         -3    1    1    2    0  502 -0.31620399584E+02 -0.13352754263E+02 -0.22090555155E+03  0.22355627574E+03  0.00000000000E+00 0. -1.
<mgrwt>
<rscale>  1 0.30000000E+03</rscale>
<asrwt>0</asrwt>
<pdfrwt beam="1">  1       21 0.62095952E-02 0.30000000E+03</pdfrwt>
<pdfrwt beam="2">0</pdfrwt>
<totfact> 0.19859228E+04</totfact>
</mgrwt>
</event>
<event>
 6    1  0.1274196E-001  0.3000000E+03  0.7818608E-02  0.1093470E+00
         21   -1    0    0  501  502  0.00000000000E+00  0.00000000000E+00  0.26318853718E+01  0.26318853718E+01  0.00000000000E+00 0. -1.
         13   -1    0    0    0    0 -0.00000000000E+00 -0.00000000000E+00 -0.10000000000E+04  0.10000000000E+04  0.00000000000E+00 0.  1.
    9000005    2    1    2  501    0 -0.17689010859E+02  0.37871588505E+02 -0.78896356010E+03  0.79007691208E+03  0.32968958760E+01 0.  0.
         13    1    3    3    0    0 -0.20679803533E+01  0.25998016914E+01 -0.54850643376E+02  0.54951147307E+02  0.00000000000E+00 0.  1.
          3    1    3    3  501    0 -0.15621030506E+02  0.35271786813E+02 -0.73411291672E+03  0.73512576478E+03  0.00000000000E+00 0.  1.
         -1    1    1    2    0  502  0.17689010859E+02 -0.37871588505E+02 -0.20840455453E+03  0.21255497329E+03  0.00000000000E+00 0. -1.
<mgrwt>
<rscale>  1 0.30000000E+03</rscale>
<asrwt>0</asrwt>
<pdfrwt beam="1">  1       21 0.95705124E-02 0.30000000E+03</pdfrwt>
<pdfrwt beam="2">0</pdfrwt>
<totfact> 0.93042985E+03</totfact>
</mgrwt>
</event>
<event>
 6    1  0.1274196E-001  0.3000000E+03  0.7818608E-02  0.1093470E+00
         21   -1    0    0  501  502  0.00000000000E+00  0.00000000000E+00  0.48327455477E+01  0.48327455477E+01  0.00000000000E+00 0. -1.
         13   -1    0    0    0    0 -0.00000000000E+00 -0.00000000000E+00 -0.10000000000E+04  0.10000000000E+04  0.00000000000E+00 0.  1.
    9000005    2    1    2  501    0 -0.27752727269E+02 -0.16518091697E+02 -0.94245154564E+03  0.94301036141E+03  0.32503284024E+01 0.  0.
         13    1    3    3    0    0 -0.58985357046E+01 -0.44483156561E+01 -0.18485694252E+03  0.18500451193E+03  0.00000000000E+00 0.  1.
          3    1    3    3  501    0 -0.21854191565E+02 -0.12069776041E+02 -0.75759460312E+03  0.75800584949E+03  0.00000000000E+00 0.  1.
         -3    1    1    2    0  502  0.27752727269E+02  0.16518091697E+02 -0.52715708815E+02  0.61822384134E+02  0.00000000000E+00 0. -1.
<mgrwt>
<rscale>  1 0.30000000E+03</rscale>
<asrwt>0</asrwt>
<pdfrwt beam="1">  1       21 0.17573657E-01 0.30000000E+03</pdfrwt>
<pdfrwt beam="2">0</pdfrwt>
<totfact> 0.30646702E+03</totfact>
</mgrwt>
</event>
<event>
 6    1  0.1274196E-001  0.3000000E+03  0.7818608E-02  0.1093470E+00
         21   -1    0    0  501  502  0.00000000000E+00  0.00000000000E+00  0.94571647848E+00  0.94571647848E+00  0.00000000000E+00 0. -1.
         13   -1    0    0    0    0 -0.00000000000E+00 -0.00000000000E+00 -0.10000000000E+04  0.10000000000E+04  0.00000000000E+00 0.  1.
    9000005    2    1    2  501    0 -0.50398935965E+01  0.30071207476E+02 -0.55260941301E+03  0.55346085590E+03  0.34752860018E+01 0.  0.
         13    1    3    3    0    0  0.29122330070E-01  0.40865675083E+01 -0.58370518636E+02  0.58513402977E+02  0.00000000000E+00 0.  1.
          3    1    3    3  501    0 -0.50690159266E+01  0.25984639968E+02 -0.49423889438E+03  0.49494745292E+03  0.00000000000E+00 0.  1.
         -1    1    1    2    0  502  0.50398935965E+01 -0.30071207476E+02 -0.44644487051E+03  0.44748486058E+03  0.00000000000E+00 0. -1.
<mgrwt>
<rscale>  1 0.30000000E+03</rscale>
<asrwt>0</asrwt>
<pdfrwt beam="1">  1       21 0.34389763E-02 0.30000000E+03</pdfrwt>
<pdfrwt beam="2">0</pdfrwt>
<totfact> 0.54188546E+04</totfact>
</mgrwt>
</event>
<event>
 6    1  0.1274196E-001  0.3000000E+03  0.7818608E-02  0.1093470E+00
         21   -1    0    0  501  502  0.00000000000E+00  0.00000000000E+00  0.52543407189E+01  0.52543407189E+01  0.00000000000E+00 0. -1.
         13   -1    0    0    0    0 -0.00000000000E+00 -0.00000000000E+00 -0.10000000000E+04  0.10000000000E+04  0.00000000000E+00 0.  1.
    9000005    2    1    2  501    0  0.67214839347E+02 -0.24941984510E+02 -0.42506842385E+03  0.43108355621E+03  0.31512310742E+01 0.  0.
         13    1    3    3    0    0  0.16033271232E+02 -0.45985992228E+01 -0.96378049859E+02  0.97810742742E+02  0.00000000000E+00 0.  1.
          3    1    3    3  501    0  0.51181568115E+02 -0.20343385287E+02 -0.32869037399E+03  0.33327281346E+03  0.00000000000E+00 0.  1.
         -1    1    1    2    0  502 -0.67214839347E+02  0.24941984510E+02 -0.56967723543E+03  0.57417078451E+03  0.00000000000E+00 0. -1.
<mgrwt>
<rscale>  1 0.30000000E+03</rscale>
<asrwt>0</asrwt>
<pdfrwt beam="1">  1       21 0.19106734E-01 0.30000000E+03</pdfrwt>
<pdfrwt beam="2">0</pdfrwt>
<totfact> 0.26171425E+03</totfact>
</mgrwt>
</event>
<event>
 6    1  0.1274196E-001  0.3000000E+03  0.7818608E-02  0.1093470E+00
         21   -1    0    0  501  502  0.00000000000E+00  0.00000000000E+00  0.23061306021E+01  0.23061306021E+01  0.00000000000E+00 0. -1.
         13   -1    0    0    0    0 -0.00000000000E+00 -0.00000000000E+00 -0.10000000000E+04  0.10000000000E+04  0.00000000000E+00 0.  1.
    9000005    2    1    2  501    0  0.26168262767E+02  0.27200216510E+02 -0.80835732739E+03  0.80924407868E+03  0.31273586562E+01 0.  0.
         13    1    3    3    0    0  0.14643303426E+02  0.17407663521E+02 -0.49014512184E+03  0.49067269493E+03  0.00000000000E+00 0.  1.
          1    1    3    3  501    0  0.11524959341E+02  0.97925529897E+01 -0.31821220555E+03  0.31857138375E+03  0.00000000000E+00 0.  1.
         -3    1    1    2    0  502 -0.26168262767E+02 -0.27200216510E+02 -0.18933654200E+03  0.19306205192E+03  0.00000000000E+00 0. -1.
<mgrwt>
<rscale>  1 0.30000000E+03</rscale>
<asrwt>0</asrwt>
<pdfrwt beam="1">  1       21 0.83859471E-02 0.30000000E+03</pdfrwt>
<pdfrwt beam="2">0</pdfrwt>
<totfact> 0.11757905E+04</totfact>
</mgrwt>
</event>
<event>
 6    1  0.1274196E-001  0.3000000E+03  0.7818608E-02  0.1093470E+00
         21   -1    0    0  501  502  0.00000000000E+00  0.00000000000E+00  0.26244941671E+02  0.26244941671E+02  0.00000000000E+00 0. -1.
         13   -1    0    0    0    0 -0.00000000000E+00 -0.00000000000E+00 -0.10000000000E+04  0.10000000000E+04  0.00000000000E+00 0.  1.
    9000005    2    1    2  501    0 -0.57079411088E+02  0.14892436024E+03 -0.57667935429E+03  0.59833649471E+03  0.33104374625E+01 0.  0.
         13    1    3    3    0    0 -0.43655162898E+02  0.11165859698E+03 -0.43786629937E+03  0.45398272176E+03  0.00000000000E+00 0.  1.
          3    1    3    3  501    0 -0.13424248191E+02  0.37265763261E+02 -0.13881305492E+03  0.14435377296E+03  0.00000000000E+00 0.  1.
         -1    1    1    2    0  502  0.57079411088E+02 -0.14892436024E+03 -0.39707570403E+03  0.42790844696E+03  0.00000000000E+00 0. -1.
<mgrwt>
<rscale>  1 0.30000000E+03</rscale>
<asrwt>0</asrwt>
<pdfrwt beam="1">  1       21 0.95436353E-01 0.30000000E+03</pdfrwt>
<pdfrwt beam="2">0</pdfrwt>
<totfact> 0.83009151E+01</totfact>
</mgrwt>
</event>
<event>
 6    1  0.1274196E-001  0.3000000E+03  0.7818608E-02  0.1093470E+00
         21   -1    0    0  501  502  0.00000000000E+00  0.00000000000E+00  0.18672197121E+01  0.18672197121E+01  0.00000000000E+00 0. -1.
         13   -1    0    0    0    0 -0.00000000000E+00 -0.00000000000E+00 -0.10000000000E+04  0.10000000000E+04  0.00000000000E+00 0.  1.
    9000005    2    1    2  501    0  0.25099097537E+02 -0.26346657016E+02 -0.76877459090E+03  0.76964041232E+03  0.28074235017E+01 0.  0.
         13    1    3    3    0    0  0.22482702085E+01 -0.20823484096E+01 -0.50473448089E+02  0.50566390576E+02  0.00000000000E+00 0.  1.
          3    1    3    3  501    0  0.22850827329E+02 -0.24264308607E+02 -0.71830114281E+03  0.71907402174E+03  0.00000000000E+00 0.  1.
         -3    1    1    2    0  502 -0.25099097537E+02  0.26346657016E+02 -0.22935818939E+03  0.23222680740E+03  0.00000000000E+00 0. -1.
<mgrwt>
<rscale>  1 0.30000000E+03</rscale>
<asrwt>0</asrwt>
<pdfrwt beam="1">  1       21 0.67899042E-02 0.30000000E+03</pdfrwt>
<pdfrwt beam="2">0</pdfrwt>
<totfact> 0.17013032E+04</totfact>
</mgrwt>
</event>
<event>
 6    1  0.1274196E-001  0.3000000E+03  0.7818608E-02  0.1093470E+00
         21   -1    0    0  501  502  0.00000000000E+00  0.00000000000E+00  0.99267361347E+00  0.99267361347E+00  0.00000000000E+00 0. -1.
         13   -1    0    0    0    0 -0.00000000000E+00 -0.00000000000E+00 -0.10000000000E+04  0.10000000000E+04  0.00000000000E+00 0.  1.
    9000005    2    1    2  501    0 -0.28927376376E+02  0.11256363512E+02 -0.42599818634E+03  0.42714341345E+03  0.36799534838E+01 0.  0.
         13    1    3    3    0    0 -0.37495623111E+01  0.38600139680E+00 -0.61072342241E+02  0.61188554497E+02  0.00000000000E+00 0.  1.
          1    1    3    3  501    0 -0.25177814065E+02  0.10870362115E+02 -0.36492584410E+03  0.36595485895E+03  0.00000000000E+00 0.  1.
         -3    1    1    2    0  502  0.28927376376E+02 -0.11256363512E+02 -0.57300914004E+03  0.57384926017E+03  0.00000000000E+00 0. -1.
<mgrwt>
<rscale>  1 0.30000000E+03</rscale>
<asrwt>0</asrwt>
<pdfrwt beam="1">  1       21 0.36097298E-02 0.30000000E+03</pdfrwt>
<pdfrwt beam="2">0</pdfrwt>
<totfact> 0.49963642E+04</totfact>
</mgrwt>
</event>
<event>
 6    1  0.1274196E-001  0.3000000E+03  0.7818608E-02  0.1093470E+00
         21   -1    0    0  501  502  0.00000000000E+00  0.00000000000E+00  0.12539043081E+01  0.12539043081E+01  0.00000000000E+00 0. -1.
         13   -1    0    0    0    0 -0.00000000000E+00 -0.00000000000E+00 -0.10000000000E+04  0.10000000000E+04  0.00000000000E+00 0.  1.
    9000005    2    1    2  501    0 -0.32375194483E+02 -0.85760353063E+01 -0.65978985460E+03  0.66064704152E+03  0.31874196581E+01 0.  0.
         13    1    3    3    0    0 -0.16195710216E+02 -0.59169231512E+01 -0.34321575715E+03  0.34364860972E+03  0.00000000000E+00 0.  1.
          1    1    3    3  501    0 -0.16179484267E+02 -0.26591121552E+01 -0.31657409745E+03  0.31699843180E+03  0.00000000000E+00 0.  1.
         -1    1    1    2    0  502  0.32375194483E+02  0.85760353063E+01 -0.33895624110E+03  0.34060686279E+03  0.00000000000E+00 0. -1.
<mgrwt>
<rscale>  1 0.30000000E+03</rscale>
<asrwt>0</asrwt>
<pdfrwt beam="1">  1       21 0.45596616E-02 0.30000000E+03</pdfrwt>
<pdfrwt beam="2">0</pdfrwt>
<totfact> 0.33696200E+04</totfact>
</mgrwt>
</event>
<event>
 6    1  0.1274196E-001  0.3000000E+03  0.7818608E-02  0.1093470E+00
         21   -1    0    0  501  502  0.00000000000E+00  0.00000000000E+00  0.18098627655E+01  0.18098627655E+01  0.00000000000E+00 0. -1.
         13   -1    0    0    0    0 -0.00000000000E+00 -0.00000000000E+00 -0.10000000000E+04  0.10000000000E+04  0.00000000000E+00 0.  1.
    9000005    2    1    2  501    0  0.12557857581E+02  0.39241833819E+02 -0.37859132782E+03  0.38084262858E+03  0.34774893459E+01 0.  0.
         13    1    3    3    0    0  0.12099540215E+02  0.38087069170E+02 -0.36038214462E+03  0.36259111113E+03  0.00000000000E+00 0.  1.
          1    1    3    3  501    0  0.45831736590E+00  0.11547646488E+01 -0.18209183203E+02  0.18251517448E+02  0.00000000000E+00 0.  1.
         -1    1    1    2    0  502 -0.12557857581E+02 -0.39241833819E+02 -0.61959880941E+03  0.62096723419E+03  0.00000000000E+00 0. -1.
<mgrwt>
<rscale>  1 0.30000000E+03</rscale>
<asrwt>0</asrwt>
<pdfrwt beam="1">  1       21 0.65813330E-02 0.30000000E+03</pdfrwt>
<pdfrwt beam="2">0</pdfrwt>
<totfact> 0.17959045E+04</totfact>
</mgrwt>
</event>
<event>
 6    1  0.1274196E-001  0.3000000E+03  0.7818608E-02  0.1093470E+00
         21   -1    0    0  501  502  0.00000000000E+00  0.00000000000E+00  0.30284576433E+01  0.30284576433E+01  0.00000000000E+00 0. -1.
         13   -1    0    0    0    0 -0.00000000000E+00 -0.00000000000E+00 -0.10000000000E+04  0.10000000000E+04  0.00000000000E+00 0.  1.
    9000005    2    1    2  501    0  0.12559036890E+02  0.37797661949E+02 -0.84435524482E+03  0.84530044197E+03  0.32657422152E+01 0.  0.
         13    1    3    3    0    0  0.96796784981E+01  0.30463271819E+02 -0.70193711730E+03  0.70266451721E+03  0.00000000000E+00 0.  1.
          1    1    3    3  501    0  0.28793583920E+01  0.73343901302E+01 -0.14241812753E+03  0.14263592476E+03  0.00000000000E+00 0.  1.
         -1    1    1    2    0  502 -0.12559036890E+02 -0.37797661949E+02 -0.15261629753E+03  0.15772801568E+03  0.00000000000E+00 0. -1.
<mgrwt>
<rscale>  1 0.30000000E+03</rscale>
<asrwt>0</asrwt>
<pdfrwt beam="1">  1       21 0.11012596E-01 0.30000000E+03</pdfrwt>
<pdfrwt beam="2">0</pdfrwt>
<totfact> 0.72371050E+03</totfact>
</mgrwt>
</event>
<event>
 6    1  0.1274196E-001  0.3000000E+03  0.7818608E-02  0.1093470E+00
         21   -1    0    0  501  502  0.00000000000E+00  0.00000000000E+00  0.18271174853E+01  0.18271174853E+01  0.00000000000E+00 0. -1.
         13   -1    0    0    0    0 -0.00000000000E+00 -0.00000000000E+00 -0.10000000000E+04  0.10000000000E+04  0.00000000000E+00 0.  1.
    9000005    2    1    2  501    0  0.30151149767E+02 -0.29002931043E+02 -0.59701899663E+03  0.59849759711E+03  0.41748742231E+01 0.  0.
         13    1    3    3    0    0  0.39123744588E+01 -0.36711324520E+01 -0.58775903793E+02  0.59020257150E+02  0.00000000000E+00 0.  1.
          1    1    3    3  501    0  0.26238775308E+02 -0.25331798591E+02 -0.53824309283E+03  0.53947733996E+03  0.00000000000E+00 0.  1.
         -1    1    1    2    0  502 -0.30151149767E+02  0.29002931043E+02 -0.40115388589E+03  0.40332952037E+03  0.00000000000E+00 0. -1.
<mgrwt>
<rscale>  1 0.30000000E+03</rscale>
<asrwt>0</asrwt>
<pdfrwt beam="1">  1       21 0.66440776E-02 0.30000000E+03</pdfrwt>
<pdfrwt beam="2">0</pdfrwt>
<totfact> 0.17666111E+04</totfact>
</mgrwt>
</event>
<event>
 6    1  0.1274196E-001  0.3000000E+03  0.7818608E-02  0.1093470E+00
         21   -1    0    0  501  502  0.00000000000E+00  0.00000000000E+00  0.44993902963E+01  0.44993902963E+01  0.00000000000E+00 0. -1.
         13   -1    0    0    0    0 -0.00000000000E+00 -0.00000000000E+00 -0.10000000000E+04  0.10000000000E+04  0.00000000000E+00 0.  1.
    9000005    2    1    2  501    0  0.37504129697E+02  0.39571322200E+01 -0.91302583451E+03  0.91381142426E+03  0.35952739131E+01 0.  0.
         13    1    3    3    0    0  0.31132898970E+02  0.45658261672E+01 -0.76873500356E+03  0.76937871680E+03  0.00000000000E+00 0.  1.
          1    1    3    3  501    0  0.63712307266E+01 -0.60869394728E+00 -0.14429083094E+03  0.14443270746E+03  0.00000000000E+00 0.  1.
         -3    1    1    2    0  502 -0.37504129697E+02 -0.39571322200E+01 -0.82474775197E+02  0.90687966035E+02  0.00000000000E+00 0. -1.
<mgrwt>
<rscale>  1 0.30000000E+03</rscale>
<asrwt>0</asrwt>
<pdfrwt beam="1">  1       21 0.16361454E-01 0.30000000E+03</pdfrwt>
<pdfrwt beam="2">0</pdfrwt>
<totfact> 0.35035748E+03</totfact>
</mgrwt>
</event>
<event>
 6    1  0.1274196E-001  0.3000000E+03  0.7818608E-02  0.1093470E+00
         21   -1    0    0  501  502  0.00000000000E+00  0.00000000000E+00  0.18674257102E+01  0.18674257102E+01  0.00000000000E+00 0. -1.
         13   -1    0    0    0    0 -0.00000000000E+00 -0.00000000000E+00 -0.10000000000E+04  0.10000000000E+04  0.00000000000E+00 0.  1.
    9000005    2    1    2  501    0  0.75385383145E+01 -0.37887722962E+02 -0.72265084720E+03  0.72369033989E+03  0.33394595739E+01 0.  0.
         13    1    3    3    0    0 -0.27047002924E+00 -0.31931953202E+01 -0.55964884896E+02  0.56056560649E+02  0.00000000000E+00 0.  1.
          3    1    3    3  501    0  0.78090083438E+01 -0.34694527642E+02 -0.66668596230E+03  0.66763377925E+03  0.00000000000E+00 0.  1.
         -3    1    1    2    0  502 -0.75385383145E+01  0.37887722962E+02 -0.27548172709E+03  0.27817708582E+03  0.00000000000E+00 0. -1.
<mgrwt>
<rscale>  1 0.30000000E+03</rscale>
<asrwt>0</asrwt>
<pdfrwt beam="1">  1       21 0.67906533E-02 0.30000000E+03</pdfrwt>
<pdfrwt beam="2">0</pdfrwt>
<totfact> 0.17009773E+04</totfact>
</mgrwt>
</event>
<event>
 6    1  0.1274196E-001  0.3000000E+03  0.7818608E-02  0.1093470E+00
         21   -1    0    0  501  502  0.00000000000E+00  0.00000000000E+00  0.16541024574E+01  0.16541024574E+01  0.00000000000E+00 0. -1.
         13   -1    0    0    0    0 -0.00000000000E+00 -0.00000000000E+00 -0.10000000000E+04  0.10000000000E+04  0.00000000000E+00 0.  1.
    9000005    2    1    2  501    0  0.29100813094E+02 -0.96436776339E+01 -0.82786204878E+03  0.82843574163E+03  0.32168848514E+01 0.  0.
         13    1    3    3    0    0  0.19210356873E+02 -0.47679025601E+01 -0.53894453586E+03  0.53930787445E+03  0.00000000000E+00 0.  1.
          3    1    3    3  501    0  0.98904562211E+01 -0.48757750739E+01 -0.28891751292E+03  0.28912786718E+03  0.00000000000E+00 0.  1.
         -1    1    1    2    0  502 -0.29100813094E+02  0.96436776339E+01 -0.17048384876E+03  0.17321836083E+03  0.00000000000E+00 0. -1.
<mgrwt>
<rscale>  1 0.30000000E+03</rscale>
<asrwt>0</asrwt>
<pdfrwt beam="1">  1       21 0.60149307E-02 0.30000000E+03</pdfrwt>
<pdfrwt beam="2">0</pdfrwt>
<totfact> 0.20981533E+04</totfact>
</mgrwt>
</event>
<event>
 6    1  0.1274196E-001  0.3000000E+03  0.7818608E-02  0.1093470E+00
         21   -1    0    0  501  502  0.00000000000E+00  0.00000000000E+00  0.14072471748E+01  0.14072471748E+01  0.00000000000E+00 0. -1.
         13   -1    0    0    0    0 -0.00000000000E+00 -0.00000000000E+00 -0.10000000000E+04  0.10000000000E+04  0.00000000000E+00 0.  1.
    9000005    2    1    2  501    0  0.30920849013E+02  0.63781075323E+01 -0.76892539089E+03  0.76957999188E+03  0.32137185247E+01 0.  0.
         13    1    3    3    0    0  0.34537865385E+01  0.38806104836E+00 -0.64067997853E+02  0.64162197451E+02  0.00000000000E+00 0.  1.
          3    1    3    3  501    0  0.27467062474E+02  0.59900464839E+01 -0.70485739304E+03  0.70541779443E+03  0.00000000000E+00 0.  1.
         -1    1    1    2    0  502 -0.30920849013E+02 -0.63781075323E+01 -0.22966736193E+03  0.23182725529E+03  0.00000000000E+00 0. -1.
<mgrwt>
<rscale>  1 0.30000000E+03</rscale>
<asrwt>0</asrwt>
<pdfrwt beam="1">  1       21 0.51172732E-02 0.30000000E+03</pdfrwt>
<pdfrwt beam="2">0</pdfrwt>
<totfact> 0.27687792E+04</totfact>
</mgrwt>
</event>
<event>
 6    1  0.1274196E-001  0.3000000E+03  0.7818608E-02  0.1093470E+00
         21   -1    0    0  501  502  0.00000000000E+00  0.00000000000E+00  0.21473803140E+01  0.21473803140E+01  0.00000000000E+00 0. -1.
         13   -1    0    0    0    0 -0.00000000000E+00 -0.00000000000E+00 -0.10000000000E+04  0.10000000000E+04  0.00000000000E+00 0.  1.
    9000005    2    1    2  501    0  0.12261012714E+02  0.28301357626E+02 -0.87266930251E+03  0.87322041582E+03  0.32990563519E+01 0.  0.
         13    1    3    3    0    0  0.12329480913E+02  0.27861736593E+02 -0.84813353505E+03  0.84868061469E+03  0.00000000000E+00 0.  1.
          3    1    3    3  501    0 -0.68468198924E-01  0.43962103311E+00 -0.24535767460E+02  0.24539801128E+02  0.00000000000E+00 0.  1.
         -3    1    1    2    0  502 -0.12261012714E+02 -0.28301357626E+02 -0.12518331717E+03  0.12892696450E+03  0.00000000000E+00 0. -1.
<mgrwt>
<rscale>  1 0.30000000E+03</rscale>
<asrwt>0</asrwt>
<pdfrwt beam="1">  1       21 0.78086722E-02 0.30000000E+03</pdfrwt>
<pdfrwt beam="2">0</pdfrwt>
<totfact> 0.13328322E+04</totfact>
</mgrwt>
</event>
<event>
 6    1  0.1274196E-001  0.3000000E+03  0.7818608E-02  0.1093470E+00
         21   -1    0    0  501  502  0.00000000000E+00  0.00000000000E+00  0.18665969759E+01  0.18665969759E+01  0.00000000000E+00 0. -1.
         13   -1    0    0    0    0 -0.00000000000E+00 -0.00000000000E+00 -0.10000000000E+04  0.10000000000E+04  0.00000000000E+00 0.  1.
    9000005    2    1    2  501    0 -0.33083701284E+02 -0.22432380510E+02 -0.32261038923E+03  0.32516201952E+03  0.74251405581E+01 0.  0.
         13    1    3    3    0    0 -0.27389088318E+02 -0.16142565135E+02 -0.27105726118E+03  0.27291534110E+03  0.00000000000E+00 0.  1.
          1    1    3    3  501    0 -0.56946129665E+01 -0.62898153754E+01 -0.51553128047E+02  0.52246678418E+02  0.00000000000E+00 0.  1.
         -3    1    1    2    0  502  0.33083701284E+02  0.22432380510E+02 -0.67552301380E+03  0.67670457746E+03  0.00000000000E+00 0. -1.
<mgrwt>
<rscale>  1 0.30000000E+03</rscale>
<asrwt>0</asrwt>
<pdfrwt beam="1">  1       21 0.67876397E-02 0.30000000E+03</pdfrwt>
<pdfrwt beam="2">0</pdfrwt>
<totfact> 0.17022888E+04</totfact>
</mgrwt>
</event>
<event>
 6    1  0.1274196E-001  0.3000000E+03  0.7818608E-02  0.1093470E+00
         21   -1    0    0  501  502  0.00000000000E+00  0.00000000000E+00  0.55149990291E+01  0.55149990291E+01  0.00000000000E+00 0. -1.
         13   -1    0    0    0    0 -0.00000000000E+00 -0.00000000000E+00 -0.10000000000E+04  0.10000000000E+04  0.00000000000E+00 0.  1.
    9000005    2    1    2  501    0  0.39474979210E+02 -0.33559062065E+01 -0.92242528196E+03  0.92328277181E+03  0.36248895703E+01 0.  0.
         13    1    3    3    0    0  0.16848423267E+02 -0.19594928597E+01 -0.35549139377E+03  0.35589582748E+03  0.00000000000E+00 0.  1.
          3    1    3    3  501    0  0.22626555944E+02 -0.13964133468E+01 -0.56693388820E+03  0.56738694432E+03  0.00000000000E+00 0.  1.
         -1    1    1    2    0  502 -0.39474979210E+02  0.33559062065E+01 -0.72059719009E+02  0.82232227221E+02  0.00000000000E+00 0. -1.
<mgrwt>
<rscale>  1 0.30000000E+03</rscale>
<asrwt>0</asrwt>
<pdfrwt beam="1">  1       21 0.20054584E-01 0.30000000E+03</pdfrwt>
<pdfrwt beam="2">0</pdfrwt>
<totfact> 0.23867690E+03</totfact>
</mgrwt>
</event>
<event>
 6    1  0.1274196E-001  0.3000000E+03  0.7818608E-02  0.1093470E+00
         21   -1    0    0  501  502  0.00000000000E+00  0.00000000000E+00  0.24852009036E+01  0.24852009036E+01  0.00000000000E+00 0. -1.
         13   -1    0    0    0    0 -0.00000000000E+00 -0.00000000000E+00 -0.10000000000E+04  0.10000000000E+04  0.00000000000E+00 0.  1.
    9000005    2    1    2  501    0  0.11294167650E+02 -0.42302388422E+02 -0.73773722283E+03  0.73904367148E+03  0.35054430366E+01 0.  0.
         13    1    3    3    0    0  0.54516623159E+01 -0.24016261621E+02 -0.38961706902E+03  0.39039462332E+03  0.00000000000E+00 0.  1.
          1    1    3    3  501    0  0.58425053342E+01 -0.18286126801E+02 -0.34812015380E+03  0.34864904816E+03  0.00000000000E+00 0.  1.
         -1    1    1    2    0  502 -0.11294167650E+02  0.42302388422E+02 -0.25977757627E+03  0.26344152942E+03  0.00000000000E+00 0. -1.
<mgrwt>
<rscale>  1 0.30000000E+03</rscale>
<asrwt>0</asrwt>
<pdfrwt beam="1">  1       21 0.90371133E-02 0.30000000E+03</pdfrwt>
<pdfrwt beam="2">0</pdfrwt>
<totfact> 0.10302686E+04</totfact>
</mgrwt>
</event>
<event>
 6    1  0.1274196E-001  0.3000000E+03  0.7818608E-02  0.1093470E+00
         21   -1    0    0  501  502  0.00000000000E+00  0.00000000000E+00  0.29616545055E+01  0.29616545055E+01  0.00000000000E+00 0. -1.
         13   -1    0    0    0    0 -0.00000000000E+00 -0.00000000000E+00 -0.10000000000E+04  0.10000000000E+04  0.00000000000E+00 0.  1.
    9000005    2    1    2  501    0 -0.41430738916E+02  0.55501516563E+01 -0.81656951093E+03  0.81771503359E+03  0.11171377366E+02 0.  0.
         13    1    3    3    0    0 -0.92179617695E+01  0.60887140604E+01 -0.20413974875E+03  0.20443845108E+03  0.00000000000E+00 0.  1.
          1    1    3    3  501    0 -0.32212777147E+02 -0.53856240413E+00 -0.61242976218E+03  0.61327658252E+03  0.00000000000E+00 0.  1.
         -1    1    1    2    0  502  0.41430738916E+02 -0.55501516563E+01 -0.18046883456E+03  0.18524662091E+03  0.00000000000E+00 0. -1.
<mgrwt>
<rscale>  1 0.30000000E+03</rscale>
<asrwt>0</asrwt>
<pdfrwt beam="1">  1       21 0.10769675E-01 0.30000000E+03</pdfrwt>
<pdfrwt beam="2">0</pdfrwt>
<totfact> 0.75331864E+03</totfact>
</mgrwt>
</event>
<event>
 6    1  0.1274196E-001  0.3000000E+03  0.7818608E-02  0.1093470E+00
         21   -1    0    0  501  502  0.00000000000E+00  0.00000000000E+00  0.14448741234E+01  0.14448741234E+01  0.00000000000E+00 0. -1.
         13   -1    0    0    0    0 -0.00000000000E+00 -0.00000000000E+00 -0.10000000000E+04  0.10000000000E+04  0.00000000000E+00 0.  1.
    9000005    2    1    2  501    0  0.16735906741E+02 -0.34049665902E+02 -0.49383421359E+03  0.49529996441E+03  0.32177502653E+01 0.  0.
         13    1    3    3    0    0  0.13604913982E+02 -0.27880988522E+02 -0.38652014633E+03  0.38776315803E+03  0.00000000000E+00 0.  1.
          3    1    3    3  501    0  0.31309927583E+01 -0.61686773805E+01 -0.10731406726E+03  0.10753680638E+03  0.00000000000E+00 0.  1.
         -1    1    1    2    0  502 -0.16735906741E+02  0.34049665902E+02 -0.50472091229E+03  0.50614490971E+03  0.00000000000E+00 0. -1.
<mgrwt>
<rscale>  1 0.30000000E+03</rscale>
<asrwt>0</asrwt>
<pdfrwt beam="1">  1       21 0.52540988E-02 0.30000000E+03</pdfrwt>
<pdfrwt beam="2">0</pdfrwt>
<totfact> 0.26467601E+04</totfact>
</mgrwt>
</event>
<event>
 6    1  0.1274196E-001  0.3000000E+03  0.7818608E-02  0.1093470E+00
         21   -1    0    0  501  502  0.00000000000E+00  0.00000000000E+00  0.20530698702E+01  0.20530698702E+01  0.00000000000E+00 0. -1.
         13   -1    0    0    0    0 -0.00000000000E+00 -0.00000000000E+00 -0.10000000000E+04  0.10000000000E+04  0.00000000000E+00 0.  1.
    9000005    2    1    2  501    0 -0.17240863683E+02 -0.31325361315E+02 -0.80536221229E+03  0.80617709078E+03  0.58892325383E+01 0.  0.
         13    1    3    3    0    0 -0.12061122238E+02 -0.24734369252E+02 -0.65992019326E+03  0.66049369503E+03  0.00000000000E+00 0.  1.
          1    1    3    3  501    0 -0.51797414445E+01 -0.65909920626E+01 -0.14544201903E+03  0.14568339575E+03  0.00000000000E+00 0.  1.
         -3    1    1    2    0  502  0.17240863683E+02  0.31325361315E+02 -0.19258471784E+03  0.19587597909E+03  0.00000000000E+00 0. -1.
<mgrwt>
<rscale>  1 0.30000000E+03</rscale>
<asrwt>0</asrwt>
<pdfrwt beam="1">  1       21 0.74657244E-02 0.30000000E+03</pdfrwt>
<pdfrwt beam="2">0</pdfrwt>
<totfact> 0.14419634E+04</totfact>
</mgrwt>
</event>
<event>
 6    1  0.1274196E-001  0.3000000E+03  0.7818608E-02  0.1093470E+00
         21   -1    0    0  501  502  0.00000000000E+00  0.00000000000E+00  0.15579856894E+01  0.15579856894E+01  0.00000000000E+00 0. -1.
         13   -1    0    0    0    0 -0.00000000000E+00 -0.00000000000E+00 -0.10000000000E+04  0.10000000000E+04  0.00000000000E+00 0.  1.
    9000005    2    1    2  501    0  0.34548340891E+02  0.10199894008E+02 -0.29685131662E+03  0.29904312266E+03  0.29084932665E+01 0.  0.
         13    1    3    3    0    0  0.21038378654E+02  0.74611068105E+01 -0.17726805720E+03  0.17866797585E+03  0.00000000000E+00 0.  1.
          3    1    3    3  501    0  0.13509962237E+02  0.27387871974E+01 -0.11958325942E+03  0.12037514681E+03  0.00000000000E+00 0.  1.
         -3    1    1    2    0  502 -0.34548340891E+02 -0.10199894008E+02 -0.70159069769E+03  0.70251486303E+03  0.00000000000E+00 0. -1.
<mgrwt>
<rscale>  1 0.30000000E+03</rscale>
<asrwt>0</asrwt>
<pdfrwt beam="1">  1       21 0.56654145E-02 0.30000000E+03</pdfrwt>
<pdfrwt beam="2">0</pdfrwt>
<totfact> 0.23260355E+04</totfact>
</mgrwt>
</event>
<event>
 6    1  0.1274196E-001  0.3000000E+03  0.7818608E-02  0.1093470E+00
         21   -1    0    0  501  502  0.00000000000E+00  0.00000000000E+00  0.27187422062E+01  0.27187422062E+01  0.00000000000E+00 0. -1.
         13   -1    0    0    0    0 -0.00000000000E+00 -0.00000000000E+00 -0.10000000000E+04  0.10000000000E+04  0.00000000000E+00 0.  1.
    9000005    2    1    2  501    0  0.31522117995E+02 -0.31098579231E+02 -0.76291644443E+03  0.76420746093E+03  0.32827741250E+01 0.  0.
         13    1    3    3    0    0  0.12239257896E+02 -0.14158019530E+02 -0.33302408071E+03  0.33354952748E+03  0.00000000000E+00 0.  1.
          1    1    3    3  501    0  0.19282860098E+02 -0.16940559702E+02 -0.42989236372E+03  0.43065793345E+03  0.00000000000E+00 0.  1.
         -1    1    1    2    0  502 -0.31522117995E+02  0.31098579231E+02 -0.23436481336E+03  0.23851128127E+03  0.00000000000E+00 0. -1.
<mgrwt>
<rscale>  1 0.30000000E+03</rscale>
<asrwt>0</asrwt>
<pdfrwt beam="1">  1       21 0.98863561E-02 0.30000000E+03</pdfrwt>
<pdfrwt beam="2">0</pdfrwt>
<totfact> 0.87806433E+03</totfact>
</mgrwt>
</event>
<event>
 6    1  0.1274196E-001  0.3000000E+03  0.7818608E-02  0.1093470E+00
         21   -1    0    0  501  502  0.00000000000E+00  0.00000000000E+00  0.30518782212E+01  0.30518782212E+01  0.00000000000E+00 0. -1.
         13   -1    0    0    0    0 -0.00000000000E+00 -0.00000000000E+00 -0.10000000000E+04  0.10000000000E+04  0.00000000000E+00 0.  1.
    9000005    2    1    2  501    0 -0.34101977687E+02  0.79241554536E+00 -0.89287228929E+03  0.89352858520E+03  0.29723382804E+01 0.  0.
         13    1    3    3    0    0 -0.33743915183E+01 -0.38038590409E-01 -0.11408837754E+03  0.11413827516E+03  0.00000000000E+00 0.  1.
          1    1    3    3  501    0 -0.30727586168E+02  0.83045413577E+00 -0.77878391174E+03  0.77939031005E+03  0.00000000000E+00 0.  1.
         -1    1    1    2    0  502  0.34101977687E+02 -0.79241554536E+00 -0.10407583249E+03  0.10952329302E+03  0.00000000000E+00 0. -1.
<mgrwt>
<rscale>  1 0.30000000E+03</rscale>
<asrwt>0</asrwt>
<pdfrwt beam="1">  1       21 0.11097762E-01 0.30000000E+03</pdfrwt>
<pdfrwt beam="2">0</pdfrwt>
<totfact> 0.71374474E+03</totfact>
</mgrwt>
</event>
<event>
 6    1  0.1274196E-001  0.3000000E+03  0.7818608E-02  0.1093470E+00
         21   -1    0    0  501  502  0.00000000000E+00  0.00000000000E+00  0.11460323289E+01  0.11460323289E+01  0.00000000000E+00 0. -1.
         13   -1    0    0    0    0 -0.00000000000E+00 -0.00000000000E+00 -0.10000000000E+04  0.10000000000E+04  0.00000000000E+00 0.  1.
    9000005    2    1    2  501    0 -0.31459091810E+02 -0.97901952052E+00 -0.67877950167E+03  0.67952778545E+03  0.50760595420E+01 0.  0.
         13    1    3    3    0    0 -0.29917773736E+02 -0.81825754688E+00 -0.61317023286E+03  0.61390021762E+03  0.00000000000E+00 0.  1.
          3    1    3    3  501    0 -0.15413180742E+01 -0.16076197364E+00 -0.65609268814E+02  0.65627567836E+02  0.00000000000E+00 0.  1.
         -1    1    1    2    0  502  0.31459091810E+02  0.97901952052E+00 -0.32007446600E+03  0.32161824687E+03  0.00000000000E+00 0. -1.
<mgrwt>
<rscale>  1 0.30000000E+03</rscale>
<asrwt>0</asrwt>
<pdfrwt beam="1">  1       21 0.41673991E-02 0.30000000E+03</pdfrwt>
<pdfrwt beam="2">0</pdfrwt>
<totfact> 0.39239287E+04</totfact>
</mgrwt>
</event>
<event>
 6    1  0.1274196E-001  0.3000000E+03  0.7818608E-02  0.1093470E+00
         21   -1    0    0  501  502  0.00000000000E+00  0.00000000000E+00  0.14864061552E+01  0.14864061552E+01  0.00000000000E+00 0. -1.
         13   -1    0    0    0    0 -0.00000000000E+00 -0.00000000000E+00 -0.10000000000E+04  0.10000000000E+04  0.00000000000E+00 0.  1.
    9000005    2    1    2  501    0  0.37481710129E+02  0.68232563024E+01 -0.54295728779E+03  0.54433983950E+03  0.71978523898E+01 0.  0.
         13    1    3    3    0    0  0.25083192916E+01 -0.70438658305E+00 -0.61568415953E+02  0.61623515553E+02  0.00000000000E+00 0.  1.
          1    1    3    3  501    0  0.34973390837E+02  0.75276428854E+01 -0.48138887184E+03  0.48271632394E+03  0.00000000000E+00 0.  1.
         -3    1    1    2    0  502 -0.37481710129E+02 -0.68232563024E+01 -0.45555630605E+03  0.45714656666E+03  0.00000000000E+00 0. -1.
<mgrwt>
<rscale>  1 0.30000000E+03</rscale>
<asrwt>0</asrwt>
<pdfrwt beam="1">  1       21 0.54051247E-02 0.30000000E+03</pdfrwt>
<pdfrwt beam="2">0</pdfrwt>
<totfact> 0.25214898E+04</totfact>
</mgrwt>
</event>
<event>
 6    1  0.1274196E-001  0.3000000E+03  0.7818608E-02  0.1093470E+00
         21   -1    0    0  501  502  0.00000000000E+00  0.00000000000E+00  0.38903092283E+01  0.38903092283E+01  0.00000000000E+00 0. -1.
         13   -1    0    0    0    0 -0.00000000000E+00 -0.00000000000E+00 -0.10000000000E+04  0.10000000000E+04  0.00000000000E+00 0.  1.
    9000005    2    1    2  501    0  0.91343645256E+01 -0.28884356895E+02 -0.93675783974E+03  0.93725409603E+03  0.34996460124E+01 0.  0.
         13    1    3    3    0    0  0.88473811908E+01 -0.23637337884E+02 -0.77121246265E+03  0.77162533813E+03  0.00000000000E+00 0.  1.
          3    1    3    3  501    0  0.28698333479E+00 -0.52470190117E+01 -0.16554537709E+03  0.16562875790E+03  0.00000000000E+00 0.  1.
         -1    1    1    2    0  502 -0.91343645256E+01  0.28884356895E+02 -0.59351851034E+02  0.66636213201E+02  0.00000000000E+00 0. -1.
<mgrwt>
<rscale>  1 0.30000000E+03</rscale>
<asrwt>0</asrwt>
<pdfrwt beam="1">  1       21 0.14146609E-01 0.30000000E+03</pdfrwt>
<pdfrwt beam="2">0</pdfrwt>
<totfact> 0.45879697E+03</totfact>
</mgrwt>
</event>
<event>
 6    1  0.1274196E-001  0.3000000E+03  0.7818608E-02  0.1093470E+00
         21   -1    0    0  501  502  0.00000000000E+00  0.00000000000E+00  0.98990366153E+00  0.98990366153E+00  0.00000000000E+00 0. -1.
         13   -1    0    0    0    0 -0.00000000000E+00 -0.00000000000E+00 -0.10000000000E+04  0.10000000000E+04  0.00000000000E+00 0.  1.
    9000005    2    1    2  501    0 -0.29055610566E+02  0.11806843321E+02 -0.51890645402E+03  0.51986295844E+03  0.31555468215E+01 0.  0.
         13    1    3    3    0    0 -0.13911602074E+02  0.47108750516E+01 -0.22113779758E+03  0.22162502235E+03  0.00000000000E+00 0.  1.
          1    1    3    3  501    0 -0.15144008492E+02  0.70959682689E+01 -0.29776865644E+03  0.29823793608E+03  0.00000000000E+00 0.  1.
         -3    1    1    2    0  502  0.29055610566E+02 -0.11806843321E+02 -0.48010364232E+03  0.48112694522E+03  0.00000000000E+00 0. -1.
<mgrwt>
<rscale>  1 0.30000000E+03</rscale>
<asrwt>0</asrwt>
<pdfrwt beam="1">  1       21 0.35996573E-02 0.30000000E+03</pdfrwt>
<pdfrwt beam="2">0</pdfrwt>
<totfact> 0.50198325E+04</totfact>
</mgrwt>
</event>
<event>
 6    1  0.1274196E-001  0.3000000E+03  0.7818608E-02  0.1093470E+00
         21   -1    0    0  501  502  0.00000000000E+00  0.00000000000E+00  0.25379432616E+01  0.25379432616E+01  0.00000000000E+00 0. -1.
         13   -1    0    0    0    0 -0.00000000000E+00 -0.00000000000E+00 -0.10000000000E+04  0.10000000000E+04  0.00000000000E+00 0.  1.
    9000005    2    1    2  501    0 -0.43946200128E+02  0.97810363683E+01 -0.72287674353E+03  0.72428620220E+03  0.35747967668E+01 0.  0.
         13    1    3    3    0    0 -0.61268657153E+01  0.19764740478E+01 -0.12220014617E+03  0.12236960676E+03  0.00000000000E+00 0.  1.
          1    1    3    3  501    0 -0.37819334413E+02  0.78045623205E+01 -0.60067659736E+03  0.60191659544E+03  0.00000000000E+00 0.  1.
         -1    1    1    2    0  502  0.43946200128E+02 -0.97810363683E+01 -0.27458531321E+03  0.27825174107E+03  0.00000000000E+00 0. -1.
<mgrwt>
<rscale>  1 0.30000000E+03</rscale>
<asrwt>0</asrwt>
<pdfrwt beam="1">  1       21 0.92289040E-02 0.30000000E+03</pdfrwt>
<pdfrwt beam="2">0</pdfrwt>
<totfact> 0.99259012E+03</totfact>
</mgrwt>
</event>
<event>
 6    1  0.1274196E-001  0.3000000E+03  0.7818608E-02  0.1093470E+00
         21   -1    0    0  501  502  0.00000000000E+00  0.00000000000E+00  0.21462147780E+01  0.21462147780E+01  0.00000000000E+00 0. -1.
         13   -1    0    0    0    0 -0.00000000000E+00 -0.00000000000E+00 -0.10000000000E+04  0.10000000000E+04  0.00000000000E+00 0.  1.
    9000005    2    1    2  501    0 -0.99230516517E+01 -0.42506469489E+02 -0.66569639374E+03  0.66713308128E+03  0.30971910280E+01 0.  0.
         13    1    3    3    0    0 -0.85526177611E+01 -0.33491582362E+02 -0.51028060478E+03  0.51145002589E+03  0.00000000000E+00 0.  1.
          3    1    3    3  501    0 -0.13704338907E+01 -0.90148871274E+01 -0.15541578896E+03  0.15568305539E+03  0.00000000000E+00 0.  1.
         -1    1    1    2    0  502  0.99230516517E+01  0.42506469489E+02 -0.33215739148E+03  0.33501313350E+03  0.00000000000E+00 0. -1.
<mgrwt>
<rscale>  1 0.30000000E+03</rscale>
<asrwt>0</asrwt>
<pdfrwt beam="1">  1       21 0.78044338E-02 0.30000000E+03</pdfrwt>
<pdfrwt beam="2">0</pdfrwt>
<totfact> 0.13341022E+04</totfact>
</mgrwt>
</event>
<event>
 6    1  0.1274196E-001  0.3000000E+03  0.7818608E-02  0.1093470E+00
         21   -1    0    0  501  502  0.00000000000E+00  0.00000000000E+00  0.18224311921E+01  0.18224311921E+01  0.00000000000E+00 0. -1.
         13   -1    0    0    0    0 -0.00000000000E+00 -0.00000000000E+00 -0.10000000000E+04  0.10000000000E+04  0.00000000000E+00 0.  1.
    9000005    2    1    2  501    0  0.41527235055E+02  0.96090403306E+01 -0.49116460471E+03  0.49302090735E+03  0.31782464125E+01 0.  0.
         13    1    3    3    0    0  0.41081852274E+02  0.96320174304E+01 -0.48126607687E+03  0.48311233796E+03  0.00000000000E+00 0.  1.
          1    1    3    3  501    0  0.44538278194E+00 -0.22977099845E-01 -0.98985278444E+01  0.99085693849E+01  0.00000000000E+00 0.  1.
         -1    1    1    2    0  502 -0.41527235055E+02 -0.96090403306E+01 -0.50701296410E+03  0.50880152385E+03  0.00000000000E+00 0. -1.
<mgrwt>
<rscale>  1 0.30000000E+03</rscale>
<asrwt>0</asrwt>
<pdfrwt beam="1">  1       21 0.66270365E-02 0.30000000E+03</pdfrwt>
<pdfrwt beam="2">0</pdfrwt>
<totfact> 0.17744939E+04</totfact>
</mgrwt>
</event>
<event>
 6    1  0.1274196E-001  0.3000000E+03  0.7818608E-02  0.1093470E+00
         21   -1    0    0  501  502  0.00000000000E+00  0.00000000000E+00  0.21972249942E+01  0.21972249942E+01  0.00000000000E+00 0. -1.
         13   -1    0    0    0    0 -0.00000000000E+00 -0.00000000000E+00 -0.10000000000E+04  0.10000000000E+04  0.00000000000E+00 0.  1.
    9000005    2    1    2  501    0 -0.15927895027E+02 -0.44006146480E+02 -0.51437313575E+03  0.51650755568E+03  0.31770308182E+01 0.  0.
         13    1    3    3    0    0 -0.13404367515E+02 -0.37815938467E+02 -0.42820543259E+03  0.43008093979E+03  0.00000000000E+00 0.  1.
          1    1    3    3  501    0 -0.25235275121E+01 -0.61902080128E+01 -0.86167703158E+02  0.86426615888E+02  0.00000000000E+00 0.  1.
         -1    1    1    2    0  502  0.15927895027E+02  0.44006146480E+02 -0.48342963926E+03  0.48568966932E+03  0.00000000000E+00 0. -1.
<mgrwt>
<rscale>  1 0.30000000E+03</rscale>
<asrwt>0</asrwt>
<pdfrwt beam="1">  1       21 0.79899259E-02 0.30000000E+03</pdfrwt>
<pdfrwt beam="2">0</pdfrwt>
<totfact> 0.12802171E+04</totfact>
</mgrwt>
</event>
<event>
 6    1  0.1274196E-001  0.3000000E+03  0.7818608E-02  0.1093470E+00
         21   -1    0    0  501  502  0.00000000000E+00  0.00000000000E+00  0.12841951641E+01  0.12841951641E+01  0.00000000000E+00 0. -1.
         13   -1    0    0    0    0 -0.00000000000E+00 -0.00000000000E+00 -0.10000000000E+04  0.10000000000E+04  0.00000000000E+00 0.  1.
    9000005    2    1    2  501    0  0.55601304740E+01  0.32432248745E+02 -0.69620295102E+03  0.69698698431E+03  0.30889285358E+01 0.  0.
         13    1    3    3    0    0  0.11001670508E+01  0.20807587025E+01 -0.56031561739E+02  0.56080975698E+02  0.00000000000E+00 0.  1.
          3    1    3    3  501    0  0.44599634232E+01  0.30351490043E+02 -0.64017138929E+03  0.64090600862E+03  0.00000000000E+00 0.  1.
         -3    1    1    2    0  502 -0.55601304740E+01 -0.32432248745E+02 -0.30251285381E+03  0.30429721085E+03  0.00000000000E+00 0. -1.
<mgrwt>
<rscale>  1 0.30000000E+03</rscale>
<asrwt>0</asrwt>
<pdfrwt beam="1">  1       21 0.46698104E-02 0.30000000E+03</pdfrwt>
<pdfrwt beam="2">0</pdfrwt>
<totfact> 0.32356869E+04</totfact>
</mgrwt>
</event>
<event>
 6    1  0.1274196E-001  0.3000000E+03  0.7818608E-02  0.1093470E+00
         21   -1    0    0  501  502  0.00000000000E+00  0.00000000000E+00  0.21889854145E+01  0.21889854145E+01  0.00000000000E+00 0. -1.
         13   -1    0    0    0    0 -0.00000000000E+00 -0.00000000000E+00 -0.10000000000E+04  0.10000000000E+04  0.00000000000E+00 0.  1.
    9000005    2    1    2  501    0 -0.30646948358E+01 -0.38146608752E+02 -0.78230566739E+03  0.78331205473E+03  0.10538583850E+02 0.  0.
         13    1    3    3    0    0 -0.59330278935E+01 -0.33625420542E+02 -0.64677955437E+03  0.64768021560E+03  0.00000000000E+00 0.  1.
          3    1    3    3  501    0  0.28683330577E+01 -0.45211882100E+01 -0.13552611302E+03  0.13563183914E+03  0.00000000000E+00 0.  1.
         -3    1    1    2    0  502  0.30646948358E+01  0.38146608752E+02 -0.21550534720E+03  0.21887693068E+03  0.00000000000E+00 0. -1.
<mgrwt>
<rscale>  1 0.30000000E+03</rscale>
<asrwt>0</asrwt>
<pdfrwt beam="1">  1       21 0.79599637E-02 0.30000000E+03</pdfrwt>
<pdfrwt beam="2">0</pdfrwt>
<totfact> 0.12886918E+04</totfact>
</mgrwt>
</event>
<event>
 6    1  0.1274196E-001  0.3000000E+03  0.7818608E-02  0.1093470E+00
         21   -1    0    0  501  502  0.00000000000E+00  0.00000000000E+00  0.16112860902E+01  0.16112860902E+01  0.00000000000E+00 0. -1.
         13   -1    0    0    0    0 -0.00000000000E+00 -0.00000000000E+00 -0.10000000000E+04  0.10000000000E+04  0.00000000000E+00 0.  1.
    9000005    2    1    2  501    0  0.23135713757E+02  0.29747264670E+02 -0.67025180328E+03  0.67131748790E+03  0.30868675774E+01 0.  0.
         13    1    3    3    0    0  0.52332427749E+01  0.69480927046E+01 -0.17889048294E+03  0.17910183614E+03  0.00000000000E+00 0.  1.
          1    1    3    3  501    0  0.17902470982E+02  0.22799171966E+02 -0.49136132034E+03  0.49221565176E+03  0.00000000000E+00 0.  1.
         -1    1    1    2    0  502 -0.23135713757E+02 -0.29747264670E+02 -0.32813691063E+03  0.33029379819E+03  0.00000000000E+00 0. -1.
<mgrwt>
<rscale>  1 0.30000000E+03</rscale>
<asrwt>0</asrwt>
<pdfrwt beam="1">  1       21 0.58592345E-02 0.30000000E+03</pdfrwt>
<pdfrwt beam="2">0</pdfrwt>
<totfact> 0.21951922E+04</totfact>
</mgrwt>
</event>
<event>
 6    1  0.1274196E-001  0.3000000E+03  0.7818608E-02  0.1093470E+00
         21   -1    0    0  501  502  0.00000000000E+00  0.00000000000E+00  0.20330995643E+01  0.20330995643E+01  0.00000000000E+00 0. -1.
         13   -1    0    0    0    0 -0.00000000000E+00 -0.00000000000E+00 -0.10000000000E+04  0.10000000000E+04  0.00000000000E+00 0.  1.
    9000005    2    1    2  501    0  0.70230516275E+01 -0.32486286159E+02 -0.16201482994E+03  0.16542055710E+03  0.32362861743E+01 0.  0.
         13    1    3    3    0    0  0.66365609064E+01 -0.30688098636E+02 -0.14864275937E+03  0.15192258967E+03  0.00000000000E+00 0.  1.
          1    1    3    3  501    0  0.38649072115E+00 -0.17981875236E+01 -0.13372070564E+02  0.13497967425E+02  0.00000000000E+00 0.  1.
         -3    1    1    2    0  502 -0.70230516275E+01  0.32486286159E+02 -0.83595207050E+03  0.83661254247E+03  0.00000000000E+00 0. -1.
<mgrwt>
<rscale>  1 0.30000000E+03</rscale>
<asrwt>0</asrwt>
<pdfrwt beam="1">  1       21 0.73931049E-02 0.30000000E+03</pdfrwt>
<pdfrwt beam="2">0</pdfrwt>
<totfact> 0.14668384E+04</totfact>
</mgrwt>
</event>
<event>
 6    1  0.1274196E-001  0.3000000E+03  0.7818608E-02  0.1093470E+00
         21   -1    0    0  501  502  0.00000000000E+00  0.00000000000E+00  0.10386063103E+02  0.10386063103E+02  0.00000000000E+00 0. -1.
         13   -1    0    0    0    0 -0.00000000000E+00 -0.00000000000E+00 -0.10000000000E+04  0.10000000000E+04  0.00000000000E+00 0.  1.
    9000005    2    1    2  501    0 -0.32498454871E+01  0.80328002661E+02 -0.80514612502E+03  0.80916100719E+03  0.42548114583E+01 0.  0.
         13    1    3    3    0    0 -0.14019277677E+01  0.54177272104E+02 -0.52390748048E+03  0.52670313300E+03  0.00000000000E+00 0.  1.
          3    1    3    3  501    0 -0.18479177195E+01  0.26150730557E+02 -0.28123864455E+03  0.28245787419E+03  0.00000000000E+00 0.  1.
         -3    1    1    2    0  502  0.32498454871E+01 -0.80328002661E+02 -0.18446781188E+03  0.20122505591E+03  0.00000000000E+00 0. -1.
<mgrwt>
<rscale>  1 0.30000000E+03</rscale>
<asrwt>0</asrwt>
<pdfrwt beam="1">  1       21 0.37767582E-01 0.30000000E+03</pdfrwt>
<pdfrwt beam="2">0</pdfrwt>
<totfact> 0.68054213E+02</totfact>
</mgrwt>
</event>
<event>
 6    1  0.1274196E-001  0.3000000E+03  0.7818608E-02  0.1093470E+00
         21   -1    0    0  501  502  0.00000000000E+00  0.00000000000E+00  0.32604155296E+01  0.32604155296E+01  0.00000000000E+00 0. -1.
         13   -1    0    0    0    0 -0.00000000000E+00 -0.00000000000E+00 -0.10000000000E+04  0.10000000000E+04  0.00000000000E+00 0.  1.
    9000005    2    1    2  501    0  0.47930422462E+02  0.17041602959E+02 -0.72219354277E+03  0.72404137850E+03  0.92012459114E+01 0.  0.
         13    1    3    3    0    0  0.24462920884E+02  0.10995703095E+02 -0.43570323953E+03  0.43652795205E+03  0.00000000000E+00 0.  1.
          3    1    3    3  501    0  0.23467501578E+02  0.60458998636E+01 -0.28649030324E+03  0.28751342645E+03  0.00000000000E+00 0.  1.
         -3    1    1    2    0  502 -0.47930422462E+02 -0.17041602959E+02 -0.27454604170E+03  0.27921903703E+03  0.00000000000E+00 0. -1.
<mgrwt>
<rscale>  1 0.30000000E+03</rscale>
<asrwt>0</asrwt>
<pdfrwt beam="1">  1       21 0.11856081E-01 0.30000000E+03</pdfrwt>
<pdfrwt beam="2">0</pdfrwt>
<totfact> 0.63342271E+03</totfact>
</mgrwt>
</event>
<event>
 6    1  0.1274196E-001  0.3000000E+03  0.7818608E-02  0.1093470E+00
         21   -1    0    0  501  502  0.00000000000E+00  0.00000000000E+00  0.33681011190E+01  0.33681011190E+01  0.00000000000E+00 0. -1.
         13   -1    0    0    0    0 -0.00000000000E+00 -0.00000000000E+00 -0.10000000000E+04  0.10000000000E+04  0.00000000000E+00 0.  1.
    9000005    2    1    2  501    0 -0.28966056470E+02  0.49154751402E+02 -0.56804313130E+03  0.57099840547E+03  0.10533661639E+02 0.  0.
         13    1    3    3    0    0 -0.25433269671E+01  0.63819803992E+01 -0.10746670966E+03  0.10768608021E+03  0.00000000000E+00 0.  1.
          1    1    3    3  501    0 -0.26422729503E+02  0.42772771002E+02 -0.46057642164E+03  0.46331232527E+03  0.00000000000E+00 0.  1.
         -3    1    1    2    0  502  0.28966056470E+02 -0.49154751402E+02 -0.42858876758E+03  0.43236969564E+03  0.00000000000E+00 0. -1.
<mgrwt>
<rscale>  1 0.30000000E+03</rscale>
<asrwt>0</asrwt>
<pdfrwt beam="1">  1       21 0.12247666E-01 0.30000000E+03</pdfrwt>
<pdfrwt beam="2">0</pdfrwt>
<totfact> 0.59712906E+03</totfact>
</mgrwt>
</event>
<event>
 6    1  0.1274196E-001  0.3000000E+03  0.7818608E-02  0.1093470E+00
         21   -1    0    0  501  502  0.00000000000E+00  0.00000000000E+00  0.10161801102E+01  0.10161801102E+01  0.00000000000E+00 0. -1.
         13   -1    0    0    0    0 -0.00000000000E+00 -0.00000000000E+00 -0.10000000000E+04  0.10000000000E+04  0.00000000000E+00 0.  1.
    9000005    2    1    2  501    0  0.21838186332E+02  0.22661094009E+02 -0.48112352876E+03  0.48220049733E+03  0.68584356878E+01 0.  0.
         13    1    3    3    0    0 -0.17411885023E+00  0.16924180972E+01 -0.35856380918E+02  0.35896721980E+02  0.00000000000E+00 0.  1.
          1    1    3    3  501    0  0.22012305182E+02  0.20968675912E+02 -0.44526714784E+03  0.44630377535E+03  0.00000000000E+00 0.  1.
         -3    1    1    2    0  502 -0.21838186332E+02 -0.22661094009E+02 -0.51786029113E+03  0.51881568278E+03  0.00000000000E+00 0. -1.
<mgrwt>
<rscale>  1 0.30000000E+03</rscale>
<asrwt>0</asrwt>
<pdfrwt beam="1">  1       21 0.36952082E-02 0.30000000E+03</pdfrwt>
<pdfrwt beam="2">0</pdfrwt>
<totfact> 0.48039816E+04</totfact>
</mgrwt>
</event>
<event>
 6    1  0.1274196E-001  0.3000000E+03  0.7818608E-02  0.1093470E+00
         21   -1    0    0  501  502  0.00000000000E+00  0.00000000000E+00  0.16515808209E+01  0.16515808209E+01  0.00000000000E+00 0. -1.
         13   -1    0    0    0    0 -0.00000000000E+00 -0.00000000000E+00 -0.10000000000E+04  0.10000000000E+04  0.00000000000E+00 0.  1.
    9000005    2    1    2  501    0 -0.35226044588E+01  0.33899955614E+02 -0.76956790838E+03  0.77034628937E+03  0.60847515187E+01 0.  0.
         13    1    3    3    0    0 -0.52430399400E+01  0.23333974300E+02 -0.52972665339E+03  0.53026624552E+03  0.00000000000E+00 0.  1.
          1    1    3    3  501    0  0.17204354813E+01  0.10565981315E+02 -0.23984125499E+03  0.24008004385E+03  0.00000000000E+00 0.  1.
         -3    1    1    2    0  502  0.35226044588E+01 -0.33899955614E+02 -0.22878051080E+03  0.23130529145E+03  0.00000000000E+00 0. -1.
<mgrwt>
<rscale>  1 0.30000000E+03</rscale>
<asrwt>0</asrwt>
<pdfrwt beam="1">  1       21 0.60057611E-02 0.30000000E+03</pdfrwt>
<pdfrwt beam="2">0</pdfrwt>
<totfact> 0.21036816E+04</totfact>
</mgrwt>
</event>
<event>
 6    1  0.1274196E-001  0.3000000E+03  0.7818608E-02  0.1093470E+00
         21   -1    0    0  501  502  0.00000000000E+00  0.00000000000E+00  0.12630753097E+02  0.12630753097E+02  0.00000000000E+00 0. -1.
         13   -1    0    0    0    0 -0.00000000000E+00 -0.00000000000E+00 -0.10000000000E+04  0.10000000000E+04  0.00000000000E+00 0.  1.
    9000005    2    1    2  501    0 -0.85765551814E+02 -0.24961081791E+02 -0.80073862573E+03  0.80572552300E+03  0.56996660572E+01 0.  0.
         13    1    3    3    0    0 -0.33285607141E+01 -0.13017246980E+01 -0.23673209671E+02  0.23941484076E+02  0.00000000000E+00 0.  1.
          3    1    3    3  501    0 -0.82436991100E+02 -0.23659357093E+02 -0.77706541606E+03  0.78178403893E+03  0.00000000000E+00 0.  1.
         -3    1    1    2    0  502  0.85765551814E+02  0.24961081791E+02 -0.18663062117E+03  0.20690523009E+03  0.00000000000E+00 0. -1.
<mgrwt>
<rscale>  1 0.30000000E+03</rscale>
<asrwt>0</asrwt>
<pdfrwt beam="1">  1       21 0.45930108E-01 0.30000000E+03</pdfrwt>
<pdfrwt beam="2">0</pdfrwt>
<totfact> 0.45098995E+02</totfact>
</mgrwt>
</event>
<event>
 6    1  0.1274196E-001  0.3000000E+03  0.7818608E-02  0.1093470E+00
         21   -1    0    0  501  502  0.00000000000E+00  0.00000000000E+00  0.15687158208E+01  0.15687158208E+01  0.00000000000E+00 0. -1.
         13   -1    0    0    0    0 -0.00000000000E+00 -0.00000000000E+00 -0.10000000000E+04  0.10000000000E+04  0.00000000000E+00 0.  1.
    9000005    2    1    2  501    0  0.21496024178E+02 -0.31370430769E+02 -0.63644615532E+03  0.63759149607E+03  0.36089136143E+01 0.  0.
         13    1    3    3    0    0  0.92707027961E+01 -0.11000143218E+02 -0.22345223542E+03  0.22391482888E+03  0.00000000000E+00 0.  1.
          3    1    3    3  501    0  0.12225321382E+02 -0.20370287551E+02 -0.41299391990E+03  0.41367666719E+03  0.00000000000E+00 0.  1.
         -1    1    1    2    0  502 -0.21496024178E+02  0.31370430769E+02 -0.36198512886E+03  0.36397721975E+03  0.00000000000E+00 0. -1.
<mgrwt>
<rscale>  1 0.30000000E+03</rscale>
<asrwt>0</asrwt>
<pdfrwt beam="1">  1       21 0.57044332E-02 0.30000000E+03</pdfrwt>
<pdfrwt beam="2">0</pdfrwt>
<totfact> 0.22987508E+04</totfact>
</mgrwt>
</event>
<event>
 6    1  0.1274196E-001  0.3000000E+03  0.7818608E-02  0.1093470E+00
         21   -1    0    0  501  502  0.00000000000E+00  0.00000000000E+00  0.40911493805E+01  0.40911493805E+01  0.00000000000E+00 0. -1.
         13   -1    0    0    0    0 -0.00000000000E+00 -0.00000000000E+00 -0.10000000000E+04  0.10000000000E+04  0.00000000000E+00 0.  1.
    9000005    2    1    2  501    0  0.44917146344E+02 -0.13134458951E+02 -0.83997151961E+03  0.84128293322E+03  0.38413435874E+01 0.  0.
         13    1    3    3    0    0  0.30524377063E+02 -0.10733256119E+02 -0.58574714898E+03  0.58664014772E+03  0.00000000000E+00 0.  1.
          3    1    3    3  501    0  0.14392769281E+02 -0.24012028317E+01 -0.25422437063E+03  0.25464278550E+03  0.00000000000E+00 0.  1.
         -1    1    1    2    0  502 -0.44917146344E+02  0.13134458951E+02 -0.15593733101E+03  0.16280821616E+03  0.00000000000E+00 0. -1.
<mgrwt>
<rscale>  1 0.30000000E+03</rscale>
<asrwt>0</asrwt>
<pdfrwt beam="1">  1       21 0.14876938E-01 0.30000000E+03</pdfrwt>
<pdfrwt beam="2">0</pdfrwt>
<totfact> 0.41812760E+03</totfact>
</mgrwt>
</event>
<event>
 6    1  0.1274196E-001  0.3000000E+03  0.7818608E-02  0.1093470E+00
         21   -1    0    0  501  502  0.00000000000E+00  0.00000000000E+00  0.66856896114E+01  0.66856896114E+01  0.00000000000E+00 0. -1.
         13   -1    0    0    0    0 -0.00000000000E+00 -0.00000000000E+00 -0.10000000000E+04  0.10000000000E+04  0.00000000000E+00 0.  1.
    9000005    2    1    2  501    0 -0.49457304738E+02  0.10036330082E+02 -0.89252068853E+03  0.89396432021E+03  0.56809710890E+01 0.  0.
         13    1    3    3    0    0 -0.59180359592E+01 -0.60358655313E+00 -0.97812836934E+02  0.97993563745E+02  0.00000000000E+00 0.  1.
          3    1    3    3  501    0 -0.43539268779E+02  0.10639916635E+02 -0.79470785160E+03  0.79597075646E+03  0.00000000000E+00 0.  1.
         -3    1    1    2    0  502  0.49457304738E+02 -0.10036330082E+02 -0.10079362186E+03  0.11272136941E+03  0.00000000000E+00 0. -1.
<mgrwt>
<rscale>  1 0.30000000E+03</rscale>
<asrwt>0</asrwt>
<pdfrwt beam="1">  1       21 0.24311650E-01 0.30000000E+03</pdfrwt>
<pdfrwt beam="2">0</pdfrwt>
<totfact> 0.16470053E+03</totfact>
</mgrwt>
</event>
<event>
 6    1  0.1274196E-001  0.3000000E+03  0.7818608E-02  0.1093470E+00
         21   -1    0    0  501  502  0.00000000000E+00  0.00000000000E+00  0.16980147671E+01  0.16980147671E+01  0.00000000000E+00 0. -1.
         13   -1    0    0    0    0 -0.00000000000E+00 -0.00000000000E+00 -0.10000000000E+04  0.10000000000E+04  0.00000000000E+00 0.  1.
    9000005    2    1    2  501    0  0.37512348995E+02 -0.47941291364E+01 -0.30263035427E+03  0.30499924333E+03  0.30409048701E+01 0.  0.
         13    1    3    3    0    0  0.31321231316E+02 -0.46583501106E+01 -0.24530468258E+03  0.24734006358E+03  0.00000000000E+00 0.  1.
          1    1    3    3  501    0  0.61911176795E+01 -0.13577902585E+00 -0.57325671692E+02  0.57659179746E+02  0.00000000000E+00 0.  1.
         -3    1    1    2    0  502 -0.37512348995E+02  0.47941291364E+01 -0.69567163096E+03  0.69669877144E+03  0.00000000000E+00 0. -1.
<mgrwt>
<rscale>  1 0.30000000E+03</rscale>
<asrwt>0</asrwt>
<pdfrwt beam="1">  1       21 0.61746122E-02 0.30000000E+03</pdfrwt>
<pdfrwt beam="2">0</pdfrwt>
<totfact> 0.20053939E+04</totfact>
</mgrwt>
</event>
<event>
 6    1  0.1274196E-001  0.3000000E+03  0.7818608E-02  0.1093470E+00
         21   -1    0    0  501  502  0.00000000000E+00  0.00000000000E+00  0.12594845875E+01  0.12594845875E+01  0.00000000000E+00 0. -1.
         13   -1    0    0    0    0 -0.00000000000E+00 -0.00000000000E+00 -0.10000000000E+04  0.10000000000E+04  0.00000000000E+00 0.  1.
    9000005    2    1    2  501    0  0.32602071522E+02 -0.29487013628E+01 -0.67964587948E+03  0.68049013352E+03  0.87584478209E+01 0.  0.
         13    1    3    3    0    0  0.92579149381E+01 -0.32997582985E+01 -0.14350926352E+03  0.14384542436E+03  0.00000000000E+00 0.  1.
          3    1    3    3  501    0  0.23344156584E+02  0.35105693577E+00 -0.53613661596E+03  0.53664470915E+03  0.00000000000E+00 0.  1.
         -3    1    1    2    0  502 -0.32602071522E+02  0.29487013628E+01 -0.31909463593E+03  0.32076935107E+03  0.00000000000E+00 0. -1.
<mgrwt>
<rscale>  1 0.30000000E+03</rscale>
<asrwt>0</asrwt>
<pdfrwt beam="1">  1       21 0.45799536E-02 0.30000000E+03</pdfrwt>
<pdfrwt beam="2">0</pdfrwt>
<totfact> 0.33442999E+04</totfact>
</mgrwt>
</event>
<event>
 6    1  0.1274196E-001  0.3000000E+03  0.7818608E-02  0.1093470E+00
         21   -1    0    0  501  502  0.00000000000E+00  0.00000000000E+00  0.10207047942E+01  0.10207047942E+01  0.00000000000E+00 0. -1.
         13   -1    0    0    0    0 -0.00000000000E+00 -0.00000000000E+00 -0.10000000000E+04  0.10000000000E+04  0.00000000000E+00 0.  1.
    9000005    2    1    2  501    0 -0.18372066150E+02 -0.24773639610E+02 -0.62525958563E+03  0.62603045511E+03  0.36490089810E+01 0.  0.
         13    1    3    3    0    0 -0.45252008440E+01 -0.88869328965E+01 -0.19322284569E+03  0.19348003286E+03  0.00000000000E+00 0.  1.
          1    1    3    3  501    0 -0.13846865306E+02 -0.15886706713E+02 -0.43203673994E+03  0.43255042225E+03  0.00000000000E+00 0.  1.
         -3    1    1    2    0  502  0.18372066150E+02  0.24773639610E+02 -0.37371970957E+03  0.37499024968E+03  0.00000000000E+00 0. -1.
<mgrwt>
<rscale>  1 0.30000000E+03</rscale>
<asrwt>0</asrwt>
<pdfrwt beam="1">  1       21 0.37116616E-02 0.30000000E+03</pdfrwt>
<pdfrwt beam="2">0</pdfrwt>
<totfact> 0.47682905E+04</totfact>
</mgrwt>
</event>
<event>
 6    1  0.1274196E-001  0.3000000E+03  0.7818608E-02  0.1093470E+00
         21   -1    0    0  501  502  0.00000000000E+00  0.00000000000E+00  0.26705160363E+01  0.26705160363E+01  0.00000000000E+00 0. -1.
         13   -1    0    0    0    0 -0.00000000000E+00 -0.00000000000E+00 -0.10000000000E+04  0.10000000000E+04  0.00000000000E+00 0.  1.
    9000005    2    1    2  501    0 -0.36728956427E+02 -0.77659668293E+01 -0.84291588653E+03  0.84375895084E+03  0.35565257499E+01 0.  0.
         13    1    3    3    0    0 -0.33461843369E+00 -0.49013567618E+00 -0.14103844441E+02  0.14116324964E+02  0.00000000000E+00 0.  1.
          3    1    3    3  501    0 -0.36394337994E+02 -0.72758311531E+01 -0.82881204209E+03  0.82964262587E+03  0.00000000000E+00 0.  1.
         -3    1    1    2    0  502  0.36728956427E+02  0.77659668293E+01 -0.15441359743E+03  0.15891156520E+03  0.00000000000E+00 0. -1.
<mgrwt>
<rscale>  1 0.30000000E+03</rscale>
<asrwt>0</asrwt>
<pdfrwt beam="1">  1       21 0.97109879E-02 0.30000000E+03</pdfrwt>
<pdfrwt beam="2">0</pdfrwt>
<totfact> 0.90656512E+03</totfact>
</mgrwt>
</event>
<event>
 6    1  0.1274196E-001  0.3000000E+03  0.7818608E-02  0.1093470E+00
         21   -1    0    0  501  502  0.00000000000E+00  0.00000000000E+00  0.16322751423E+01  0.16322751423E+01  0.00000000000E+00 0. -1.
         13   -1    0    0    0    0 -0.00000000000E+00 -0.00000000000E+00 -0.10000000000E+04  0.10000000000E+04  0.00000000000E+00 0.  1.
    9000005    2    1    2  501    0 -0.31869077361E+02 -0.22490154753E+02 -0.62678095049E+03  0.62800388216E+03  0.36153791612E+01 0.  0.
         13    1    3    3    0    0 -0.30050198881E+02 -0.21853956163E+02 -0.58531956251E+03  0.58649774093E+03  0.00000000000E+00 0.  1.
          3    1    3    3  501    0 -0.18188784799E+01 -0.63619859012E+00 -0.41461387973E+02  0.41506141235E+02  0.00000000000E+00 0.  1.
         -3    1    1    2    0  502  0.31869077361E+02  0.22490154753E+02 -0.37158677437E+03  0.37362839298E+03  0.00000000000E+00 0. -1.
<mgrwt>
<rscale>  1 0.30000000E+03</rscale>
<asrwt>0</asrwt>
<pdfrwt beam="1">  1       21 0.59355585E-02 0.30000000E+03</pdfrwt>
<pdfrwt beam="2">0</pdfrwt>
<totfact> 0.21467682E+04</totfact>
</mgrwt>
</event>
<event>
 6    1  0.1274196E-001  0.3000000E+03  0.7818608E-02  0.1093470E+00
         21   -1    0    0  501  502  0.00000000000E+00  0.00000000000E+00  0.20603477408E+01  0.20603477408E+01  0.00000000000E+00 0. -1.
         13   -1    0    0    0    0 -0.00000000000E+00 -0.00000000000E+00 -0.10000000000E+04  0.10000000000E+04  0.00000000000E+00 0.  1.
    9000005    2    1    2  501    0  0.18218936817E+02 -0.36435084453E+02 -0.71905657396E+03  0.72021780943E+03  0.34483955844E+01 0.  0.
         13    1    3    3    0    0  0.29632812973E+01 -0.38771258603E+01 -0.97801448085E+02  0.97923114679E+02  0.00000000000E+00 0.  1.
          3    1    3    3  501    0  0.15255655520E+02 -0.32557958593E+02 -0.62125512587E+03  0.62229469475E+03  0.00000000000E+00 0.  1.
         -3    1    1    2    0  502 -0.18218936817E+02  0.36435084453E+02 -0.27888307830E+03  0.28184253831E+03  0.00000000000E+00 0. -1.
<mgrwt>
<rscale>  1 0.30000000E+03</rscale>
<asrwt>0</asrwt>
<pdfrwt beam="1">  1       21 0.74921894E-02 0.30000000E+03</pdfrwt>
<pdfrwt beam="2">0</pdfrwt>
<totfact> 0.14330582E+04</totfact>
</mgrwt>
</event>
<event>
 6    1  0.1274196E-001  0.3000000E+03  0.7818608E-02  0.1093470E+00
         21   -1    0    0  501  502  0.00000000000E+00  0.00000000000E+00  0.15352957236E+01  0.15352957236E+01  0.00000000000E+00 0. -1.
         13   -1    0    0    0    0 -0.00000000000E+00 -0.00000000000E+00 -0.10000000000E+04  0.10000000000E+04  0.00000000000E+00 0.  1.
    9000005    2    1    2  501    0 -0.35443820447E+02  0.51405801238E+01 -0.70084147221E+03  0.70176491987E+03  0.35416977752E+01 0.  0.
         13    1    3    3    0    0 -0.35120983347E+02  0.52544241926E+01 -0.69802088756E+03  0.69892363811E+03  0.00000000000E+00 0.  1.
          1    1    3    3  501    0 -0.32283709994E+00 -0.11384406879E+00 -0.28205846483E+01  0.28412817571E+01  0.00000000000E+00 0.  1.
         -3    1    1    2    0  502  0.35443820447E+02 -0.51405801238E+01 -0.29762323207E+03  0.29977037585E+03  0.00000000000E+00 0. -1.
<mgrwt>
<rscale>  1 0.30000000E+03</rscale>
<asrwt>0</asrwt>
<pdfrwt beam="1">  1       21 0.55829053E-02 0.30000000E+03</pdfrwt>
<pdfrwt beam="2">0</pdfrwt>
<totfact> 0.23853939E+04</totfact>
</mgrwt>
</event>
<event>
 6    1  0.1274196E-001  0.3000000E+03  0.7818608E-02  0.1093470E+00
         21   -1    0    0  501  502  0.00000000000E+00  0.00000000000E+00  0.12314227289E+01  0.12314227289E+01  0.00000000000E+00 0. -1.
         13   -1    0    0    0    0 -0.00000000000E+00 -0.00000000000E+00 -0.10000000000E+04  0.10000000000E+04  0.00000000000E+00 0.  1.
    9000005    2    1    2  501    0  0.29535032526E+02  0.13828601893E+02 -0.31806649837E+03  0.31974857731E+03  0.30507263715E+01 0.  0.
         13    1    3    3    0    0  0.19781352050E+02  0.76821544768E+01 -0.20341690848E+03  0.20452079611E+03  0.00000000000E+00 0.  1.
          3    1    3    3  501    0  0.97536804754E+01  0.61464474162E+01 -0.11464958989E+03  0.11522778120E+03  0.00000000000E+00 0.  1.
         -1    1    1    2    0  502 -0.29535032526E+02 -0.13828601893E+02 -0.68070207890E+03  0.68148284542E+03  0.00000000000E+00 0. -1.
<mgrwt>
<rscale>  1 0.30000000E+03</rscale>
<asrwt>0</asrwt>
<pdfrwt beam="1">  1       21 0.44779103E-02 0.30000000E+03</pdfrwt>
<pdfrwt beam="2">0</pdfrwt>
<totfact> 0.34747073E+04</totfact>
</mgrwt>
</event>
<event>
 6    1  0.1274196E-001  0.3000000E+03  0.7818608E-02  0.1093470E+00
         21   -1    0    0  501  502  0.00000000000E+00  0.00000000000E+00  0.20946358315E+01  0.20946358315E+01  0.00000000000E+00 0. -1.
         13   -1    0    0    0    0 -0.00000000000E+00 -0.00000000000E+00 -0.10000000000E+04  0.10000000000E+04  0.00000000000E+00 0.  1.
    9000005    2    1    2  501    0 -0.13767909206E+02 -0.31080105016E+02 -0.83417238679E+03  0.83487018746E+03  0.30217173799E+01 0.  0.
         13    1    3    3    0    0 -0.47326798120E+01 -0.11015213962E+02 -0.25996605060E+03  0.26024234987E+03  0.00000000000E+00 0.  1.
          3    1    3    3  501    0 -0.90352293941E+01 -0.20064891054E+02 -0.57420633618E+03  0.57462783759E+03  0.00000000000E+00 0.  1.
         -1    1    1    2    0  502  0.13767909206E+02  0.31080105016E+02 -0.16373297738E+03  0.16722444837E+03  0.00000000000E+00 0. -1.
<mgrwt>
<rscale>  1 0.30000000E+03</rscale>
<asrwt>0</asrwt>
<pdfrwt beam="1">  1       21 0.76168736E-02 0.30000000E+03</pdfrwt>
<pdfrwt beam="2">0</pdfrwt>
<totfact> 0.13922258E+04</totfact>
</mgrwt>
</event>
<event>
 6    1  0.1274196E-001  0.3000000E+03  0.7818608E-02  0.1093470E+00
         21   -1    0    0  501  502  0.00000000000E+00  0.00000000000E+00  0.38836531049E+01  0.38836531049E+01  0.00000000000E+00 0. -1.
         13   -1    0    0    0    0 -0.00000000000E+00 -0.00000000000E+00 -0.10000000000E+04  0.10000000000E+04  0.00000000000E+00 0.  1.
    9000005    2    1    2  501    0  0.29556329292E+02  0.85852965463E+01 -0.93446892059E+03  0.93498017650E+03  0.29125561556E+01 0.  0.
         13    1    3    3    0    0  0.19392779726E+02  0.41858174131E+01 -0.60365927379E+03  0.60398519833E+03  0.00000000000E+00 0.  1.
          1    1    3    3  501    0  0.10163549567E+02  0.43994791332E+01 -0.33080964681E+03  0.33099497817E+03  0.00000000000E+00 0.  1.
         -1    1    1    2    0  502 -0.29556329292E+02 -0.85852965463E+01 -0.61647426303E+02  0.68903476601E+02  0.00000000000E+00 0. -1.
<mgrwt>
<rscale>  1 0.30000000E+03</rscale>
<asrwt>0</asrwt>
<pdfrwt beam="1">  1       21 0.14122405E-01 0.30000000E+03</pdfrwt>
<pdfrwt beam="2">0</pdfrwt>
<totfact> 0.46024408E+03</totfact>
</mgrwt>
</event>
<event>
 6    1  0.1274196E-001  0.3000000E+03  0.7818608E-02  0.1093470E+00
         21   -1    0    0  501  502  0.00000000000E+00  0.00000000000E+00  0.11515307653E+01  0.11515307653E+01  0.00000000000E+00 0. -1.
         13   -1    0    0    0    0 -0.00000000000E+00 -0.00000000000E+00 -0.10000000000E+04  0.10000000000E+04  0.00000000000E+00 0.  1.
    9000005    2    1    2  501    0 -0.32150796677E+02 -0.10287409425E+02 -0.45911194552E+03  0.46036042548E+03  0.29048774660E+01 0.  0.
         13    1    3    3    0    0 -0.19296388271E+02 -0.69778252266E+01 -0.29475195162E+03  0.29546531713E+03  0.00000000000E+00 0.  1.
          1    1    3    3  501    0 -0.12854408407E+02 -0.33095841987E+01 -0.16435999390E+03  0.16489510835E+03  0.00000000000E+00 0.  1.
         -3    1    1    2    0  502  0.32150796677E+02  0.10287409425E+02 -0.53973652371E+03  0.54079110528E+03  0.00000000000E+00 0. -1.
<mgrwt>
<rscale>  1 0.30000000E+03</rscale>
<asrwt>0</asrwt>
<pdfrwt beam="1">  1       21 0.41873934E-02 0.30000000E+03</pdfrwt>
<pdfrwt beam="2">0</pdfrwt>
<totfact> 0.38923522E+04</totfact>
</mgrwt>
</event>
<event>
 6    1  0.1274196E-001  0.3000000E+03  0.7818608E-02  0.1093470E+00
         21   -1    0    0  501  502  0.00000000000E+00  0.00000000000E+00  0.16628248361E+01  0.16628248361E+01  0.00000000000E+00 0. -1.
         13   -1    0    0    0    0 -0.00000000000E+00 -0.00000000000E+00 -0.10000000000E+04  0.10000000000E+04  0.00000000000E+00 0.  1.
    9000005    2    1    2  501    0 -0.34674292594E+02  0.10938350738E+02 -0.72434642929E+03  0.72527020028E+03  0.41424276968E+01 0.  0.
         13    1    3    3    0    0 -0.80545345795E+01  0.31583266596E+01 -0.20741357225E+03  0.20759393177E+03  0.00000000000E+00 0.  1.
          3    1    3    3  501    0 -0.26619758014E+02  0.77800240788E+01 -0.51693285704E+03  0.51767626851E+03  0.00000000000E+00 0.  1.
         -1    1    1    2    0  502  0.34674292594E+02 -0.10938350738E+02 -0.27399074587E+03  0.27639262455E+03  0.00000000000E+00 0. -1.
<mgrwt>
<rscale>  1 0.30000000E+03</rscale>
<asrwt>0</asrwt>
<pdfrwt beam="1">  1       21 0.60466485E-02 0.30000000E+03</pdfrwt>
<pdfrwt beam="2">0</pdfrwt>
<totfact> 0.20792043E+04</totfact>
</mgrwt>
</event>
<event>
 6    1  0.1274196E-001  0.3000000E+03  0.7818608E-02  0.1093470E+00
         21   -1    0    0  501  502  0.00000000000E+00  0.00000000000E+00  0.16841141018E+01  0.16841141018E+01  0.00000000000E+00 0. -1.
         13   -1    0    0    0    0 -0.00000000000E+00 -0.00000000000E+00 -0.10000000000E+04  0.10000000000E+04  0.00000000000E+00 0.  1.
    9000005    2    1    2  501    0  0.21990967459E+02 -0.22931689909E+02 -0.18405571981E+03  0.18680431736E+03  0.31432371121E+01 0.  0.
         13    1    3    3    0    0  0.14717184620E+01 -0.65549257693E+00 -0.76805377472E+01  0.78476930264E+01  0.00000000000E+00 0.  1.
          1    1    3    3  501    0  0.20519248997E+02 -0.22276197332E+02 -0.17637518206E+03  0.17895662434E+03  0.00000000000E+00 0.  1.
         -1    1    1    2    0  502 -0.21990967459E+02  0.22931689909E+02 -0.81426016609E+03  0.81487979674E+03  0.00000000000E+00 0. -1.
<mgrwt>
<rscale>  1 0.30000000E+03</rscale>
<asrwt>0</asrwt>
<pdfrwt beam="1">  1       21 0.61240642E-02 0.30000000E+03</pdfrwt>
<pdfrwt beam="2">0</pdfrwt>
<totfact> 0.20340563E+04</totfact>
</mgrwt>
</event>
<event>
 6    1  0.1274196E-001  0.3000000E+03  0.7818608E-02  0.1093470E+00
         21   -1    0    0  501  502  0.00000000000E+00  0.00000000000E+00  0.19198436949E+01  0.19198436949E+01  0.00000000000E+00 0. -1.
         13   -1    0    0    0    0 -0.00000000000E+00 -0.00000000000E+00 -0.10000000000E+04  0.10000000000E+04  0.00000000000E+00 0.  1.
    9000005    2    1    2  501    0  0.40781798062E+02  0.84343771752E+01 -0.65370541506E+03  0.65503620877E+03  0.27150227699E+01 0.  0.
         13    1    3    3    0    0  0.72353993140E+01  0.24005698185E+01 -0.11091413398E+03  0.11117580157E+03  0.00000000000E+00 0.  1.
          3    1    3    3  501    0  0.33546398748E+02  0.60338073567E+01 -0.54279128108E+03  0.54386040720E+03  0.00000000000E+00 0.  1.
         -1    1    1    2    0  502 -0.40781798062E+02 -0.84343771752E+01 -0.34437474125E+03  0.34688363493E+03  0.00000000000E+00 0. -1.
<mgrwt>
<rscale>  1 0.30000000E+03</rscale>
<asrwt>0</asrwt>
<pdfrwt beam="1">  1       21 0.69812645E-02 0.30000000E+03</pdfrwt>
<pdfrwt beam="2">0</pdfrwt>
<totfact> 0.16210713E+04</totfact>
</mgrwt>
</event>
<event>
 6    1  0.1274196E-001  0.3000000E+03  0.7818608E-02  0.1093470E+00
         21   -1    0    0  501  502  0.00000000000E+00  0.00000000000E+00  0.18417169746E+01  0.18417169746E+01  0.00000000000E+00 0. -1.
         13   -1    0    0    0    0 -0.00000000000E+00 -0.00000000000E+00 -0.10000000000E+04  0.10000000000E+04  0.00000000000E+00 0.  1.
    9000005    2    1    2  501    0 -0.35997518524E+02 -0.23244559078E+02 -0.51652502141E+03  0.51830606208E+03  0.26354074700E+01 0.  0.
         13    1    3    3    0    0 -0.34724596438E+02 -0.22953155291E+02 -0.50056799493E+03  0.50229569228E+03  0.00000000000E+00 0.  1.
          3    1    3    3  501    0 -0.12729220857E+01 -0.29140378702E+00 -0.15957026481E+02  0.16010369793E+02  0.00000000000E+00 0.  1.
         -3    1    1    2    0  502  0.35997518524E+02  0.23244559078E+02 -0.48163326161E+03  0.48353565490E+03  0.00000000000E+00 0. -1.
<mgrwt>
<rscale>  1 0.30000000E+03</rscale>
<asrwt>0</asrwt>
<pdfrwt beam="1">  1       21 0.66971668E-02 0.30000000E+03</pdfrwt>
<pdfrwt beam="2">0</pdfrwt>
<totfact> 0.17423960E+04</totfact>
</mgrwt>
</event>
<event>
 6    1  0.1274196E-001  0.3000000E+03  0.7818608E-02  0.1093470E+00
         21   -1    0    0  501  502  0.00000000000E+00  0.00000000000E+00  0.19517392306E+01  0.19517392306E+01  0.00000000000E+00 0. -1.
         13   -1    0    0    0    0 -0.00000000000E+00 -0.00000000000E+00 -0.10000000000E+04  0.10000000000E+04  0.00000000000E+00 0.  1.
    9000005    2    1    2  501    0  0.10896915000E+01 -0.39309171661E+02 -0.72424551383E+03  0.72533947877E+03  0.62766837135E+01 0.  0.
         13    1    3    3    0    0  0.28438549018E+00 -0.12621219108E+01 -0.53215170747E+02  0.53230895394E+02  0.00000000000E+00 0.  1.
          1    1    3    3  501    0  0.80530600983E+00 -0.38047049751E+02 -0.67103034308E+03  0.67210858338E+03  0.00000000000E+00 0.  1.
         -1    1    1    2    0  502 -0.10896915000E+01  0.39309171661E+02 -0.27380274694E+03  0.27661226046E+03  0.00000000000E+00 0. -1.
<mgrwt>
<rscale>  1 0.30000000E+03</rscale>
<asrwt>0</asrwt>
<pdfrwt beam="1">  1       21 0.70972485E-02 0.30000000E+03</pdfrwt>
<pdfrwt beam="2">0</pdfrwt>
<totfact> 0.15752255E+04</totfact>
</mgrwt>
</event>
<event>
 6    1  0.1274196E-001  0.3000000E+03  0.7818608E-02  0.1093470E+00
         21   -1    0    0  501  502  0.00000000000E+00  0.00000000000E+00  0.22955764924E+01  0.22955764924E+01  0.00000000000E+00 0. -1.
         13   -1    0    0    0    0 -0.00000000000E+00 -0.00000000000E+00 -0.10000000000E+04  0.10000000000E+04  0.00000000000E+00 0.  1.
    9000005    2    1    2  501    0  0.90367874102E+01 -0.43253496627E+02 -0.69230290284E+03  0.69371395468E+03  0.17925215203E+01 0.  0.
         13    1    3    3    0    0  0.43567735197E+01 -0.23892342787E+02 -0.37028960993E+03  0.37108519337E+03  0.00000000000E+00 0.  1.
          3    1    3    3  501    0  0.46800138905E+01 -0.19361153840E+02 -0.32201329292E+03  0.32262876131E+03  0.00000000000E+00 0.  1.
         -3    1    1    2    0  502 -0.90367874102E+01  0.43253496627E+02 -0.30540152066E+03  0.30858162181E+03  0.00000000000E+00 0. -1.
<mgrwt>
<rscale>  1 0.30000000E+03</rscale>
<asrwt>0</asrwt>
<pdfrwt beam="1">  1       21 0.83475685E-02 0.30000000E+03</pdfrwt>
<pdfrwt beam="2">0</pdfrwt>
<totfact> 0.11853289E+04</totfact>
</mgrwt>
</event>
<event>
 6    1  0.1274196E-001  0.3000000E+03  0.7818608E-02  0.1093470E+00
         21   -1    0    0  501  502  0.00000000000E+00  0.00000000000E+00  0.11475199100E+01  0.11475199100E+01  0.00000000000E+00 0. -1.
         13   -1    0    0    0    0 -0.00000000000E+00 -0.00000000000E+00 -0.10000000000E+04  0.10000000000E+04  0.00000000000E+00 0.  1.
    9000005    2    1    2  501    0  0.18851738116E+02  0.28059621513E+02 -0.49843447874E+03  0.49958904230E+03  0.30905012192E+01 0.  0.
         13    1    3    3    0    0  0.59664398849E+01  0.11253765602E+02 -0.19759200065E+03  0.19800213222E+03  0.00000000000E+00 0.  1.
          3    1    3    3  501    0  0.12885298232E+02  0.16805855911E+02 -0.30084247809E+03  0.30158691008E+03  0.00000000000E+00 0.  1.
         -1    1    1    2    0  502 -0.18851738116E+02 -0.28059621513E+02 -0.50041800135E+03  0.50155847761E+03  0.00000000000E+00 0. -1.
<mgrwt>
<rscale>  1 0.30000000E+03</rscale>
<asrwt>0</asrwt>
<pdfrwt beam="1">  1       21 0.41728085E-02 0.30000000E+03</pdfrwt>
<pdfrwt beam="2">0</pdfrwt>
<totfact> 0.39153465E+04</totfact>
</mgrwt>
</event>
<event>
 6    1  0.1274196E-001  0.3000000E+03  0.7818608E-02  0.1093470E+00
         21   -1    0    0  501  502  0.00000000000E+00  0.00000000000E+00  0.15317268844E+01  0.15317268844E+01  0.00000000000E+00 0. -1.
         13   -1    0    0    0    0 -0.00000000000E+00 -0.00000000000E+00 -0.10000000000E+04  0.10000000000E+04  0.00000000000E+00 0.  1.
    9000005    2    1    2  501    0 -0.14780996938E+02 -0.29026802697E+02 -0.77603757523E+03  0.77672859411E+03  0.34579744081E+01 0.  0.
         13    1    3    3    0    0 -0.14923418270E+02 -0.28542131160E+02 -0.76808163091E+03  0.76875662820E+03  0.00000000000E+00 0.  1.
          3    1    3    3  501    0  0.14242133266E+00 -0.48467153736E+00 -0.79559443216E+01  0.79719659046E+01  0.00000000000E+00 0.  1.
         -3    1    1    2    0  502  0.14780996938E+02  0.29026802697E+02 -0.22243069789E+03  0.22480313278E+03  0.00000000000E+00 0. -1.
<mgrwt>
<rscale>  1 0.30000000E+03</rscale>
<asrwt>0</asrwt>
<pdfrwt beam="1">  1       21 0.55699277E-02 0.30000000E+03</pdfrwt>
<pdfrwt beam="2">0</pdfrwt>
<totfact> 0.23949417E+04</totfact>
</mgrwt>
</event>
<event>
 6    1  0.1274196E-001  0.3000000E+03  0.7818608E-02  0.1093470E+00
         21   -1    0    0  501  502  0.00000000000E+00  0.00000000000E+00  0.44480706098E+01  0.44480706098E+01  0.00000000000E+00 0. -1.
         13   -1    0    0    0    0 -0.00000000000E+00 -0.00000000000E+00 -0.10000000000E+04  0.10000000000E+04  0.00000000000E+00 0.  1.
    9000005    2    1    2  501    0 -0.51103419630E+02  0.11709039813E+02 -0.80803521036E+03  0.80974013285E+03  0.30855232508E+01 0.  0.
         13    1    3    3    0    0 -0.29456096549E+02  0.82998298999E+01 -0.47352771409E+03  0.47451558964E+03  0.00000000000E+00 0.  1.
          3    1    3    3  501    0 -0.21647323081E+02  0.34092099135E+01 -0.33450749627E+03  0.33522454321E+03  0.00000000000E+00 0.  1.
         -3    1    1    2    0  502  0.51103419630E+02 -0.11709039813E+02 -0.18751671903E+03  0.19470793776E+03  0.00000000000E+00 0. -1.
<mgrwt>
<rscale>  1 0.30000000E+03</rscale>
<asrwt>0</asrwt>
<pdfrwt beam="1">  1       21 0.16174836E-01 0.30000000E+03</pdfrwt>
<pdfrwt beam="2">0</pdfrwt>
<totfact> 0.35793882E+03</totfact>
</mgrwt>
</event>
<event>
 6    1  0.1274196E-001  0.3000000E+03  0.7818608E-02  0.1093470E+00
         21   -1    0    0  501  502  0.00000000000E+00  0.00000000000E+00  0.38200560099E+01  0.38200560099E+01  0.00000000000E+00 0. -1.
         13   -1    0    0    0    0 -0.00000000000E+00 -0.00000000000E+00 -0.10000000000E+04  0.10000000000E+04  0.00000000000E+00 0.  1.
    9000005    2    1    2  501    0 -0.39666471825E+02  0.24710865516E+02 -0.82636318272E+03  0.82769002373E+03  0.32572643128E+01 0.  0.
         13    1    3    3    0    0 -0.37267996669E+02  0.23491491501E+02 -0.76434340463E+03  0.76561190818E+03  0.00000000000E+00 0.  1.
          3    1    3    3  501    0 -0.23984751554E+01  0.12193740147E+01 -0.62019778085E+02  0.62078115547E+02  0.00000000000E+00 0.  1.
         -1    1    1    2    0  502  0.39666471825E+02 -0.24710865516E+02 -0.16981676127E+03  0.17613003228E+03  0.00000000000E+00 0. -1.
<mgrwt>
<rscale>  1 0.30000000E+03</rscale>
<asrwt>0</asrwt>
<pdfrwt beam="1">  1       21 0.13891142E-01 0.30000000E+03</pdfrwt>
<pdfrwt beam="2">0</pdfrwt>
<totfact> 0.47442093E+03</totfact>
</mgrwt>
</event>
<event>
 6    1  0.1274196E-001  0.3000000E+03  0.7818608E-02  0.1093470E+00
         21   -1    0    0  501  502  0.00000000000E+00  0.00000000000E+00  0.67613554387E+01  0.67613554387E+01  0.00000000000E+00 0. -1.
         13   -1    0    0    0    0 -0.00000000000E+00 -0.00000000000E+00 -0.10000000000E+04  0.10000000000E+04  0.00000000000E+00 0.  1.
    9000005    2    1    2  501    0  0.38754899737E+02 -0.36839213790E+01 -0.93997408848E+03  0.94078691747E+03  0.36364191157E+01 0.  0.
         13    1    3    3    0    0  0.30034095356E+02 -0.22717553311E+01 -0.69097566854E+03  0.69163182566E+03  0.00000000000E+00 0.  1.
          3    1    3    3  501    0  0.87208043814E+01 -0.14121660479E+01 -0.24899841994E+03  0.24915509181E+03  0.00000000000E+00 0.  1.
         -3    1    1    2    0  502 -0.38754899737E+02  0.36839213790E+01 -0.53264556081E+02  0.65974437966E+02  0.00000000000E+00 0. -1.
<mgrwt>
<rscale>  1 0.30000000E+03</rscale>
<asrwt>0</asrwt>
<pdfrwt beam="1">  1       21 0.24586799E-01 0.30000000E+03</pdfrwt>
<pdfrwt beam="2">0</pdfrwt>
<totfact> 0.16112432E+03</totfact>
</mgrwt>
</event>
<event>
 6    1  0.1274196E-001  0.3000000E+03  0.7818608E-02  0.1093470E+00
         21   -1    0    0  501  502  0.00000000000E+00  0.00000000000E+00  0.13877708466E+01  0.13877708466E+01  0.00000000000E+00 0. -1.
         13   -1    0    0    0    0 -0.00000000000E+00 -0.00000000000E+00 -0.10000000000E+04  0.10000000000E+04  0.00000000000E+00 0.  1.
    9000005    2    1    2  501    0 -0.30152778223E+02  0.83099282484E+01 -0.77036638846E+03  0.77100893342E+03  0.34868318060E+01 0.  0.
         13    1    3    3    0    0 -0.69251241649E+01  0.32512600255E+01 -0.16985118574E+03  0.17002339054E+03  0.00000000000E+00 0.  1.
          3    1    3    3  501    0 -0.23227654058E+02  0.50586682229E+01 -0.60051520273E+03  0.60098554287E+03  0.00000000000E+00 0.  1.
         -3    1    1    2    0  502  0.30152778223E+02 -0.83099282484E+01 -0.22824584069E+03  0.23037883743E+03  0.00000000000E+00 0. -1.
<mgrwt>
<rscale>  1 0.30000000E+03</rscale>
<asrwt>0</asrwt>
<pdfrwt beam="1">  1       21 0.50464501E-02 0.30000000E+03</pdfrwt>
<pdfrwt beam="2">0</pdfrwt>
<totfact> 0.28354041E+04</totfact>
</mgrwt>
</event>
<event>
 6    1  0.1274196E-001  0.3000000E+03  0.7818608E-02  0.1093470E+00
         21   -1    0    0  501  502  0.00000000000E+00  0.00000000000E+00  0.74048886076E+01  0.74048886076E+01  0.00000000000E+00 0. -1.
         13   -1    0    0    0    0 -0.00000000000E+00 -0.00000000000E+00 -0.10000000000E+04  0.10000000000E+04  0.00000000000E+00 0.  1.
    9000005    2    1    2  501    0  0.20198808863E+02  0.28032378442E+02 -0.95757222623E+03  0.95820724023E+03  0.47687173973E+01 0.  0.
         13    1    3    3    0    0  0.10842691665E+02  0.13882026146E+02 -0.42488383335E+03  0.42524880536E+03  0.00000000000E+00 0.  1.
          3    1    3    3  501    0  0.93561171979E+01  0.14150352296E+02 -0.53268839288E+03  0.53295843487E+03  0.00000000000E+00 0.  1.
         -1    1    1    2    0  502 -0.20198808863E+02 -0.28032378442E+02 -0.35022885164E+02  0.49197648377E+02  0.00000000000E+00 0. -1.
<mgrwt>
<rscale>  1 0.30000000E+03</rscale>
<asrwt>0</asrwt>
<pdfrwt beam="1">  1       21 0.26926924E-01 0.30000000E+03</pdfrwt>
<pdfrwt beam="2">0</pdfrwt>
<totfact> 0.13476709E+03</totfact>
</mgrwt>
</event>
<event>
 6    1  0.1274196E-001  0.3000000E+03  0.7818608E-02  0.1093470E+00
         21   -1    0    0  501  502  0.00000000000E+00  0.00000000000E+00  0.22776170841E+01  0.22776170841E+01  0.00000000000E+00 0. -1.
         13   -1    0    0    0    0 -0.00000000000E+00 -0.00000000000E+00 -0.10000000000E+04  0.10000000000E+04  0.00000000000E+00 0.  1.
    9000005    2    1    2  501    0  0.26987526046E+02 -0.25964507297E+02 -0.80913581220E+03  0.81000859500E+03  0.32679011341E+01 0.  0.
         13    1    3    3    0    0  0.19900632840E+02 -0.19998243691E+02 -0.58050190466E+03  0.58118708369E+03  0.00000000000E+00 0.  1.
          1    1    3    3  501    0  0.70868932052E+01 -0.59662636055E+01 -0.22863390754E+03  0.22882151130E+03  0.00000000000E+00 0.  1.
         -1    1    1    2    0  502 -0.26987526046E+02  0.25964507297E+02 -0.18858657071E+03  0.19226902209E+03  0.00000000000E+00 0. -1.
<mgrwt>
<rscale>  1 0.30000000E+03</rscale>
<asrwt>0</asrwt>
<pdfrwt beam="1">  1       21 0.82822614E-02 0.30000000E+03</pdfrwt>
<pdfrwt beam="2">0</pdfrwt>
<totfact> 0.12018343E+04</totfact>
</mgrwt>
</event>
<event>
 6    1  0.1274196E-001  0.3000000E+03  0.7818608E-02  0.1093470E+00
         21   -1    0    0  501  502  0.00000000000E+00  0.00000000000E+00  0.42561173797E+01  0.42561173797E+01  0.00000000000E+00 0. -1.
         13   -1    0    0    0    0 -0.00000000000E+00 -0.00000000000E+00 -0.10000000000E+04  0.10000000000E+04  0.00000000000E+00 0.  1.
    9000005    2    1    2  501    0 -0.56156068673E+02  0.32728796880E+01 -0.24458526030E+03  0.25099421626E+03  0.34541642176E+01 0.  0.
         13    1    3    3    0    0 -0.49125838110E+02  0.18027200884E+01 -0.21135186780E+03  0.21699357085E+03  0.00000000000E+00 0.  1.
          1    1    3    3  501    0 -0.70302305621E+01  0.14701595996E+01 -0.33233392502E+02  0.34000645409E+02  0.00000000000E+00 0.  1.
         -1    1    1    2    0  502  0.56156068673E+02 -0.32728796880E+01 -0.75115862232E+03  0.75326190112E+03  0.00000000000E+00 0. -1.
<mgrwt>
<rscale>  1 0.30000000E+03</rscale>
<asrwt>0</asrwt>
<pdfrwt beam="1">  1       21 0.15476823E-01 0.30000000E+03</pdfrwt>
<pdfrwt beam="2">0</pdfrwt>
<totfact> 0.38858552E+03</totfact>
</mgrwt>
</event>
<event>
 6    1  0.1274196E-001  0.3000000E+03  0.7818608E-02  0.1093470E+00
         21   -1    0    0  501  502  0.00000000000E+00  0.00000000000E+00  0.34986404151E+01  0.34986404151E+01  0.00000000000E+00 0. -1.
         13   -1    0    0    0    0 -0.00000000000E+00 -0.00000000000E+00 -0.10000000000E+04  0.10000000000E+04  0.00000000000E+00 0.  1.
    9000005    2    1    2  501    0  0.33773191924E+02 -0.10036698275E+02 -0.90117014689E+03  0.90186496530E+03  0.33790784626E+01 0.  0.
         13    1    3    3    0    0  0.25222990885E+02 -0.89942014951E+01 -0.67720584789E+03  0.67773509231E+03  0.00000000000E+00 0.  1.
          1    1    3    3  501    0  0.85502010391E+01 -0.10424967799E+01 -0.22396429901E+03  0.22412987299E+03  0.00000000000E+00 0.  1.
         -3    1    1    2    0  502 -0.33773191924E+02  0.10036698275E+02 -0.95331212691E+02  0.10163367512E+03  0.00000000000E+00 0. -1.
<mgrwt>
<rscale>  1 0.30000000E+03</rscale>
<asrwt>0</asrwt>
<pdfrwt beam="1">  1       21 0.12722356E-01 0.30000000E+03</pdfrwt>
<pdfrwt beam="2">0</pdfrwt>
<totfact> 0.55717520E+03</totfact>
</mgrwt>
</event>
<event>
 6    1  0.1274196E-001  0.3000000E+03  0.7818608E-02  0.1093470E+00
         21   -1    0    0  501  502  0.00000000000E+00  0.00000000000E+00  0.18439644235E+01  0.18439644235E+01  0.00000000000E+00 0. -1.
         13   -1    0    0    0    0 -0.00000000000E+00 -0.00000000000E+00 -0.10000000000E+04  0.10000000000E+04  0.00000000000E+00 0.  1.
    9000005    2    1    2  501    0  0.27504120602E+02 -0.31682690928E+02 -0.39733821603E+03  0.39956303177E+03  0.35621459816E+01 0.  0.
         13    1    3    3    0    0  0.15211963244E+02 -0.17448526285E+02 -0.23588427872E+03  0.23701739987E+03  0.00000000000E+00 0.  1.
          3    1    3    3  501    0  0.12292157358E+02 -0.14234164643E+02 -0.16145393731E+03  0.16254563189E+03  0.00000000000E+00 0.  1.
         -1    1    1    2    0  502 -0.27504120602E+02  0.31682690928E+02 -0.60081781955E+03  0.60228093266E+03  0.00000000000E+00 0. -1.
<mgrwt>
<rscale>  1 0.30000000E+03</rscale>
<asrwt>0</asrwt>
<pdfrwt beam="1">  1       21 0.67053393E-02 0.30000000E+03</pdfrwt>
<pdfrwt beam="2">0</pdfrwt>
<totfact> 0.17387137E+04</totfact>
</mgrwt>
</event>
<event>
 6    1  0.1274196E-001  0.3000000E+03  0.7818608E-02  0.1093470E+00
         21   -1    0    0  501  502  0.00000000000E+00  0.00000000000E+00  0.40283261515E+01  0.40283261515E+01  0.00000000000E+00 0. -1.
         13   -1    0    0    0    0 -0.00000000000E+00 -0.00000000000E+00 -0.10000000000E+04  0.10000000000E+04  0.00000000000E+00 0.  1.
    9000005    2    1    2  501    0 -0.33186103079E+02  0.52880799910E+02 -0.41178059164E+03  0.41651073750E+03  0.44991520445E+01 0.  0.
         13    1    3    3    0    0 -0.30857883051E+02  0.50954779096E+02 -0.39123161086E+03  0.39574078864E+03  0.00000000000E+00 0.  1.
          3    1    3    3  501    0 -0.23282200279E+01  0.19260208139E+01 -0.20548980780E+02  0.20769948863E+02  0.00000000000E+00 0.  1.
         -1    1    1    2    0  502  0.33186103079E+02 -0.52880799910E+02 -0.58419108221E+03  0.58751758865E+03  0.00000000000E+00 0. -1.
<mgrwt>
<rscale>  1 0.30000000E+03</rscale>
<asrwt>0</asrwt>
<pdfrwt beam="1">  1       21 0.14648490E-01 0.30000000E+03</pdfrwt>
<pdfrwt beam="2">0</pdfrwt>
<totfact> 0.43025412E+03</totfact>
</mgrwt>
</event>
<event>
 6    1  0.1274196E-001  0.3000000E+03  0.7818608E-02  0.1093470E+00
         21   -1    0    0  501  502  0.00000000000E+00  0.00000000000E+00  0.13739413052E+01  0.13739413052E+01  0.00000000000E+00 0. -1.
         13   -1    0    0    0    0 -0.00000000000E+00 -0.00000000000E+00 -0.10000000000E+04  0.10000000000E+04  0.00000000000E+00 0.  1.
    9000005    2    1    2  501    0 -0.11471344099E+02 -0.31097516110E+02 -0.72210197511E+03  0.72287041162E+03  0.34237840280E+01 0.  0.
         13    1    3    3    0    0 -0.11583343556E+02 -0.29673718609E+02 -0.68314859141E+03  0.68389085486E+03  0.00000000000E+00 0.  1.
          1    1    3    3  501    0  0.11199945714E+00 -0.14237975009E+01 -0.38953383705E+02  0.38979556761E+02  0.00000000000E+00 0.  1.
         -1    1    1    2    0  502  0.11471344099E+02  0.31097516110E+02 -0.27652408358E+03  0.27850352968E+03  0.00000000000E+00 0. -1.
<mgrwt>
<rscale>  1 0.30000000E+03</rscale>
<asrwt>0</asrwt>
<pdfrwt beam="1">  1       21 0.49961607E-02 0.30000000E+03</pdfrwt>
<pdfrwt beam="2">0</pdfrwt>
<totfact> 0.28842398E+04</totfact>
</mgrwt>
</event>
<event>
 6    1  0.1274196E-001  0.3000000E+03  0.7818608E-02  0.1093470E+00
         21   -1    0    0  501  502  0.00000000000E+00  0.00000000000E+00  0.54266709097E+01  0.54266709097E+01  0.00000000000E+00 0. -1.
         13   -1    0    0    0    0 -0.00000000000E+00 -0.00000000000E+00 -0.10000000000E+04  0.10000000000E+04  0.00000000000E+00 0.  1.
    9000005    2    1    2  501    0 -0.66285625534E+02 -0.16908601767E+02 -0.68341161794E+03  0.68683399137E+03  0.31316463241E+01 0.  0.
         13    1    3    3    0    0 -0.37243737754E+02 -0.10736258968E+02 -0.39684566206E+03  0.39873405016E+03  0.00000000000E+00 0.  1.
          1    1    3    3  501    0 -0.29041887780E+02 -0.61723427986E+01 -0.28656595587E+03  0.28809994121E+03  0.00000000000E+00 0.  1.
         -3    1    1    2    0  502  0.66285625534E+02  0.16908601767E+02 -0.31116171115E+03  0.31859267953E+03  0.00000000000E+00 0. -1.
<mgrwt>
<rscale>  1 0.30000000E+03</rscale>
<asrwt>0</asrwt>
<pdfrwt beam="1">  1       21 0.19733390E-01 0.30000000E+03</pdfrwt>
<pdfrwt beam="2">0</pdfrwt>
<totfact> 0.24614190E+03</totfact>
</mgrwt>
</event>
<event>
 6    1  0.1274196E-001  0.3000000E+03  0.7818608E-02  0.1093470E+00
         21   -1    0    0  501  502  0.00000000000E+00  0.00000000000E+00  0.58378417376E+01  0.58378417376E+01  0.00000000000E+00 0. -1.
         13   -1    0    0    0    0 -0.00000000000E+00 -0.00000000000E+00 -0.10000000000E+04  0.10000000000E+04  0.00000000000E+00 0.  1.
    9000005    2    1    2  501    0  0.79278643792E+01 -0.61084316087E+02 -0.79456487374E+03  0.79695217757E+03  0.23000107274E+01 0.  0.
         13    1    3    3    0    0  0.25489416206E+01 -0.23739823321E+02 -0.32082180397E+03  0.32170903969E+03  0.00000000000E+00 0.  1.
          1    1    3    3  501    0  0.53789227586E+01 -0.37344492766E+02 -0.47374306976E+03  0.47524313787E+03  0.00000000000E+00 0.  1.
         -3    1    1    2    0  502 -0.79278643792E+01  0.61084316087E+02 -0.19959728453E+03  0.20888566417E+03  0.00000000000E+00 0. -1.
<mgrwt>
<rscale>  1 0.30000000E+03</rscale>
<asrwt>0</asrwt>
<pdfrwt beam="1">  1       21 0.21228560E-01 0.30000000E+03</pdfrwt>
<pdfrwt beam="2">0</pdfrwt>
<totfact> 0.21405205E+03</totfact>
</mgrwt>
</event>
<event>
 6    1  0.1274196E-001  0.3000000E+03  0.7818608E-02  0.1093470E+00
         21   -1    0    0  501  502  0.00000000000E+00  0.00000000000E+00  0.11472666230E+01  0.11472666230E+01  0.00000000000E+00 0. -1.
         13   -1    0    0    0    0 -0.00000000000E+00 -0.00000000000E+00 -0.10000000000E+04  0.10000000000E+04  0.00000000000E+00 0.  1.
    9000005    2    1    2  501    0 -0.21338290879E+01 -0.31481996847E+02 -0.67581920614E+03  0.67657627428E+03  0.53090655784E+01 0.  0.
         13    1    3    3    0    0 -0.37185719487E+01 -0.20319620038E+02 -0.45760808231E+03  0.45807408978E+03  0.00000000000E+00 0.  1.
          1    1    3    3  501    0  0.15847428608E+01 -0.11162376809E+02 -0.21821112383E+03  0.21850218450E+03  0.00000000000E+00 0.  1.
         -3    1    1    2    0  502  0.21338290879E+01  0.31481996847E+02 -0.32303352724E+03  0.32457099234E+03  0.00000000000E+00 0. -1.
<mgrwt>
<rscale>  1 0.30000000E+03</rscale>
<asrwt>0</asrwt>
<pdfrwt beam="1">  1       21 0.41718874E-02 0.30000000E+03</pdfrwt>
<pdfrwt beam="2">0</pdfrwt>
<totfact> 0.39168057E+04</totfact>
</mgrwt>
</event>
<event>
 6    1  0.1274196E-001  0.3000000E+03  0.7818608E-02  0.1093470E+00
         21   -1    0    0  501  502  0.00000000000E+00  0.00000000000E+00  0.59837940355E+01  0.59837940355E+01  0.00000000000E+00 0. -1.
         13   -1    0    0    0    0 -0.00000000000E+00 -0.00000000000E+00 -0.10000000000E+04  0.10000000000E+04  0.00000000000E+00 0.  1.
    9000005    2    1    2  501    0  0.18976737274E+02  0.73732722518E+02 -0.40971060422E+03  0.41673879647E+03  0.34372000574E+01 0.  0.
         13    1    3    3    0    0  0.78405852293E+01  0.32471883426E+02 -0.18871064640E+03  0.19164447828E+03  0.00000000000E+00 0.  1.
          3    1    3    3  501    0  0.11136152045E+02  0.41260839092E+02 -0.22099995781E+03  0.22509431818E+03  0.00000000000E+00 0.  1.
         -1    1    1    2    0  502 -0.18976737274E+02 -0.73732722518E+02 -0.58430560175E+03  0.58924499757E+03  0.00000000000E+00 0. -1.
<mgrwt>
<rscale>  1 0.30000000E+03</rscale>
<asrwt>0</asrwt>
<pdfrwt beam="1">  1       21 0.21759297E-01 0.30000000E+03</pdfrwt>
<pdfrwt beam="2">0</pdfrwt>
<totfact> 0.20413544E+03</totfact>
</mgrwt>
</event>
<event>
 6    1  0.1274196E-001  0.3000000E+03  0.7818608E-02  0.1093470E+00
         21   -1    0    0  501  502  0.00000000000E+00  0.00000000000E+00  0.24150731361E+01  0.24150731361E+01  0.00000000000E+00 0. -1.
         13   -1    0    0    0    0 -0.00000000000E+00 -0.00000000000E+00 -0.10000000000E+04  0.10000000000E+04  0.00000000000E+00 0.  1.
    9000005    2    1    2  501    0  0.23718833655E+02  0.18928850979E+02 -0.89285349071E+03  0.89337582246E+03  0.34813519876E+01 0.  0.
         13    1    3    3    0    0  0.36306140195E+01  0.40978201722E+01 -0.19029627514E+03  0.19037501365E+03  0.00000000000E+00 0.  1.
          3    1    3    3  501    0  0.20088219636E+02  0.14831030807E+02 -0.70255721557E+03  0.70300080882E+03  0.00000000000E+00 0.  1.
         -1    1    1    2    0  502 -0.23718833655E+02 -0.18928850979E+02 -0.10473143615E+03  0.10903925067E+03  0.00000000000E+00 0. -1.
<mgrwt>
<rscale>  1 0.30000000E+03</rscale>
<asrwt>0</asrwt>
<pdfrwt beam="1">  1       21 0.87821027E-02 0.30000000E+03</pdfrwt>
<pdfrwt beam="2">0</pdfrwt>
<totfact> 0.10838134E+04</totfact>
</mgrwt>
</event>
<event>
 6    1  0.1274196E-001  0.3000000E+03  0.7818608E-02  0.1093470E+00
         21   -1    0    0  501  502  0.00000000000E+00  0.00000000000E+00  0.22475270279E+01  0.22475270279E+01  0.00000000000E+00 0. -1.
         13   -1    0    0    0    0 -0.00000000000E+00 -0.00000000000E+00 -0.10000000000E+04  0.10000000000E+04  0.00000000000E+00 0.  1.
    9000005    2    1    2  501    0  0.21470917858E+02  0.23392703965E+02 -0.87077362252E+03  0.87135884389E+03  0.33636631302E+01 0.  0.
         13    1    3    3    0    0  0.12992700851E+02  0.15318197586E+02 -0.51040230663E+03  0.51079738847E+03  0.00000000000E+00 0.  1.
          1    1    3    3  501    0  0.84782170063E+01  0.80745063795E+01 -0.36037131589E+03  0.36056145542E+03  0.00000000000E+00 0.  1.
         -3    1    1    2    0  502 -0.21470917858E+02 -0.23392703965E+02 -0.12697885045E+03  0.13088868314E+03  0.00000000000E+00 0. -1.
<mgrwt>
<rscale>  1 0.30000000E+03</rscale>
<asrwt>0</asrwt>
<pdfrwt beam="1">  1       21 0.81728428E-02 0.30000000E+03</pdfrwt>
<pdfrwt beam="2">0</pdfrwt>
<totfact> 0.12302878E+04</totfact>
</mgrwt>
</event>
<event>
 6    1  0.1274196E-001  0.3000000E+03  0.7818608E-02  0.1093470E+00
         21   -1    0    0  501  502  0.00000000000E+00  0.00000000000E+00  0.13452666448E+02  0.13452666448E+02  0.00000000000E+00 0. -1.
         13   -1    0    0    0    0 -0.00000000000E+00 -0.00000000000E+00 -0.10000000000E+04  0.10000000000E+04  0.00000000000E+00 0.  1.
    9000005    2    1    2  501    0  0.52237043753E+01 -0.90144520854E+02 -0.81122803931E+03  0.81624674194E+03  0.38066045445E+01 0.  0.
         13    1    3    3    0    0  0.14953713567E+01 -0.11856713128E+02 -0.11674101216E+03  0.11735110439E+03  0.00000000000E+00 0.  1.
          3    1    3    3  501    0  0.37283330186E+01 -0.78287807726E+02 -0.69448702715E+03  0.69889563755E+03  0.00000000000E+00 0.  1.
         -3    1    1    2    0  502 -0.52237043753E+01  0.90144520854E+02 -0.17531929424E+03  0.19720592451E+03  0.00000000000E+00 0. -1.
<mgrwt>
<rscale>  1 0.30000000E+03</rscale>
<asrwt>0</asrwt>
<pdfrwt beam="1">  1       21 0.48918890E-01 0.30000000E+03</pdfrwt>
<pdfrwt beam="2">0</pdfrwt>
<totfact> 0.39391766E+02</totfact>
</mgrwt>
</event>
<event>
 6    1  0.1274196E-001  0.3000000E+03  0.7818608E-02  0.1093470E+00
         21   -1    0    0  501  502  0.00000000000E+00  0.00000000000E+00  0.15435673591E+01  0.15435673591E+01  0.00000000000E+00 0. -1.
         13   -1    0    0    0    0 -0.00000000000E+00 -0.00000000000E+00 -0.10000000000E+04  0.10000000000E+04  0.00000000000E+00 0.  1.
    9000005    2    1    2  501    0  0.24875543825E+02  0.21621814129E+02 -0.77109005811E+03  0.77180074637E+03  0.31966952900E+01 0.  0.
         13    1    3    3    0    0  0.13253748893E+02  0.12900532810E+02 -0.40369495013E+03  0.40411842121E+03  0.00000000000E+00 0.  1.
          3    1    3    3  501    0  0.11621794932E+02  0.87212813193E+01 -0.36739510798E+03  0.36768232516E+03  0.00000000000E+00 0.  1.
         -3    1    1    2    0  502 -0.24875543825E+02 -0.21621814129E+02 -0.22736637453E+03  0.22974282099E+03  0.00000000000E+00 0. -1.
<mgrwt>
<rscale>  1 0.30000000E+03</rscale>
<asrwt>0</asrwt>
<pdfrwt beam="1">  1       21 0.56129841E-02 0.30000000E+03</pdfrwt>
<pdfrwt beam="2">0</pdfrwt>
<totfact> 0.23634881E+04</totfact>
</mgrwt>
</event>
<event>
 6    1  0.1274196E-001  0.3000000E+03  0.7818608E-02  0.1093470E+00
         21   -1    0    0  501  502  0.00000000000E+00  0.00000000000E+00  0.90970689964E+00  0.90970689964E+00  0.00000000000E+00 0. -1.
         13   -1    0    0    0    0 -0.00000000000E+00 -0.00000000000E+00 -0.10000000000E+04  0.10000000000E+04  0.00000000000E+00 0.  1.
    9000005    2    1    2  501    0 -0.14590612195E+02  0.26300034683E+02 -0.49735137392E+03  0.49827015334E+03  0.31904191946E+01 0.  0.
         13    1    3    3    0    0 -0.13845003024E+02  0.25158432707E+02 -0.48343646631E+03  0.48428859971E+03  0.00000000000E+00 0.  1.
          1    1    3    3  501    0 -0.74560917021E+00  0.11416019763E+01 -0.13914907610E+02  0.13981553630E+02  0.00000000000E+00 0.  1.
         -1    1    1    2    0  502  0.14590612195E+02 -0.26300034683E+02 -0.50173891918E+03  0.50263955356E+03  0.00000000000E+00 0. -1.
<mgrwt>
<rscale>  1 0.30000000E+03</rscale>
<asrwt>0</asrwt>
<pdfrwt beam="1">  1       21 0.33080321E-02 0.30000000E+03</pdfrwt>
<pdfrwt beam="2">0</pdfrwt>
<totfact> 0.57818572E+04</totfact>
</mgrwt>
</event>
<event>
 6    1  0.1274196E-001  0.3000000E+03  0.7818608E-02  0.1093470E+00
         21   -1    0    0  501  502  0.00000000000E+00  0.00000000000E+00  0.38100175754E+01  0.38100175754E+01  0.00000000000E+00 0. -1.
         13   -1    0    0    0    0 -0.00000000000E+00 -0.00000000000E+00 -0.10000000000E+04  0.10000000000E+04  0.00000000000E+00 0.  1.
    9000005    2    1    2  501    0 -0.10082445847E+01  0.40664040601E+02 -0.87548211600E+03  0.87643274420E+03  0.32922514681E+01 0.  0.
         13    1    3    3    0    0  0.16261280649E+00  0.28741766793E+01 -0.46636650362E+02  0.46725415905E+02  0.00000000000E+00 0.  1.
          3    1    3    3  501    0 -0.11708573912E+01  0.37789863921E+02 -0.82884546564E+03  0.82970732830E+03  0.00000000000E+00 0.  1.
         -1    1    1    2    0  502  0.10082445847E+01 -0.40664040601E+02 -0.12070786643E+03  0.12737727337E+03  0.00000000000E+00 0. -1.
<mgrwt>
<rscale>  1 0.30000000E+03</rscale>
<asrwt>0</asrwt>
<pdfrwt beam="1">  1       21 0.13854639E-01 0.30000000E+03</pdfrwt>
<pdfrwt beam="2">0</pdfrwt>
<totfact> 0.47671815E+03</totfact>
</mgrwt>
</event>
<event>
 6    1  0.1274196E-001  0.3000000E+03  0.7818608E-02  0.1093470E+00
         21   -1    0    0  501  502  0.00000000000E+00  0.00000000000E+00  0.34590779313E+01  0.34590779313E+01  0.00000000000E+00 0. -1.
         13   -1    0    0    0    0 -0.00000000000E+00 -0.00000000000E+00 -0.10000000000E+04  0.10000000000E+04  0.00000000000E+00 0.  1.
    9000005    2    1    2  501    0  0.46663356841E+02  0.15598775988E+02 -0.77279405183E+03  0.77436640536E+03  0.34485537896E+01 0.  0.
         13    1    3    3    0    0  0.18267546497E+02  0.69236980408E+01 -0.28345808691E+03  0.28413047687E+03  0.00000000000E+00 0.  1.
          3    1    3    3  501    0  0.28395810344E+02  0.86750779473E+01 -0.48933596492E+03  0.49023592849E+03  0.00000000000E+00 0.  1.
         -3    1    1    2    0  502 -0.46663356841E+02 -0.15598775988E+02 -0.22374687024E+03  0.22909267257E+03  0.00000000000E+00 0. -1.
<mgrwt>
<rscale>  1 0.30000000E+03</rscale>
<asrwt>0</asrwt>
<pdfrwt beam="1">  1       21 0.12578492E-01 0.30000000E+03</pdfrwt>
<pdfrwt beam="2">0</pdfrwt>
<totfact> 0.56884546E+03</totfact>
</mgrwt>
</event>
<event>
 6    1  0.1274196E-001  0.3000000E+03  0.7818608E-02  0.1093470E+00
         21   -1    0    0  501  502  0.00000000000E+00  0.00000000000E+00  0.14182411102E+01  0.14182411102E+01  0.00000000000E+00 0. -1.
         13   -1    0    0    0    0 -0.00000000000E+00 -0.00000000000E+00 -0.10000000000E+04  0.10000000000E+04  0.00000000000E+00 0.  1.
    9000005    2    1    2  501    0  0.24764771842E+02  0.27910326988E+02 -0.46095398900E+03  0.46249719009E+03  0.57263066996E+01 0.  0.
         13    1    3    3    0    0  0.22257428616E+02  0.22324115810E+02 -0.39776565073E+03  0.39901287220E+03  0.00000000000E+00 0.  1.
          1    1    3    3  501    0  0.25073432256E+01  0.55862111784E+01 -0.63188338269E+02  0.63484317895E+02  0.00000000000E+00 0.  1.
         -3    1    1    2    0  502 -0.24764771842E+02 -0.27910326988E+02 -0.53762776989E+03  0.53892105102E+03  0.00000000000E+00 0. -1.
<mgrwt>
<rscale>  1 0.30000000E+03</rscale>
<asrwt>0</asrwt>
<pdfrwt beam="1">  1       21 0.51572513E-02 0.30000000E+03</pdfrwt>
<pdfrwt beam="2">0</pdfrwt>
<totfact> 0.27322391E+04</totfact>
</mgrwt>
</event>
<event>
 6    1  0.1274196E-001  0.3000000E+03  0.7818608E-02  0.1093470E+00
         21   -1    0    0  501  502  0.00000000000E+00  0.00000000000E+00  0.12203100442E+01  0.12203100442E+01  0.00000000000E+00 0. -1.
         13   -1    0    0    0    0 -0.00000000000E+00 -0.00000000000E+00 -0.10000000000E+04  0.10000000000E+04  0.00000000000E+00 0.  1.
    9000005    2    1    2  501    0  0.49296602231E+01 -0.34143759659E+02 -0.57217228352E+03  0.57322033680E+03  0.32147497334E+01 0.  0.
         13    1    3    3    0    0  0.13082856743E+01 -0.27967614022E+01 -0.53577018871E+02  0.53665915038E+02  0.00000000000E+00 0.  1.
          1    1    3    3  501    0  0.36213745487E+01 -0.31346998256E+02 -0.51859526465E+03  0.51955442176E+03  0.00000000000E+00 0.  1.
         -3    1    1    2    0  502 -0.49296602231E+01  0.34143759659E+02 -0.42660740643E+03  0.42799997324E+03  0.00000000000E+00 0. -1.
<mgrwt>
<rscale>  1 0.30000000E+03</rscale>
<asrwt>0</asrwt>
<pdfrwt beam="1">  1       21 0.44375004E-02 0.30000000E+03</pdfrwt>
<pdfrwt beam="2">0</pdfrwt>
<totfact> 0.35285309E+04</totfact>
</mgrwt>
</event>
<event>
 6    1  0.1274196E-001  0.3000000E+03  0.7818608E-02  0.1093470E+00
         21   -1    0    0  501  502  0.00000000000E+00  0.00000000000E+00  0.11770726723E+01  0.11770726723E+01  0.00000000000E+00 0. -1.
         13   -1    0    0    0    0 -0.00000000000E+00 -0.00000000000E+00 -0.10000000000E+04  0.10000000000E+04  0.00000000000E+00 0.  1.
    9000005    2    1    2  501    0  0.21451882558E+02 -0.23729050183E+02 -0.67846873462E+03  0.67922977905E+03  0.31650905381E+01 0.  0.
         13    1    3    3    0    0  0.89425874413E+01 -0.11659029167E+02 -0.33289622600E+03  0.33322034769E+03  0.00000000000E+00 0.  1.
          3    1    3    3  501    0  0.12509295117E+02 -0.12070021017E+02 -0.34557250863E+03  0.34600943136E+03  0.00000000000E+00 0.  1.
         -1    1    1    2    0  502 -0.21451882558E+02  0.23729050183E+02 -0.32035419270E+03  0.32194729362E+03  0.00000000000E+00 0. -1.
<mgrwt>
<rscale>  1 0.30000000E+03</rscale>
<asrwt>0</asrwt>
<pdfrwt beam="1">  1       21 0.42802733E-02 0.30000000E+03</pdfrwt>
<pdfrwt beam="2">0</pdfrwt>
<totfact> 0.37507242E+04</totfact>
</mgrwt>
</event>
<event>
 6    1  0.1274196E-001  0.3000000E+03  0.7818608E-02  0.1093470E+00
         21   -1    0    0  501  502  0.00000000000E+00  0.00000000000E+00  0.18030699666E+01  0.18030699666E+01  0.00000000000E+00 0. -1.
         13   -1    0    0    0    0 -0.00000000000E+00 -0.00000000000E+00 -0.10000000000E+04  0.10000000000E+04  0.00000000000E+00 0.  1.
    9000005    2    1    2  501    0  0.18185716942E+02  0.28893982945E+02 -0.79642450955E+03  0.79716267264E+03  0.32779084818E+01 0.  0.
         13    1    3    3    0    0  0.15512192930E+02  0.23053913504E+02 -0.62332602394E+03  0.62394506423E+03  0.00000000000E+00 0.  1.
          3    1    3    3  501    0  0.26735240126E+01  0.58400694414E+01 -0.17309848561E+03  0.17321760840E+03  0.00000000000E+00 0.  1.
         -3    1    1    2    0  502 -0.18185716942E+02 -0.28893982945E+02 -0.20177242049E+03  0.20464039733E+03  0.00000000000E+00 0. -1.
<mgrwt>
<rscale>  1 0.30000000E+03</rscale>
<asrwt>0</asrwt>
<pdfrwt beam="1">  1       21 0.65566319E-02 0.30000000E+03</pdfrwt>
<pdfrwt beam="2">0</pdfrwt>
<totfact> 0.18076424E+04</totfact>
</mgrwt>
</event>
<event>
 6    1  0.1274196E-001  0.3000000E+03  0.7818608E-02  0.1093470E+00
         21   -1    0    0  501  502  0.00000000000E+00  0.00000000000E+00  0.11993977606E+01  0.11993977606E+01  0.00000000000E+00 0. -1.
         13   -1    0    0    0    0 -0.00000000000E+00 -0.00000000000E+00 -0.10000000000E+04  0.10000000000E+04  0.00000000000E+00 0.  1.
    9000005    2    1    2  501    0 -0.26809449679E+02 -0.18527736045E+02 -0.66608744232E+03  0.66689404277E+03  0.36276526941E+01 0.  0.
         13    1    3    3    0    0 -0.25572639539E+02 -0.18407129353E+02 -0.64632957344E+03  0.64709713321E+03  0.00000000000E+00 0.  1.
          3    1    3    3  501    0 -0.12368101402E+01 -0.12060669257E+00 -0.19757868883E+02  0.19796909559E+02  0.00000000000E+00 0.  1.
         -3    1    1    2    0  502  0.26809449679E+02  0.18527736045E+02 -0.33271315992E+03  0.33430535499E+03  0.00000000000E+00 0. -1.
<mgrwt>
<rscale>  1 0.30000000E+03</rscale>
<asrwt>0</asrwt>
<pdfrwt beam="1">  1       21 0.43614556E-02 0.30000000E+03</pdfrwt>
<pdfrwt beam="2">0</pdfrwt>
<totfact> 0.36333760E+04</totfact>
</mgrwt>
</event>
<event>
 6    1  0.1274196E-001  0.3000000E+03  0.7818608E-02  0.1093470E+00
         21   -1    0    0  501  502  0.00000000000E+00  0.00000000000E+00  0.56806680875E+01  0.56806680875E+01  0.00000000000E+00 0. -1.
         13   -1    0    0    0    0 -0.00000000000E+00 -0.00000000000E+00 -0.10000000000E+04  0.10000000000E+04  0.00000000000E+00 0.  1.
    9000005    2    1    2  501    0  0.62847177731E+02  0.18626951444E+02 -0.74517563271E+03  0.74805824298E+03  0.27713224319E+01 0.  0.
         13    1    3    3    0    0  0.25025080951E+02  0.86053679521E+01 -0.30914707342E+03  0.31027764992E+03  0.00000000000E+00 0.  1.
          1    1    3    3  501    0  0.37822096780E+02  0.10021583492E+02 -0.43602855929E+03  0.43778059306E+03  0.00000000000E+00 0.  1.
         -1    1    1    2    0  502 -0.62847177731E+02 -0.18626951444E+02 -0.24914369920E+03  0.25762242511E+03  0.00000000000E+00 0. -1.
<mgrwt>
<rscale>  1 0.30000000E+03</rscale>
<asrwt>0</asrwt>
<pdfrwt beam="1">  1       21 0.20657018E-01 0.30000000E+03</pdfrwt>
<pdfrwt beam="2">0</pdfrwt>
<totfact> 0.22554574E+03</totfact>
</mgrwt>
</event>
<event>
 6    1  0.1274196E-001  0.3000000E+03  0.7818608E-02  0.1093470E+00
         21   -1    0    0  501  502  0.00000000000E+00  0.00000000000E+00  0.23790728550E+01  0.23790728550E+01  0.00000000000E+00 0. -1.
         13   -1    0    0    0    0 -0.00000000000E+00 -0.00000000000E+00 -0.10000000000E+04  0.10000000000E+04  0.00000000000E+00 0.  1.
    9000005    2    1    2  501    0 -0.10546115825E+02  0.31617834280E+02 -0.86458117622E+03  0.86522775741E+03  0.27484370364E+01 0.  0.
         13    1    3    3    0    0 -0.28881188642E+01  0.85837034109E+01 -0.20460408694E+03  0.20480442766E+03  0.00000000000E+00 0.  1.
          1    1    3    3  501    0 -0.76579969603E+01  0.23034130869E+02 -0.65997708928E+03  0.66042332975E+03  0.00000000000E+00 0.  1.
         -3    1    1    2    0  502  0.10546115825E+02 -0.31617834280E+02 -0.13303975092E+03  0.13715131545E+03  0.00000000000E+00 0. -1.
<mgrwt>
<rscale>  1 0.30000000E+03</rscale>
<asrwt>0</asrwt>
<pdfrwt beam="1">  1       21 0.86511923E-02 0.30000000E+03</pdfrwt>
<pdfrwt beam="2">0</pdfrwt>
<totfact> 0.11129572E+04</totfact>
</mgrwt>
</event>
<event>
 6    1  0.1274196E-001  0.3000000E+03  0.7818608E-02  0.1093470E+00
         21   -1    0    0  501  502  0.00000000000E+00  0.00000000000E+00  0.15936414643E+01  0.15936414643E+01  0.00000000000E+00 0. -1.
         13   -1    0    0    0    0 -0.00000000000E+00 -0.00000000000E+00 -0.10000000000E+04  0.10000000000E+04  0.00000000000E+00 0.  1.
    9000005    2    1    2  501    0  0.10047968909E+02 -0.34946833737E+02 -0.70451821569E+03  0.70546447476E+03  0.34591967987E+01 0.  0.
         13    1    3    3    0    0  0.37683735613E+01 -0.79913495624E+01 -0.16217678078E+03  0.16241727288E+03  0.00000000000E+00 0.  1.
          3    1    3    3  501    0  0.62795953472E+01 -0.26955484175E+02 -0.54234143491E+03  0.54304720188E+03  0.00000000000E+00 0.  1.
         -1    1    1    2    0  502 -0.10047968909E+02  0.34946833737E+02 -0.29388814285E+03  0.29612916671E+03  0.00000000000E+00 0. -1.
<mgrwt>
<rscale>  1 0.30000000E+03</rscale>
<asrwt>0</asrwt>
<pdfrwt beam="1">  1       21 0.57950721E-02 0.30000000E+03</pdfrwt>
<pdfrwt beam="2">0</pdfrwt>
<totfact> 0.22372297E+04</totfact>
</mgrwt>
</event>
<event>
 6    1  0.1274196E-001  0.3000000E+03  0.7818608E-02  0.1093470E+00
         21   -1    0    0  501  502  0.00000000000E+00  0.00000000000E+00  0.11482833325E+01  0.11482833325E+01  0.00000000000E+00 0. -1.
         13   -1    0    0    0    0 -0.00000000000E+00 -0.00000000000E+00 -0.10000000000E+04  0.10000000000E+04  0.00000000000E+00 0.  1.
    9000005    2    1    2  501    0 -0.29576901441E+02 -0.78008448501E+01 -0.71352313493E+03  0.71418479117E+03  0.30009290485E+01 0.  0.
         13    1    3    3    0    0 -0.24774381115E+02 -0.53666780979E+01 -0.58537436622E+03  0.58592296406E+03  0.00000000000E+00 0.  1.
          1    1    3    3  501    0 -0.48025203268E+01 -0.24341667522E+01 -0.12814876871E+03  0.12826182710E+03  0.00000000000E+00 0.  1.
         -3    1    1    2    0  502  0.29576901441E+02  0.78008448501E+01 -0.28532858174E+03  0.28696349217E+03  0.00000000000E+00 0. -1.
<mgrwt>
<rscale>  1 0.30000000E+03</rscale>
<asrwt>0</asrwt>
<pdfrwt beam="1">  1       21 0.41755846E-02 0.30000000E+03</pdfrwt>
<pdfrwt beam="2">0</pdfrwt>
<totfact> 0.39109535E+04</totfact>
</mgrwt>
</event>
<event>
 6    1  0.1274196E-001  0.3000000E+03  0.7818608E-02  0.1093470E+00
         21   -1    0    0  501  502  0.00000000000E+00  0.00000000000E+00  0.33390421259E+01  0.33390421259E+01  0.00000000000E+00 0. -1.
         13   -1    0    0    0    0 -0.00000000000E+00 -0.00000000000E+00 -0.10000000000E+04  0.10000000000E+04  0.00000000000E+00 0.  1.
    9000005    2    1    2  501    0 -0.39758551470E+02 -0.27680809748E+02 -0.77100134505E+03  0.77253776288E+03  0.49549326822E+01 0.  0.
         13    1    3    3    0    0 -0.11138904614E+02 -0.58065174161E+01 -0.22347358857E+03  0.22382635151E+03  0.00000000000E+00 0.  1.
          3    1    3    3  501    0 -0.28619646856E+02 -0.21874292332E+02 -0.54752775648E+03  0.54871141137E+03  0.00000000000E+00 0.  1.
         -3    1    1    2    0  502  0.39758551470E+02  0.27680809748E+02 -0.22565961282E+03  0.23080127925E+03  0.00000000000E+00 0. -1.
<mgrwt>
<rscale>  1 0.30000000E+03</rscale>
<asrwt>0</asrwt>
<pdfrwt beam="1">  1       21 0.12141997E-01 0.30000000E+03</pdfrwt>
<pdfrwt beam="2">0</pdfrwt>
<totfact> 0.60661235E+03</totfact>
</mgrwt>
</event>
<event>
 6    1  0.1274196E-001  0.3000000E+03  0.7818608E-02  0.1093470E+00
         21   -1    0    0  501  502  0.00000000000E+00  0.00000000000E+00  0.62229084374E+01  0.62229084374E+01  0.00000000000E+00 0. -1.
         13   -1    0    0    0    0 -0.00000000000E+00 -0.00000000000E+00 -0.10000000000E+04  0.10000000000E+04  0.00000000000E+00 0.  1.
    9000005    2    1    2  501    0  0.24456995829E+02  0.74359313673E+02 -0.55729646511E+03  0.56277867356E+03  0.36101548907E+01 0.  0.
         13    1    3    3    0    0  0.17117313417E+02  0.47926531843E+02 -0.37025094445E+03  0.37373214571E+03  0.00000000000E+00 0.  1.
          1    1    3    3  501    0  0.73396824115E+01  0.26432781829E+02 -0.18704552066E+03  0.18904652785E+03  0.00000000000E+00 0.  1.
         -3    1    1    2    0  502 -0.24456995829E+02 -0.74359313673E+02 -0.43648062645E+03  0.44344423487E+03  0.00000000000E+00 0. -1.
<mgrwt>
<rscale>  1 0.30000000E+03</rscale>
<asrwt>0</asrwt>
<pdfrwt beam="1">  1       21 0.22628806E-01 0.30000000E+03</pdfrwt>
<pdfrwt beam="2">0</pdfrwt>
<totfact> 0.18928860E+03</totfact>
</mgrwt>
</event>
<event>
 6    1  0.1274196E-001  0.3000000E+03  0.7818608E-02  0.1093470E+00
         21   -1    0    0  501  502  0.00000000000E+00  0.00000000000E+00  0.75597146663E+01  0.75597146663E+01  0.00000000000E+00 0. -1.
         13   -1    0    0    0    0 -0.00000000000E+00 -0.00000000000E+00 -0.10000000000E+04  0.10000000000E+04  0.00000000000E+00 0.  1.
    9000005    2    1    2  501    0 -0.26875451705E+02 -0.14784899116E+02 -0.96759022473E+03  0.96808302967E+03  0.36091826876E+01 0.  0.
         13    1    3    3    0    0 -0.46828649689E+01 -0.12190146463E+01 -0.13552831468E+03  0.13561467215E+03  0.00000000000E+00 0.  1.
          3    1    3    3  501    0 -0.22192586736E+02 -0.13565884469E+02 -0.83206191005E+03  0.83246835752E+03  0.00000000000E+00 0.  1.
         -3    1    1    2    0  502  0.26875451705E+02  0.14784899116E+02 -0.24850060606E+02  0.39476684997E+02  0.00000000000E+00 0. -1.
<mgrwt>
<rscale>  1 0.30000000E+03</rscale>
<asrwt>0</asrwt>
<pdfrwt beam="1">  1       21 0.27489929E-01 0.30000000E+03</pdfrwt>
<pdfrwt beam="2">0</pdfrwt>
<totfact> 0.12936610E+03</totfact>
</mgrwt>
</event>
<event>
 6    1  0.1274196E-001  0.3000000E+03  0.7818608E-02  0.1093470E+00
         21   -1    0    0  501  502  0.00000000000E+00  0.00000000000E+00  0.13223605816E+01  0.13223605816E+01  0.00000000000E+00 0. -1.
         13   -1    0    0    0    0 -0.00000000000E+00 -0.00000000000E+00 -0.10000000000E+04  0.10000000000E+04  0.00000000000E+00 0.  1.
    9000005    2    1    2  501    0  0.34315337368E+02  0.96834699878E+01 -0.40867255929E+03  0.41024088858E+03  0.36074886204E+01 0.  0.
         13    1    3    3    0    0  0.79770270298E+01  0.80869117585E+00 -0.85116390782E+02  0.85493198100E+02  0.00000000000E+00 0.  1.
          1    1    3    3  501    0  0.26338310338E+02  0.88747788120E+01 -0.32355616851E+03  0.32474769048E+03  0.00000000000E+00 0.  1.
         -1    1    1    2    0  502 -0.34315337368E+02 -0.96834699878E+01 -0.59000508013E+03  0.59108147200E+03  0.00000000000E+00 0. -1.
<mgrwt>
<rscale>  1 0.30000000E+03</rscale>
<asrwt>0</asrwt>
<pdfrwt beam="1">  1       21 0.48085941E-02 0.30000000E+03</pdfrwt>
<pdfrwt beam="2">0</pdfrwt>
<totfact> 0.30784691E+04</totfact>
</mgrwt>
</event>
<event>
 6    1  0.1274196E-001  0.3000000E+03  0.7818608E-02  0.1093470E+00
         21   -1    0    0  501  502  0.00000000000E+00  0.00000000000E+00  0.15403235112E+01  0.15403235112E+01  0.00000000000E+00 0. -1.
         13   -1    0    0    0    0 -0.00000000000E+00 -0.00000000000E+00 -0.10000000000E+04  0.10000000000E+04  0.00000000000E+00 0.  1.
    9000005    2    1    2  501    0  0.30117159530E+02  0.27480720876E+01 -0.81775431987E+03  0.81832181705E+03  0.37247012107E+01 0.  0.
         13    1    3    3    0    0  0.72420114503E+00  0.19016208715E+00 -0.96189512022E+01  0.96480490851E+01  0.00000000000E+00 0.  1.
          1    1    3    3  501    0  0.29392958385E+02  0.25579100005E+01 -0.80813536867E+03  0.80867376797E+03  0.00000000000E+00 0.  1.
         -3    1    1    2    0  502 -0.30117159530E+02 -0.27480720876E+01 -0.18070535662E+03  0.18321850646E+03  0.00000000000E+00 0. -1.
<mgrwt>
<rscale>  1 0.30000000E+03</rscale>
<asrwt>0</asrwt>
<pdfrwt beam="1">  1       21 0.56011882E-02 0.30000000E+03</pdfrwt>
<pdfrwt beam="2">0</pdfrwt>
<totfact> 0.23720418E+04</totfact>
</mgrwt>
</event>
<event>
 6    1  0.1274196E-001  0.3000000E+03  0.7818608E-02  0.1093470E+00
         21   -1    0    0  501  502  0.00000000000E+00  0.00000000000E+00  0.10248060364E+01  0.10248060364E+01  0.00000000000E+00 0. -1.
         13   -1    0    0    0    0 -0.00000000000E+00 -0.00000000000E+00 -0.10000000000E+04  0.10000000000E+04  0.00000000000E+00 0.  1.
    9000005    2    1    2  501    0  0.30103835868E+02  0.10502914080E+02 -0.52772282245E+03  0.52869510149E+03  0.32528247059E+01 0.  0.
         13    1    3    3    0    0  0.20835210199E+02  0.82916592398E+01 -0.35103017888E+03  0.35174570940E+03  0.00000000000E+00 0.  1.
          1    1    3    3  501    0  0.92686256695E+01  0.22112548398E+01 -0.17669264357E+03  0.17694939209E+03  0.00000000000E+00 0.  1.
         -3    1    1    2    0  502 -0.30103835868E+02 -0.10502914080E+02 -0.47125237152E+03  0.47232970455E+03  0.00000000000E+00 0. -1.
<mgrwt>
<rscale>  1 0.30000000E+03</rscale>
<asrwt>0</asrwt>
<pdfrwt beam="1">  1       21 0.37265753E-02 0.30000000E+03</pdfrwt>
<pdfrwt beam="2">0</pdfrwt>
<totfact> 0.47362989E+04</totfact>
</mgrwt>
</event>
<event>
 6    1  0.1274196E-001  0.3000000E+03  0.7818608E-02  0.1093470E+00
         21   -1    0    0  501  502  0.00000000000E+00  0.00000000000E+00  0.20669966616E+01  0.20669966616E+01  0.00000000000E+00 0. -1.
         13   -1    0    0    0    0 -0.00000000000E+00 -0.00000000000E+00 -0.10000000000E+04  0.10000000000E+04  0.00000000000E+00 0.  1.
    9000005    2    1    2  501    0 -0.73504465017E+01 -0.40021582565E+02 -0.72161349130E+03  0.72276746414E+03  0.33196770395E+01 0.  0.
         13    1    3    3    0    0 -0.38652028712E+01 -0.12584867064E+02 -0.22805779362E+03  0.22843746606E+03  0.00000000000E+00 0.  1.
          3    1    3    3  501    0 -0.34852436305E+01 -0.27436715501E+02 -0.49355569769E+03  0.49432999808E+03  0.00000000000E+00 0.  1.
         -3    1    1    2    0  502  0.73504465017E+01  0.40021582565E+02 -0.27631951204E+03  0.27929953252E+03  0.00000000000E+00 0. -1.
<mgrwt>
<rscale>  1 0.30000000E+03</rscale>
<asrwt>0</asrwt>
<pdfrwt beam="1">  1       21 0.75163673E-02 0.30000000E+03</pdfrwt>
<pdfrwt beam="2">0</pdfrwt>
<totfact> 0.14249968E+04</totfact>
</mgrwt>
</event>
<event>
 6    1  0.1274196E-001  0.3000000E+03  0.7818608E-02  0.1093470E+00
         21   -1    0    0  501  502  0.00000000000E+00  0.00000000000E+00  0.27161929613E+02  0.27161929613E+02  0.00000000000E+00 0. -1.
         13   -1    0    0    0    0 -0.00000000000E+00 -0.00000000000E+00 -0.10000000000E+04  0.10000000000E+04  0.00000000000E+00 0.  1.
    9000005    2    1    2  501    0 -0.13535575407E+02 -0.35295571744E+02 -0.98630360543E+03  0.98703326380E+03  0.32973576267E+01 0.  0.
         13    1    3    3    0    0 -0.12190648971E+02 -0.29211657384E+02 -0.80218411834E+03  0.80280837849E+03  0.00000000000E+00 0.  1.
          3    1    3    3  501    0 -0.13449264365E+01 -0.60839143596E+01 -0.18411948709E+03  0.18422488531E+03  0.00000000000E+00 0.  1.
         -3    1    1    2    0  502  0.13535575407E+02  0.35295571744E+02  0.13465535044E+02  0.40128665818E+02  0.00000000000E+00 0. -1.
<mgrwt>
<rscale>  1 0.30000000E+03</rscale>
<asrwt>0</asrwt>
<pdfrwt beam="1">  1       21 0.98770861E-01 0.30000000E+03</pdfrwt>
<pdfrwt beam="2">0</pdfrwt>
<totfact> 0.76080936E+01</totfact>
</mgrwt>
</event>
<event>
 6    1  0.1274196E-001  0.3000000E+03  0.7818608E-02  0.1093470E+00
         21   -1    0    0  501  502  0.00000000000E+00  0.00000000000E+00  0.21154264226E+01  0.21154264226E+01  0.00000000000E+00 0. -1.
         13   -1    0    0    0    0 -0.00000000000E+00 -0.00000000000E+00 -0.10000000000E+04  0.10000000000E+04  0.00000000000E+00 0.  1.
    9000005    2    1    2  501    0  0.45650651090E+01  0.43790343699E+02 -0.64139543872E+03  0.64291779657E+03  0.40927147725E+01 0.  0.
         13    1    3    3    0    0  0.37944950792E+01  0.30008928309E+02 -0.41363629793E+03  0.41474078765E+03  0.00000000000E+00 0.  1.
          3    1    3    3  501    0  0.77057002978E+00  0.13781415390E+02 -0.22775914079E+03  0.22817700892E+03  0.00000000000E+00 0.  1.
         -3    1    1    2    0  502 -0.45650651090E+01 -0.43790343699E+02 -0.35648913485E+03  0.35919762985E+03  0.00000000000E+00 0. -1.
<mgrwt>
<rscale>  1 0.30000000E+03</rscale>
<asrwt>0</asrwt>
<pdfrwt beam="1">  1       21 0.76924759E-02 0.30000000E+03</pdfrwt>
<pdfrwt beam="2">0</pdfrwt>
<totfact> 0.13683357E+04</totfact>
</mgrwt>
</event>
<event>
 6    1  0.1274196E-001  0.3000000E+03  0.7818608E-02  0.1093470E+00
         21   -1    0    0  501  502  0.00000000000E+00  0.00000000000E+00  0.33664910717E+01  0.33664910717E+01  0.00000000000E+00 0. -1.
         13   -1    0    0    0    0 -0.00000000000E+00 -0.00000000000E+00 -0.10000000000E+04  0.10000000000E+04  0.00000000000E+00 0.  1.
    9000005    2    1    2  501    0 -0.44775862406E+01 -0.42625443775E+02 -0.83625713369E+03  0.83736179544E+03  0.34359260113E+01 0.  0.
         13    1    3    3    0    0 -0.38719860962E+01 -0.35392685651E+02 -0.66792949305E+03  0.66887774829E+03  0.00000000000E+00 0.  1.
          3    1    3    3  501    0 -0.60560014432E+00 -0.72327581248E+01 -0.16832764064E+03  0.16848404715E+03  0.00000000000E+00 0.  1.
         -1    1    1    2    0  502  0.44775862406E+01  0.42625443775E+02 -0.16037637524E+03  0.16600469563E+03  0.00000000000E+00 0. -1.
<mgrwt>
<rscale>  1 0.30000000E+03</rscale>
<asrwt>0</asrwt>
<pdfrwt beam="1">  1       21 0.12241812E-01 0.30000000E+03</pdfrwt>
<pdfrwt beam="2">0</pdfrwt>
<totfact> 0.59764867E+03</totfact>
</mgrwt>
</event>
<event>
 6    1  0.1274196E-001  0.3000000E+03  0.7818608E-02  0.1093470E+00
         21   -1    0    0  501  502  0.00000000000E+00  0.00000000000E+00  0.31031754942E+01  0.31031754942E+01  0.00000000000E+00 0. -1.
         13   -1    0    0    0    0 -0.00000000000E+00 -0.00000000000E+00 -0.10000000000E+04  0.10000000000E+04  0.00000000000E+00 0.  1.
    9000005    2    1    2  501    0 -0.31710757991E+02 -0.18593278422E+02 -0.87489858905E+03  0.87568711831E+03  0.53949858156E+01 0.  0.
         13    1    3    3    0    0 -0.13556453739E+02 -0.11034678950E+02 -0.40218550562E+03  0.40256517797E+03  0.00000000000E+00 0.  1.
          1    1    3    3  501    0 -0.18154304252E+02 -0.75585994712E+01 -0.47271308343E+03  0.47312194034E+03  0.00000000000E+00 0.  1.
         -3    1    1    2    0  502  0.31710757991E+02  0.18593278422E+02 -0.12199823546E+03  0.12741605719E+03  0.00000000000E+00 0. -1.
<mgrwt>
<rscale>  1 0.30000000E+03</rscale>
<asrwt>0</asrwt>
<pdfrwt beam="1">  1       21 0.11284298E-01 0.30000000E+03</pdfrwt>
<pdfrwt beam="2">0</pdfrwt>
<totfact> 0.69262620E+03</totfact>
</mgrwt>
</event>
<event>
 6    1  0.1274196E-001  0.3000000E+03  0.7818608E-02  0.1093470E+00
         21   -1    0    0  501  502  0.00000000000E+00  0.00000000000E+00  0.58126448332E+01  0.58126448332E+01  0.00000000000E+00 0. -1.
         13   -1    0    0    0    0 -0.00000000000E+00 -0.00000000000E+00 -0.10000000000E+04  0.10000000000E+04  0.00000000000E+00 0.  1.
    9000005    2    1    2  501    0  0.10217408620E+02  0.41526072779E+02 -0.91338338620E+03  0.91439004610E+03  0.33370722555E+01 0.  0.
         13    1    3    3    0    0  0.23056357839E+01  0.52016996481E+01 -0.13306245442E+03  0.13318404714E+03  0.00000000000E+00 0.  1.
          3    1    3    3  501    0  0.79117728366E+01  0.36324373131E+02 -0.78032093178E+03  0.78120599895E+03  0.00000000000E+00 0.  1.
         -1    1    1    2    0  502 -0.10217408620E+02 -0.41526072779E+02 -0.80803968966E+02  0.91422598738E+02  0.00000000000E+00 0. -1.
<mgrwt>
<rscale>  1 0.30000000E+03</rscale>
<asrwt>0</asrwt>
<pdfrwt beam="1">  1       21 0.21136935E-01 0.30000000E+03</pdfrwt>
<pdfrwt beam="2">0</pdfrwt>
<totfact> 0.21583561E+03</totfact>
</mgrwt>
</event>
<event>
 6    1  0.1274196E-001  0.3000000E+03  0.7818608E-02  0.1093470E+00
         21   -1    0    0  501  502  0.00000000000E+00  0.00000000000E+00  0.95911855299E+00  0.95911855299E+00  0.00000000000E+00 0. -1.
         13   -1    0    0    0    0 -0.00000000000E+00 -0.00000000000E+00 -0.10000000000E+04  0.10000000000E+04  0.00000000000E+00 0.  1.
    9000005    2    1    2  501    0 -0.26089431519E+02 -0.15670635626E+02 -0.58534518122E+03  0.58614547408E+03  0.33627882121E+01 0.  0.
         13    1    3    3    0    0 -0.18964661679E+02 -0.12937025296E+02 -0.45042875173E+03  0.45101339825E+03  0.00000000000E+00 0.  1.
          1    1    3    3  501    0 -0.71247698393E+01 -0.27336103292E+01 -0.13491642950E+03  0.13513207583E+03  0.00000000000E+00 0.  1.
         -1    1    1    2    0  502  0.26089431519E+02  0.15670635626E+02 -0.41369570022E+03  0.41481364447E+03  0.00000000000E+00 0. -1.
<mgrwt>
<rscale>  1 0.30000000E+03</rscale>
<asrwt>0</asrwt>
<pdfrwt beam="1">  1       21 0.34877112E-02 0.30000000E+03</pdfrwt>
<pdfrwt beam="2">0</pdfrwt>
<totfact> 0.52927571E+04</totfact>
</mgrwt>
</event>
<event>
 6    1  0.1274196E-001  0.3000000E+03  0.7818608E-02  0.1093470E+00
         21   -1    0    0  501  502  0.00000000000E+00  0.00000000000E+00  0.12561893285E+01  0.12561893285E+01  0.00000000000E+00 0. -1.
         13   -1    0    0    0    0 -0.00000000000E+00 -0.00000000000E+00 -0.10000000000E+04  0.10000000000E+04  0.00000000000E+00 0.  1.
    9000005    2    1    2  501    0  0.15754368057E+02  0.29777756222E+02 -0.35403348382E+03  0.35566628820E+03  0.48873330294E+01 0.  0.
         13    1    3    3    0    0  0.13695048399E+02  0.27025803622E+02 -0.33005977280E+03  0.33144743480E+03  0.00000000000E+00 0.  1.
          1    1    3    3  501    0  0.20593196584E+01  0.27519525997E+01 -0.23973711012E+02  0.24218853405E+02  0.00000000000E+00 0.  1.
         -3    1    1    2    0  502 -0.15754368057E+02 -0.29777756222E+02 -0.64471032686E+03  0.64558990112E+03  0.00000000000E+00 0. -1.
<mgrwt>
<rscale>  1 0.30000000E+03</rscale>
<asrwt>0</asrwt>
<pdfrwt beam="1">  1       21 0.45679708E-02 0.30000000E+03</pdfrwt>
<pdfrwt beam="2">0</pdfrwt>
<totfact> 0.33592156E+04</totfact>
</mgrwt>
</event>
<event>
 6    1  0.1274196E-001  0.3000000E+03  0.7818608E-02  0.1093470E+00
         21   -1    0    0  501  502  0.00000000000E+00  0.00000000000E+00  0.12970545436E+01  0.12970545436E+01  0.00000000000E+00 0. -1.
         13   -1    0    0    0    0 -0.00000000000E+00 -0.00000000000E+00 -0.10000000000E+04  0.10000000000E+04  0.00000000000E+00 0.  1.
    9000005    2    1    2  501    0  0.32018000036E+02 -0.13800408406E+02 -0.62130205851E+03  0.62228909544E+03  0.34448210447E+01 0.  0.
         13    1    3    3    0    0  0.29871022361E+01 -0.34328787440E+00 -0.46550369718E+02  0.46647374494E+02  0.00000000000E+00 0.  1.
          1    1    3    3  501    0  0.29030897800E+02 -0.13457120532E+02 -0.57475168879E+03  0.57564172094E+03  0.00000000000E+00 0.  1.
         -1    1    1    2    0  502 -0.32018000036E+02  0.13800408406E+02 -0.37740088694E+03  0.37900795910E+03  0.00000000000E+00 0. -1.
<mgrwt>
<rscale>  1 0.30000000E+03</rscale>
<asrwt>0</asrwt>
<pdfrwt beam="1">  1       21 0.47165719E-02 0.30000000E+03</pdfrwt>
<pdfrwt beam="2">0</pdfrwt>
<totfact> 0.31813368E+04</totfact>
</mgrwt>
</event>
<event>
 6    1  0.1274196E-001  0.3000000E+03  0.7818608E-02  0.1093470E+00
         21   -1    0    0  501  502  0.00000000000E+00  0.00000000000E+00  0.14713794520E+01  0.14713794520E+01  0.00000000000E+00 0. -1.
         13   -1    0    0    0    0 -0.00000000000E+00 -0.00000000000E+00 -0.10000000000E+04  0.10000000000E+04  0.00000000000E+00 0.  1.
    9000005    2    1    2  501    0 -0.21270318655E+02 -0.26913619985E+02 -0.72234941386E+03  0.72316988178E+03  0.30385559184E+01 0.  0.
         13    1    3    3    0    0 -0.94560740459E+01 -0.12175851081E+02 -0.35652374682E+03  0.35685690512E+03  0.00000000000E+00 0.  1.
          3    1    3    3  501    0 -0.11814244609E+02 -0.14737768904E+02 -0.36582566703E+03  0.36631297666E+03  0.00000000000E+00 0.  1.
         -3    1    1    2    0  502  0.21270318655E+02  0.26913619985E+02 -0.27617920669E+03  0.27830149767E+03  0.00000000000E+00 0. -1.
<mgrwt>
<rscale>  1 0.30000000E+03</rscale>
<asrwt>0</asrwt>
<pdfrwt beam="1">  1       21 0.53504820E-02 0.30000000E+03</pdfrwt>
<pdfrwt beam="2">0</pdfrwt>
<totfact> 0.25657347E+04</totfact>
</mgrwt>
</event>
<event>
 6    1  0.1274196E-001  0.3000000E+03  0.7818608E-02  0.1093470E+00
         21   -1    0    0  501  502  0.00000000000E+00  0.00000000000E+00  0.50460368435E+01  0.50460368435E+01  0.00000000000E+00 0. -1.
         13   -1    0    0    0    0 -0.00000000000E+00 -0.00000000000E+00 -0.10000000000E+04  0.10000000000E+04  0.00000000000E+00 0.  1.
    9000005    2    1    2  501    0 -0.49757485173E+02  0.50642117459E+02 -0.49908693608E+03  0.50412235011E+03  0.33380713901E+01 0.  0.
         13    1    3    3    0    0 -0.32321869463E+01  0.42866984056E+01 -0.34074894561E+02  0.34495235251E+02  0.00000000000E+00 0.  1.
          1    1    3    3  501    0 -0.46525298227E+02  0.46355419054E+02 -0.46501204152E+03  0.46962711486E+03  0.00000000000E+00 0.  1.
         -1    1    1    2    0  502  0.49757485173E+02 -0.50642117459E+02 -0.49586702708E+03  0.50092368673E+03  0.00000000000E+00 0. -1.
<mgrwt>
<rscale>  1 0.30000000E+03</rscale>
<asrwt>0</asrwt>
<pdfrwt beam="1">  1       21 0.18349264E-01 0.30000000E+03</pdfrwt>
<pdfrwt beam="2">0</pdfrwt>
<totfact> 0.28253059E+03</totfact>
</mgrwt>
</event>
<event>
 6    1  0.1274196E-001  0.3000000E+03  0.7818608E-02  0.1093470E+00
         21   -1    0    0  501  502  0.00000000000E+00  0.00000000000E+00  0.13120149694E+02  0.13120149694E+02  0.00000000000E+00 0. -1.
         13   -1    0    0    0    0 -0.00000000000E+00 -0.00000000000E+00 -0.10000000000E+04  0.10000000000E+04  0.00000000000E+00 0.  1.
    9000005    2    1    2  501    0  0.99259599976E+02 -0.24465373544E+02 -0.72175112683E+03  0.72896480010E+03  0.37373811364E+01 0.  0.
         13    1    3    3    0    0  0.19316159897E+02 -0.54819416852E+01 -0.13263230867E+03  0.13414356124E+03  0.00000000000E+00 0.  1.
          1    1    3    3  501    0  0.79943440078E+02 -0.18983431859E+02 -0.58911881816E+03  0.59482123887E+03  0.00000000000E+00 0.  1.
         -1    1    1    2    0  502 -0.99259599976E+02  0.24465373544E+02 -0.26512872347E+03  0.28415534959E+03  0.00000000000E+00 0. -1.
<mgrwt>
<rscale>  1 0.30000000E+03</rscale>
<asrwt>0</asrwt>
<pdfrwt beam="1">  1       21 0.47709736E-01 0.30000000E+03</pdfrwt>
<pdfrwt beam="2">0</pdfrwt>
<totfact> 0.41572997E+02</totfact>
</mgrwt>
</event>
<event>
 6    1  0.1274196E-001  0.3000000E+03  0.7818608E-02  0.1093470E+00
         21   -1    0    0  501  502  0.00000000000E+00  0.00000000000E+00  0.23475092885E+01  0.23475092885E+01  0.00000000000E+00 0. -1.
         13   -1    0    0    0    0 -0.00000000000E+00 -0.00000000000E+00 -0.10000000000E+04  0.10000000000E+04  0.00000000000E+00 0.  1.
    9000005    2    1    2  501    0 -0.30479891230E+02  0.17765772740E+02 -0.84179299673E+03  0.84254504274E+03  0.46960892138E+01 0.  0.
         13    1    3    3    0    0 -0.29825568284E+02  0.17896629140E+02 -0.83341033844E+03  0.83413586787E+03  0.00000000000E+00 0.  1.
          3    1    3    3  501    0 -0.65432294546E+00 -0.13085639944E+00 -0.83826582868E+01  0.84091748625E+01  0.00000000000E+00 0.  1.
         -1    1    1    2    0  502  0.30479891230E+02 -0.17765772740E+02 -0.15585949399E+03  0.15980246655E+03  0.00000000000E+00 0. -1.
<mgrwt>
<rscale>  1 0.30000000E+03</rscale>
<asrwt>0</asrwt>
<pdfrwt beam="1">  1       21 0.85364154E-02 0.30000000E+03</pdfrwt>
<pdfrwt beam="2">0</pdfrwt>
<totfact> 0.11395023E+04</totfact>
</mgrwt>
</event>
<event>
 6    1  0.1274196E-001  0.3000000E+03  0.7818608E-02  0.1093470E+00
         21   -1    0    0  501  502  0.00000000000E+00  0.00000000000E+00  0.30369455270E+01  0.30369455270E+01  0.00000000000E+00 0. -1.
         13   -1    0    0    0    0 -0.00000000000E+00 -0.00000000000E+00 -0.10000000000E+04  0.10000000000E+04  0.00000000000E+00 0.  1.
    9000005    2    1    2  501    0  0.18476056123E+02 -0.49916625122E+02 -0.62696713950E+03  0.62923216865E+03  0.35062726035E+01 0.  0.
         13    1    3    3    0    0  0.84010357583E+01 -0.17843061689E+02 -0.23368075095E+03  0.23451150423E+03  0.00000000000E+00 0.  1.
          3    1    3    3  501    0  0.10075020365E+02 -0.32073563434E+02 -0.39328638855E+03  0.39472066442E+03  0.00000000000E+00 0.  1.
         -3    1    1    2    0  502 -0.18476056123E+02  0.49916625122E+02 -0.36999591498E+03  0.37380477687E+03  0.00000000000E+00 0. -1.
<mgrwt>
<rscale>  1 0.30000000E+03</rscale>
<asrwt>0</asrwt>
<pdfrwt beam="1">  1       21 0.11043462E-01 0.30000000E+03</pdfrwt>
<pdfrwt beam="2">0</pdfrwt>
<totfact> 0.72007470E+03</totfact>
</mgrwt>
</event>
<event>
 6    1  0.1274196E-001  0.3000000E+03  0.7818608E-02  0.1093470E+00
         21   -1    0    0  501  502  0.00000000000E+00  0.00000000000E+00  0.20610631109E+01  0.20610631109E+01  0.00000000000E+00 0. -1.
         13   -1    0    0    0    0 -0.00000000000E+00 -0.00000000000E+00 -0.10000000000E+04  0.10000000000E+04  0.00000000000E+00 0.  1.
    9000005    2    1    2  501    0  0.33007197745E+02 -0.26076022473E+02 -0.68643225600E+03  0.68772709058E+03  0.31424487447E+01 0.  0.
         13    1    3    3    0    0  0.14649143764E+02 -0.10049484123E+02 -0.30566933106E+03  0.30618512292E+03  0.00000000000E+00 0.  1.
          1    1    3    3  501    0  0.18358053981E+02 -0.16026538349E+02 -0.38076292494E+03  0.38154196766E+03  0.00000000000E+00 0.  1.
         -3    1    1    2    0  502 -0.33007197745E+02  0.26076022473E+02 -0.31150668089E+03  0.31433397253E+03  0.00000000000E+00 0. -1.
<mgrwt>
<rscale>  1 0.30000000E+03</rscale>
<asrwt>0</asrwt>
<pdfrwt beam="1">  1       21 0.74947908E-02 0.30000000E+03</pdfrwt>
<pdfrwt beam="2">0</pdfrwt>
<totfact> 0.14321875E+04</totfact>
</mgrwt>
</event>
<event>
 6    1  0.1274196E-001  0.3000000E+03  0.7818608E-02  0.1093470E+00
         21   -1    0    0  501  502  0.00000000000E+00  0.00000000000E+00  0.27563485918E+01  0.27563485918E+01  0.00000000000E+00 0. -1.
         13   -1    0    0    0    0 -0.00000000000E+00 -0.00000000000E+00 -0.10000000000E+04  0.10000000000E+04  0.00000000000E+00 0.  1.
    9000005    2    1    2  501    0 -0.10703699276E+01 -0.40052386546E+02 -0.82226541702E+03  0.82324946329E+03  0.37314107761E+01 0.  0.
         13    1    3    3    0    0 -0.16073387057E+01 -0.74997647878E+01 -0.14874128504E+03  0.14893891326E+03  0.00000000000E+00 0.  1.
          3    1    3    3  501    0  0.53696877807E+00 -0.32552621758E+02 -0.67352413198E+03  0.67431055003E+03  0.00000000000E+00 0.  1.
         -3    1    1    2    0  502  0.10703699276E+01  0.40052386546E+02 -0.17497823439E+03  0.17950688530E+03  0.00000000000E+00 0. -1.
<mgrwt>
<rscale>  1 0.30000000E+03</rscale>
<asrwt>0</asrwt>
<pdfrwt beam="1">  1       21 0.10023107E-01 0.30000000E+03</pdfrwt>
<pdfrwt beam="2">0</pdfrwt>
<totfact> 0.85677881E+03</totfact>
</mgrwt>
</event>
<event>
 6    1  0.1274196E-001  0.3000000E+03  0.7818608E-02  0.1093470E+00
         21   -1    0    0  501  502  0.00000000000E+00  0.00000000000E+00  0.37127712242E+01  0.37127712242E+01  0.00000000000E+00 0. -1.
         13   -1    0    0    0    0 -0.00000000000E+00 -0.00000000000E+00 -0.10000000000E+04  0.10000000000E+04  0.00000000000E+00 0.  1.
    9000005    2    1    2  501    0 -0.34962393036E+02 -0.29759102917E+01 -0.90836797203E+03  0.90905010342E+03  0.29142667804E+01 0.  0.
         13    1    3    3    0    0 -0.60803799077E+01 -0.11784686028E+01 -0.13833332298E+03  0.13847190349E+03  0.00000000000E+00 0.  1.
          1    1    3    3  501    0 -0.28882013129E+02 -0.17974416888E+01 -0.77003464905E+03  0.77057819993E+03  0.00000000000E+00 0.  1.
         -1    1    1    2    0  502  0.34962393036E+02  0.29759102917E+01 -0.87919256745E+02  0.94662667803E+02  0.00000000000E+00 0. -1.
<mgrwt>
<rscale>  1 0.30000000E+03</rscale>
<asrwt>0</asrwt>
<pdfrwt beam="1">  1       21 0.13501015E-01 0.30000000E+03</pdfrwt>
<pdfrwt beam="2">0</pdfrwt>
<totfact> 0.49986132E+03</totfact>
</mgrwt>
</event>
<event>
 6    1  0.1274196E-001  0.3000000E+03  0.7818608E-02  0.1093470E+00
         21   -1    0    0  501  502  0.00000000000E+00  0.00000000000E+00  0.13352463227E+01  0.13352463227E+01  0.00000000000E+00 0. -1.
         13   -1    0    0    0    0 -0.00000000000E+00 -0.00000000000E+00 -0.10000000000E+04  0.10000000000E+04  0.00000000000E+00 0.  1.
    9000005    2    1    2  501    0  0.23808524386E+02 -0.25498328556E+02 -0.64589447770E+03  0.64684423345E+03  0.32825957671E+01 0.  0.
         13    1    3    3    0    0  0.46476222724E+01 -0.40342917505E+01 -0.13499453492E+03  0.13513474890E+03  0.00000000000E+00 0.  1.
          1    1    3    3  501    0  0.19160902114E+02 -0.21464036805E+02 -0.51089994278E+03  0.51170948455E+03  0.00000000000E+00 0.  1.
         -3    1    1    2    0  502 -0.23808524386E+02  0.25498328556E+02 -0.35277027598E+03  0.35449101288E+03  0.00000000000E+00 0. -1.
<mgrwt>
<rscale>  1 0.30000000E+03</rscale>
<asrwt>0</asrwt>
<pdfrwt beam="1">  1       21 0.48554514E-02 0.30000000E+03</pdfrwt>
<pdfrwt beam="2">0</pdfrwt>
<totfact> 0.30280743E+04</totfact>
</mgrwt>
</event>
<event>
 6    1  0.1274196E-001  0.3000000E+03  0.7818608E-02  0.1093470E+00
         21   -1    0    0  501  502  0.00000000000E+00  0.00000000000E+00  0.13110855058E+01  0.13110855058E+01  0.00000000000E+00 0. -1.
         13   -1    0    0    0    0 -0.00000000000E+00 -0.00000000000E+00 -0.10000000000E+04  0.10000000000E+04  0.00000000000E+00 0.  1.
    9000005    2    1    2  501    0  0.23257058081E+02 -0.24899747272E+02 -0.66585790402E+03  0.66674065989E+03  0.39333239220E+01 0.  0.
         13    1    3    3    0    0  0.15200517329E+02 -0.17153362339E+02 -0.41227315494E+03  0.41290973330E+03  0.00000000000E+00 0.  1.
          1    1    3    3  501    0  0.80565407524E+01 -0.77463849332E+01 -0.25358474908E+03  0.25383092659E+03  0.00000000000E+00 0.  1.
         -3    1    1    2    0  502 -0.23257058081E+02  0.24899747272E+02 -0.33283101047E+03  0.33457042561E+03  0.00000000000E+00 0. -1.
<mgrwt>
<rscale>  1 0.30000000E+03</rscale>
<asrwt>0</asrwt>
<pdfrwt beam="1">  1       21 0.47675937E-02 0.30000000E+03</pdfrwt>
<pdfrwt beam="2">0</pdfrwt>
<totfact> 0.31236490E+04</totfact>
</mgrwt>
</event>
<event>
 6    1  0.1274196E-001  0.3000000E+03  0.7818608E-02  0.1093470E+00
         21   -1    0    0  501  502  0.00000000000E+00  0.00000000000E+00  0.40048606414E+01  0.40048606414E+01  0.00000000000E+00 0. -1.
         13   -1    0    0    0    0 -0.00000000000E+00 -0.00000000000E+00 -0.10000000000E+04  0.10000000000E+04  0.00000000000E+00 0.  1.
    9000005    2    1    2  501    0  0.33542401741E+02 -0.14915948065E+02 -0.90683299928E+03  0.90758149498E+03  0.32408693260E+01 0.  0.
         13    1    3    3    0    0  0.19187570441E+02 -0.82086221974E+01 -0.55386996995E+03  0.55426301334E+03  0.00000000000E+00 0.  1.
          1    1    3    3  501    0  0.14354831301E+02 -0.67073258679E+01 -0.35296302932E+03  0.35331848164E+03  0.00000000000E+00 0.  1.
         -1    1    1    2    0  502 -0.33542401741E+02  0.14915948065E+02 -0.89162140083E+02  0.96423365661E+02  0.00000000000E+00 0. -1.
<mgrwt>
<rscale>  1 0.30000000E+03</rscale>
<asrwt>0</asrwt>
<pdfrwt beam="1">  1       21 0.14563160E-01 0.30000000E+03</pdfrwt>
<pdfrwt beam="2">0</pdfrwt>
<totfact> 0.43491748E+03</totfact>
</mgrwt>
</event>
<event>
 6    1  0.1274196E-001  0.3000000E+03  0.7818608E-02  0.1093470E+00
         21   -1    0    0  501  502  0.00000000000E+00  0.00000000000E+00  0.14033951671E+01  0.14033951671E+01  0.00000000000E+00 0. -1.
         13   -1    0    0    0    0 -0.00000000000E+00 -0.00000000000E+00 -0.10000000000E+04  0.10000000000E+04  0.00000000000E+00 0.  1.
    9000005    2    1    2  501    0  0.25734561632E+02 -0.19318424185E+02 -0.75444533526E+03  0.75514070695E+03  0.37754757659E+01 0.  0.
         13    1    3    3    0    0  0.19392404204E+02 -0.16092023669E+02 -0.56465291244E+03  0.56521494150E+03  0.00000000000E+00 0.  1.
          3    1    3    3  501    0  0.63421574278E+01 -0.32264005166E+01 -0.18979242283E+03  0.18992576545E+03  0.00000000000E+00 0.  1.
         -1    1    1    2    0  502 -0.25734561632E+02  0.19318424185E+02 -0.24415126957E+03  0.24626268822E+03  0.00000000000E+00 0. -1.
<mgrwt>
<rscale>  1 0.30000000E+03</rscale>
<asrwt>0</asrwt>
<pdfrwt beam="1">  1       21 0.51032659E-02 0.30000000E+03</pdfrwt>
<pdfrwt beam="2">0</pdfrwt>
<totfact> 0.27817618E+04</totfact>
</mgrwt>
</event>
<event>
 6    1  0.1274196E-001  0.3000000E+03  0.7818608E-02  0.1093470E+00
         21   -1    0    0  501  502  0.00000000000E+00  0.00000000000E+00  0.51934164525E+01  0.51934164525E+01  0.00000000000E+00 0. -1.
         13   -1    0    0    0    0 -0.00000000000E+00 -0.00000000000E+00 -0.10000000000E+04  0.10000000000E+04  0.00000000000E+00 0.  1.
    9000005    2    1    2  501    0  0.14205677552E+02 -0.44731395326E+02 -0.87872687746E+03  0.87998480186E+03  0.31027943968E+01 0.  0.
         13    1    3    3    0    0  0.11872422238E+01 -0.32756707980E+01 -0.81883820760E+02  0.81957913990E+02  0.00000000000E+00 0.  1.
          1    1    3    3  501    0  0.13018435329E+02 -0.41455724528E+02 -0.79684305670E+03  0.79802688787E+03  0.00000000000E+00 0.  1.
         -3    1    1    2    0  502 -0.14205677552E+02  0.44731395326E+02 -0.11607970609E+03  0.12520861459E+03  0.00000000000E+00 0. -1.
<mgrwt>
<rscale>  1 0.30000000E+03</rscale>
<asrwt>0</asrwt>
<pdfrwt beam="1">  1       21 0.18885191E-01 0.30000000E+03</pdfrwt>
<pdfrwt beam="2">0</pdfrwt>
<totfact> 0.26756386E+03</totfact>
</mgrwt>
</event>
<event>
 6    1  0.1274196E-001  0.3000000E+03  0.7818608E-02  0.1093470E+00
         21   -1    0    0  501  502  0.00000000000E+00  0.00000000000E+00  0.11855922787E+01  0.11855922787E+01  0.00000000000E+00 0. -1.
         13   -1    0    0    0    0 -0.00000000000E+00 -0.00000000000E+00 -0.10000000000E+04  0.10000000000E+04  0.00000000000E+00 0.  1.
    9000005    2    1    2  501    0  0.30266241648E+02 -0.14732168666E+02 -0.59897056649E+03  0.59992734682E+03  0.37416260307E+01 0.  0.
         13    1    3    3    0    0  0.20713328213E+02 -0.10355980371E+02 -0.38024698039E+03  0.38095151187E+03  0.00000000000E+00 0.  1.
          3    1    3    3  501    0  0.95529134348E+01 -0.43761882953E+01 -0.21872358609E+03  0.21897583495E+03  0.00000000000E+00 0.  1.
         -1    1    1    2    0  502 -0.30266241648E+02  0.14732168666E+02 -0.39984384123E+03  0.40125824546E+03  0.00000000000E+00 0. -1.
<mgrwt>
<rscale>  1 0.30000000E+03</rscale>
<asrwt>0</asrwt>
<pdfrwt beam="1">  1       21 0.43112537E-02 0.30000000E+03</pdfrwt>
<pdfrwt beam="2">0</pdfrwt>
<totfact> 0.37052581E+04</totfact>
</mgrwt>
</event>
<event>
 6    1  0.1274196E-001  0.3000000E+03  0.7818608E-02  0.1093470E+00
         21   -1    0    0  501  502  0.00000000000E+00  0.00000000000E+00  0.11858330819E+02  0.11858330819E+02  0.00000000000E+00 0. -1.
         13   -1    0    0    0    0 -0.00000000000E+00 -0.00000000000E+00 -0.10000000000E+04  0.10000000000E+04  0.00000000000E+00 0.  1.
    9000005    2    1    2  501    0 -0.10408333108E+02  0.38011267349E+02 -0.96569242735E+03  0.96650242379E+03  0.34468990291E+01 0.  0.
         13    1    3    3    0    0 -0.91404544184E+01  0.27636461958E+02 -0.71188278507E+03  0.71247766394E+03  0.00000000000E+00 0.  1.
          1    1    3    3  501    0 -0.12678786896E+01  0.10374805391E+02 -0.25380964228E+03  0.25402475985E+03  0.00000000000E+00 0.  1.
         -1    1    1    2    0  502  0.10408333108E+02 -0.38011267349E+02 -0.22449241834E+02  0.45355907029E+02  0.00000000000E+00 0. -1.
<mgrwt>
<rscale>  1 0.30000000E+03</rscale>
<asrwt>0</asrwt>
<pdfrwt beam="1">  1       21 0.43121294E-01 0.30000000E+03</pdfrwt>
<pdfrwt beam="2">0</pdfrwt>
<totfact> 0.51571764E+02</totfact>
</mgrwt>
</event>
<event>
 6    1  0.1274196E-001  0.3000000E+03  0.7818608E-02  0.1093470E+00
         21   -1    0    0  501  502  0.00000000000E+00  0.00000000000E+00  0.13757906326E+01  0.13757906326E+01  0.00000000000E+00 0. -1.
         13   -1    0    0    0    0 -0.00000000000E+00 -0.00000000000E+00 -0.10000000000E+04  0.10000000000E+04  0.00000000000E+00 0.  1.
    9000005    2    1    2  501    0 -0.17484009136E+02  0.24890045630E+02 -0.78516762845E+03  0.78576290400E+03  0.31514414282E+01 0.  0.
         13    1    3    3    0    0 -0.17712519411E+00  0.13462801976E+01 -0.33233801909E+02  0.33261530828E+02  0.00000000000E+00 0.  1.
          3    1    3    3  501    0 -0.17306883942E+02  0.23543765432E+02 -0.75193382654E+03  0.75250137317E+03  0.00000000000E+00 0.  1.
         -3    1    1    2    0  502  0.17484009136E+02 -0.24890045630E+02 -0.21345658092E+03  0.21561288664E+03  0.00000000000E+00 0. -1.
<mgrwt>
<rscale>  1 0.30000000E+03</rscale>
<asrwt>0</asrwt>
<pdfrwt beam="1">  1       21 0.50028856E-02 0.30000000E+03</pdfrwt>
<pdfrwt beam="2">0</pdfrwt>
<totfact> 0.28776338E+04</totfact>
</mgrwt>
</event>
<event>
 6    1  0.1274196E-001  0.3000000E+03  0.7818608E-02  0.1093470E+00
         21   -1    0    0  501  502  0.00000000000E+00  0.00000000000E+00  0.25212208263E+01  0.25212208263E+01  0.00000000000E+00 0. -1.
         13   -1    0    0    0    0 -0.00000000000E+00 -0.00000000000E+00 -0.10000000000E+04  0.10000000000E+04  0.00000000000E+00 0.  1.
    9000005    2    1    2  501    0 -0.29691484118E+02 -0.48705301126E+01 -0.89974506141E+03  0.90026083807E+03  0.48056992892E+01 0.  0.
         13    1    3    3    0    0 -0.15457686229E+02 -0.11079309600E+01 -0.40373404723E+03  0.40403137065E+03  0.00000000000E+00 0.  1.
          3    1    3    3  501    0 -0.14233797889E+02 -0.37625991526E+01 -0.49601101418E+03  0.49622946742E+03  0.00000000000E+00 0.  1.
         -1    1    1    2    0  502  0.29691484118E+02  0.48705301126E+01 -0.97733717765E+02  0.10226038275E+03  0.00000000000E+00 0. -1.
<mgrwt>
<rscale>  1 0.30000000E+03</rscale>
<asrwt>0</asrwt>
<pdfrwt beam="1">  1       21 0.91680951E-02 0.30000000E+03</pdfrwt>
<pdfrwt beam="2">0</pdfrwt>
<totfact> 0.10043082E+04</totfact>
</mgrwt>
</event>
<event>
 6    1  0.1274196E-001  0.3000000E+03  0.7818608E-02  0.1093470E+00
         21   -1    0    0  501  502  0.00000000000E+00  0.00000000000E+00  0.96512470027E+00  0.96512470027E+00  0.00000000000E+00 0. -1.
         13   -1    0    0    0    0 -0.00000000000E+00 -0.00000000000E+00 -0.10000000000E+04  0.10000000000E+04  0.00000000000E+00 0.  1.
    9000005    2    1    2  501    0  0.26682344997E+02 -0.14678297595E+02 -0.59184806929E+03  0.59264111739E+03  0.34578820114E+01 0.  0.
         13    1    3    3    0    0  0.56852279595E+01 -0.23337031865E+01 -0.14418305711E+03  0.14431397002E+03  0.00000000000E+00 0.  1.
          3    1    3    3  501    0  0.20997117038E+02 -0.12344594409E+02 -0.44766501218E+03  0.44832714737E+03  0.00000000000E+00 0.  1.
         -3    1    1    2    0  502 -0.26682344997E+02  0.14678297595E+02 -0.40718680601E+03  0.40832400731E+03  0.00000000000E+00 0. -1.
<mgrwt>
<rscale>  1 0.30000000E+03</rscale>
<asrwt>0</asrwt>
<pdfrwt beam="1">  1       21 0.35095518E-02 0.30000000E+03</pdfrwt>
<pdfrwt beam="2">0</pdfrwt>
<totfact> 0.52377212E+04</totfact>
</mgrwt>
</event>
<event>
 6    1  0.1274196E-001  0.3000000E+03  0.7818608E-02  0.1093470E+00
         21   -1    0    0  501  502  0.00000000000E+00  0.00000000000E+00  0.27031125582E+01  0.27031125582E+01  0.00000000000E+00 0. -1.
         13   -1    0    0    0    0 -0.00000000000E+00 -0.00000000000E+00 -0.10000000000E+04  0.10000000000E+04  0.00000000000E+00 0.  1.
    9000005    2    1    2  501    0 -0.46920547850E+02  0.58188302847E+01 -0.70615327748E+03  0.70774549150E+03  0.39790516245E+01 0.  0.
         13    1    3    3    0    0 -0.37842260557E+00  0.39967890079E+00 -0.56090121858E+01  0.56359528558E+01  0.00000000000E+00 0.  1.
          1    1    3    3  501    0 -0.46542125244E+02  0.54191513839E+01 -0.70054426529E+03  0.70210953864E+03  0.00000000000E+00 0.  1.
         -1    1    1    2    0  502  0.46920547850E+02 -0.58188302847E+01 -0.29114360997E+03  0.29495762106E+03  0.00000000000E+00 0. -1.
<mgrwt>
<rscale>  1 0.30000000E+03</rscale>
<asrwt>0</asrwt>
<pdfrwt beam="1">  1       21 0.98295209E-02 0.30000000E+03</pdfrwt>
<pdfrwt beam="2">0</pdfrwt>
<totfact> 0.88714925E+03</totfact>
</mgrwt>
</event>
<event>
 6    1  0.1274196E-001  0.3000000E+03  0.7818608E-02  0.1093470E+00
         21   -1    0    0  501  502  0.00000000000E+00  0.00000000000E+00  0.36748559609E+01  0.36748559609E+01  0.00000000000E+00 0. -1.
         13   -1    0    0    0    0 -0.00000000000E+00 -0.00000000000E+00 -0.10000000000E+04  0.10000000000E+04  0.00000000000E+00 0.  1.
    9000005    2    1    2  501    0  0.99186951221E-01 -0.40234483230E+02 -0.87303710052E+03  0.87398767405E+03  0.64693134603E+01 0.  0.
         13    1    3    3    0    0 -0.39864914722E+00 -0.36213883794E+02 -0.81819904683E+03  0.81900017371E+03  0.00000000000E+00 0.  1.
          1    1    3    3  501    0  0.49783609844E+00 -0.40205994365E+01 -0.54838053691E+02  0.54987500336E+02  0.00000000000E+00 0.  1.
         -1    1    1    2    0  502 -0.99186951221E-01  0.40234483230E+02 -0.12328804352E+03  0.12968718191E+03  0.00000000000E+00 0. -1.
<mgrwt>
<rscale>  1 0.30000000E+03</rscale>
<asrwt>0</asrwt>
<pdfrwt beam="1">  1       21 0.13363141E-01 0.30000000E+03</pdfrwt>
<pdfrwt beam="2">0</pdfrwt>
<totfact> 0.50934326E+03</totfact>
</mgrwt>
</event>
<event>
 6    1  0.1274196E-001  0.3000000E+03  0.7818608E-02  0.1093470E+00
         21   -1    0    0  501  502  0.00000000000E+00  0.00000000000E+00  0.10692973680E+01  0.10692973680E+01  0.00000000000E+00 0. -1.
         13   -1    0    0    0    0 -0.00000000000E+00 -0.00000000000E+00 -0.10000000000E+04  0.10000000000E+04  0.00000000000E+00 0.  1.
    9000005    2    1    2  501    0 -0.29632091229E+02  0.13517229873E+02 -0.46517397887E+03  0.46631980789E+03  0.25605234361E+01 0.  0.
         13    1    3    3    0    0 -0.14293042237E+02  0.56959820247E+01 -0.23434968199E+03  0.23485422865E+03  0.00000000000E+00 0.  1.
          1    1    3    3  501    0 -0.15339048992E+02  0.78212478488E+01 -0.23082429689E+03  0.23146557924E+03  0.00000000000E+00 0.  1.
         -3    1    1    2    0  502  0.29632091229E+02 -0.13517229873E+02 -0.53375672376E+03  0.53474948948E+03  0.00000000000E+00 0. -1.
<mgrwt>
<rscale>  1 0.30000000E+03</rscale>
<asrwt>0</asrwt>
<pdfrwt beam="1">  1       21 0.38883623E-02 0.30000000E+03</pdfrwt>
<pdfrwt beam="2">0</pdfrwt>
<totfact> 0.44098765E+04</totfact>
</mgrwt>
</event>
<event>
 6    1  0.1274196E-001  0.3000000E+03  0.7818608E-02  0.1093470E+00
         21   -1    0    0  501  502  0.00000000000E+00  0.00000000000E+00  0.45566014744E+01  0.45566014744E+01  0.00000000000E+00 0. -1.
         13   -1    0    0    0    0 -0.00000000000E+00 -0.00000000000E+00 -0.10000000000E+04  0.10000000000E+04  0.00000000000E+00 0.  1.
    9000005    2    1    2  501    0  0.55079274844E+02  0.23150591557E+02 -0.73114284891E+03  0.73358712546E+03  0.32447981484E+01 0.  0.
         13    1    3    3    0    0  0.44344382538E+02  0.18225194376E+02 -0.60118298428E+03  0.60309167011E+03  0.00000000000E+00 0.  1.
          3    1    3    3  501    0  0.10734892306E+02  0.49253971812E+01 -0.12995986464E+03  0.13049545535E+03  0.00000000000E+00 0.  1.
         -3    1    1    2    0  502 -0.55079274844E+02 -0.23150591557E+02 -0.26430054961E+03  0.27096947602E+03  0.00000000000E+00 0. -1.
<mgrwt>
<rscale>  1 0.30000000E+03</rscale>
<asrwt>0</asrwt>
<pdfrwt beam="1">  1       21 0.16569495E-01 0.30000000E+03</pdfrwt>
<pdfrwt beam="2">0</pdfrwt>
<totfact> 0.34218522E+03</totfact>
</mgrwt>
</event>
<event>
 6    1  0.1274196E-001  0.3000000E+03  0.7818608E-02  0.1093470E+00
         21   -1    0    0  501  502  0.00000000000E+00  0.00000000000E+00  0.57636173046E+02  0.57636173046E+02  0.00000000000E+00 0. -1.
         13   -1    0    0    0    0 -0.00000000000E+00 -0.00000000000E+00 -0.10000000000E+04  0.10000000000E+04  0.00000000000E+00 0.  1.
    9000005    2    1    2  501    0 -0.35400982191E+02 -0.35625433423E+02 -0.98829540134E+03  0.98957656262E+03  0.34017544442E+01 0.  0.
         13    1    3    3    0    0 -0.19015291221E+02 -0.17254496848E+02 -0.52547106765E+03  0.52609803449E+03  0.00000000000E+00 0.  1.
          1    1    3    3  501    0 -0.16385690970E+02 -0.18370936575E+02 -0.46282433369E+03  0.46347852812E+03  0.00000000000E+00 0.  1.
         -3    1    1    2    0  502  0.35400982191E+02  0.35625433423E+02  0.45931574381E+02  0.68059610429E+02  0.00000000000E+00 0. -1.
<mgrwt>
<rscale>  1 0.30000000E+03</rscale>
<asrwt>0</asrwt>
<pdfrwt beam="1">  1       21 0.20958653E+00 0.30000000E+03</pdfrwt>
<pdfrwt beam="2">0</pdfrwt>
<totfact> 0.80170980E+00</totfact>
</mgrwt>
</event>
<event>
 6    1  0.1274196E-001  0.3000000E+03  0.7818608E-02  0.1093470E+00
         21   -1    0    0  501  502  0.00000000000E+00  0.00000000000E+00  0.18922379023E+01  0.18922379023E+01  0.00000000000E+00 0. -1.
         13   -1    0    0    0    0 -0.00000000000E+00 -0.00000000000E+00 -0.10000000000E+04  0.10000000000E+04  0.00000000000E+00 0.  1.
    9000005    2    1    2  501    0  0.24742057171E+02  0.35023981403E+02 -0.53676792754E+03  0.53856374578E+03  0.96047676798E+01 0.  0.
         13    1    3    3    0    0  0.39677393802E+01  0.10711455307E+02 -0.18166408367E+03  0.18202284892E+03  0.00000000000E+00 0.  1.
          3    1    3    3  501    0  0.20774317791E+02  0.24312526097E+02 -0.35510384387E+03  0.35654089686E+03  0.00000000000E+00 0.  1.
         -1    1    1    2    0  502 -0.24742057171E+02 -0.35023981403E+02 -0.46133983455E+03  0.46332849212E+03  0.00000000000E+00 0. -1.
<mgrwt>
<rscale>  1 0.30000000E+03</rscale>
<asrwt>0</asrwt>
<pdfrwt beam="1">  1       21 0.68808796E-02 0.30000000E+03</pdfrwt>
<pdfrwt beam="2">0</pdfrwt>
<totfact> 0.16624189E+04</totfact>
</mgrwt>
</event>
<event>
 6    1  0.1274196E-001  0.3000000E+03  0.7818608E-02  0.1093470E+00
         21   -1    0    0  501  502  0.00000000000E+00  0.00000000000E+00  0.15899429429E+01  0.15899429429E+01  0.00000000000E+00 0. -1.
         13   -1    0    0    0    0 -0.00000000000E+00 -0.00000000000E+00 -0.10000000000E+04  0.10000000000E+04  0.00000000000E+00 0.  1.
    9000005    2    1    2  501    0  0.37205029962E+02  0.92426728533E+01 -0.63549025934E+03  0.63665101540E+03  0.26465915788E+01 0.  0.
         13    1    3    3    0    0  0.15790945388E+02  0.42015077923E+01 -0.29227456855E+03  0.29273098579E+03  0.00000000000E+00 0.  1.
          3    1    3    3  501    0  0.21414084574E+02  0.50411650610E+01 -0.34321569079E+03  0.34392002961E+03  0.00000000000E+00 0.  1.
         -3    1    1    2    0  502 -0.37205029962E+02 -0.92426728533E+01 -0.36291979772E+03  0.36493892754E+03  0.00000000000E+00 0. -1.
<mgrwt>
<rscale>  1 0.30000000E+03</rscale>
<asrwt>0</asrwt>
<pdfrwt beam="1">  1       21 0.57816229E-02 0.30000000E+03</pdfrwt>
<pdfrwt beam="2">0</pdfrwt>
<totfact> 0.22461980E+04</totfact>
</mgrwt>
</event>
<event>
 6    1  0.1274196E-001  0.3000000E+03  0.7818608E-02  0.1093470E+00
         21   -1    0    0  501  502  0.00000000000E+00  0.00000000000E+00  0.29399844831E+01  0.29399844831E+01  0.00000000000E+00 0. -1.
         13   -1    0    0    0    0 -0.00000000000E+00 -0.00000000000E+00 -0.10000000000E+04  0.10000000000E+04  0.00000000000E+00 0.  1.
    9000005    2    1    2  501    0 -0.34935760919E+02 -0.26105715015E+02 -0.79612477934E+03  0.79732630575E+03  0.35436991608E+01 0.  0.
         13    1    3    3    0    0 -0.26755925120E+02 -0.21752391685E+02 -0.62153201567E+03  0.62248782525E+03  0.00000000000E+00 0.  1.
          3    1    3    3  501    0 -0.81798357992E+01 -0.43533233296E+01 -0.17459276367E+03  0.17483848050E+03  0.00000000000E+00 0.  1.
         -1    1    1    2    0  502  0.34935760919E+02  0.26105715015E+02 -0.20093523617E+03  0.20561367874E+03  0.00000000000E+00 0. -1.
<mgrwt>
<rscale>  1 0.30000000E+03</rscale>
<asrwt>0</asrwt>
<pdfrwt beam="1">  1       21 0.10690875E-01 0.30000000E+03</pdfrwt>
<pdfrwt beam="2">0</pdfrwt>
<totfact> 0.76331737E+03</totfact>
</mgrwt>
</event>
<event>
 6    1  0.1274196E-001  0.3000000E+03  0.7818608E-02  0.1093470E+00
         21   -1    0    0  501  502  0.00000000000E+00  0.00000000000E+00  0.12851347554E+01  0.12851347554E+01  0.00000000000E+00 0. -1.
         13   -1    0    0    0    0 -0.00000000000E+00 -0.00000000000E+00 -0.10000000000E+04  0.10000000000E+04  0.00000000000E+00 0.  1.
    9000005    2    1    2  501    0  0.31847411108E+02  0.46710401618E+01 -0.71826793788E+03  0.71899706331E+03  0.34453237493E+01 0.  0.
         13    1    3    3    0    0  0.23650096177E+02  0.29123676492E+01 -0.49831947595E+03  0.49888887445E+03  0.00000000000E+00 0.  1.
          1    1    3    3  501    0  0.81973149313E+01  0.17586725126E+01 -0.21994846193E+03  0.22010818886E+03  0.00000000000E+00 0.  1.
         -1    1    1    2    0  502 -0.31847411108E+02 -0.46710401618E+01 -0.28044692737E+03  0.28228807145E+03  0.00000000000E+00 0. -1.
<mgrwt>
<rscale>  1 0.30000000E+03</rscale>
<asrwt>0</asrwt>
<pdfrwt beam="1">  1       21 0.46732271E-02 0.30000000E+03</pdfrwt>
<pdfrwt beam="2">0</pdfrwt>
<totfact> 0.32316666E+04</totfact>
</mgrwt>
</event>
<event>
 6    1  0.1274196E-001  0.3000000E+03  0.7818608E-02  0.1093470E+00
         21   -1    0    0  501  502  0.00000000000E+00  0.00000000000E+00  0.24050768105E+01  0.24050768105E+01  0.00000000000E+00 0. -1.
         13   -1    0    0    0    0 -0.00000000000E+00 -0.00000000000E+00 -0.10000000000E+04  0.10000000000E+04  0.00000000000E+00 0.  1.
    9000005    2    1    2  501    0  0.45203624283E+02  0.12726233664E+02 -0.35694467062E+03  0.36003596891E+03  0.33281152499E+01 0.  0.
         13    1    3    3    0    0  0.85216887152E+01  0.31755672974E+01 -0.61159080588E+02  0.61831517405E+02  0.00000000000E+00 0.  1.
          1    1    3    3  501    0  0.36681935568E+02  0.95506663666E+01 -0.29578559003E+03  0.29820445150E+03  0.00000000000E+00 0.  1.
         -3    1    1    2    0  502 -0.45203624283E+02 -0.12726233664E+02 -0.64065025257E+03  0.64236910791E+03  0.00000000000E+00 0. -1.
<mgrwt>
<rscale>  1 0.30000000E+03</rscale>
<asrwt>0</asrwt>
<pdfrwt beam="1">  1       21 0.87457523E-02 0.30000000E+03</pdfrwt>
<pdfrwt beam="2">0</pdfrwt>
<totfact> 0.10917884E+04</totfact>
</mgrwt>
</event>
<event>
 6    1  0.1274196E-001  0.3000000E+03  0.7818608E-02  0.1093470E+00
         21   -1    0    0  501  502  0.00000000000E+00  0.00000000000E+00  0.25019629731E+01  0.25019629731E+01  0.00000000000E+00 0. -1.
         13   -1    0    0    0    0 -0.00000000000E+00 -0.00000000000E+00 -0.10000000000E+04  0.10000000000E+04  0.00000000000E+00 0.  1.
    9000005    2    1    2  501    0  0.33225730797E+02  0.24462239689E+01 -0.87241638601E+03  0.87305949460E+03  0.35492710945E+01 0.  0.
         13    1    3    3    0    0  0.23791058807E+02  0.29529292486E+01 -0.59730120463E+03  0.59778212028E+03  0.00000000000E+00 0.  1.
          1    1    3    3  501    0  0.94346719896E+01 -0.50670527964E+00 -0.27511518138E+03  0.27527737432E+03  0.00000000000E+00 0.  1.
         -3    1    1    2    0  502 -0.33225730797E+02 -0.24462239689E+01 -0.12508165102E+03  0.12944246838E+03  0.00000000000E+00 0. -1.
<mgrwt>
<rscale>  1 0.30000000E+03</rscale>
<asrwt>0</asrwt>
<pdfrwt beam="1">  1       21 0.90980664E-02 0.30000000E+03</pdfrwt>
<pdfrwt beam="2">0</pdfrwt>
<totfact> 0.10180632E+04</totfact>
</mgrwt>
</event>
<event>
 6    1  0.1274196E-001  0.3000000E+03  0.7818608E-02  0.1093470E+00
         21   -1    0    0  501  502  0.00000000000E+00  0.00000000000E+00  0.20279006019E+01  0.20279006019E+01  0.00000000000E+00 0. -1.
         13   -1    0    0    0    0 -0.00000000000E+00 -0.00000000000E+00 -0.10000000000E+04  0.10000000000E+04  0.00000000000E+00 0.  1.
    9000005    2    1    2  501    0 -0.37643242720E+02 -0.14976893397E+02 -0.70746651034E+03  0.70871097587E+03  0.11002863830E+02 0.  0.
         13    1    3    3    0    0 -0.28459042932E+00 -0.25503314885E+01 -0.36180433263E+02  0.36271323846E+02  0.00000000000E+00 0.  1.
          3    1    3    3  501    0 -0.37358652290E+02 -0.12426561908E+02 -0.67128607708E+03  0.67243965203E+03  0.00000000000E+00 0.  1.
         -1    1    1    2    0  502  0.37643242720E+02  0.14976893397E+02 -0.29050558906E+03  0.29331692473E+03  0.00000000000E+00 0. -1.
<mgrwt>
<rscale>  1 0.30000000E+03</rscale>
<asrwt>0</asrwt>
<pdfrwt beam="1">  1       21 0.73741996E-02 0.30000000E+03</pdfrwt>
<pdfrwt beam="2">0</pdfrwt>
<totfact> 0.14734208E+04</totfact>
</mgrwt>
</event>
<event>
 6    1  0.1274196E-001  0.3000000E+03  0.7818608E-02  0.1093470E+00
         21   -1    0    0  501  502  0.00000000000E+00  0.00000000000E+00  0.13171730341E+01  0.13171730341E+01  0.00000000000E+00 0. -1.
         13   -1    0    0    0    0 -0.00000000000E+00 -0.00000000000E+00 -0.10000000000E+04  0.10000000000E+04  0.00000000000E+00 0.  1.
    9000005    2    1    2  501    0  0.35831295204E+02 -0.47973604247E+01 -0.52875462584E+03  0.53000049542E+03  0.34891855737E+01 0.  0.
         13    1    3    3    0    0  0.35329978116E+02 -0.50557658099E+01 -0.51557842101E+03  0.51681222541E+03  0.00000000000E+00 0.  1.
          1    1    3    3  501    0  0.50131708824E+00  0.25840538519E+00 -0.13176204827E+02  0.13188270008E+02  0.00000000000E+00 0.  1.
         -3    1    1    2    0  502 -0.35831295204E+02  0.47973604247E+01 -0.46992820113E+03  0.47131667761E+03  0.00000000000E+00 0. -1.
<mgrwt>
<rscale>  1 0.30000000E+03</rscale>
<asrwt>0</asrwt>
<pdfrwt beam="1">  1       21 0.47897302E-02 0.30000000E+03</pdfrwt>
<pdfrwt beam="2">0</pdfrwt>
<totfact> 0.30991280E+04</totfact>
</mgrwt>
</event>
<event>
 6    1  0.1274196E-001  0.3000000E+03  0.7818608E-02  0.1093470E+00
         21   -1    0    0  501  502  0.00000000000E+00  0.00000000000E+00  0.14866133309E+01  0.14866133309E+01  0.00000000000E+00 0. -1.
         13   -1    0    0    0    0 -0.00000000000E+00 -0.00000000000E+00 -0.10000000000E+04  0.10000000000E+04  0.00000000000E+00 0.  1.
    9000005    2    1    2  501    0 -0.25726954472E+02 -0.27452853232E+02 -0.39537462577E+03  0.39717551776E+03  0.34295574630E+01 0.  0.
         13    1    3    3    0    0 -0.19408999379E+02 -0.20925909902E+02 -0.28370949381E+03  0.28514150845E+03  0.00000000000E+00 0.  1.
          3    1    3    3  501    0 -0.63179550927E+01 -0.65269433299E+01 -0.11166513196E+03  0.11203400931E+03  0.00000000000E+00 0.  1.
         -1    1    1    2    0  502  0.25726954472E+02  0.27452853232E+02 -0.60313876090E+03  0.60431109557E+03  0.00000000000E+00 0. -1.
<mgrwt>
<rscale>  1 0.30000000E+03</rscale>
<asrwt>0</asrwt>
<pdfrwt beam="1">  1       21 0.54058781E-02 0.30000000E+03</pdfrwt>
<pdfrwt beam="2">0</pdfrwt>
<totfact> 0.25208881E+04</totfact>
</mgrwt>
</event>
<event>
 6    1  0.1274196E-001  0.3000000E+03  0.7818608E-02  0.1093470E+00
         21   -1    0    0  501  502  0.00000000000E+00  0.00000000000E+00  0.11202374996E+01  0.11202374996E+01  0.00000000000E+00 0. -1.
         13   -1    0    0    0    0 -0.00000000000E+00 -0.00000000000E+00 -0.10000000000E+04  0.10000000000E+04  0.00000000000E+00 0.  1.
    9000005    2    1    2  501    0 -0.32880883212E+02 -0.98961989845E+00 -0.58136174589E+03  0.58230831549E+03  0.44003259971E+01 0.  0.
         13    1    3    3    0    0 -0.16949964003E+02  0.16012854808E+01 -0.30928834098E+03  0.30975658711E+03  0.00000000000E+00 0.  1.
          3    1    3    3  501    0 -0.15930919209E+02 -0.25909053793E+01 -0.27207340491E+03  0.27255172837E+03  0.00000000000E+00 0.  1.
         -1    1    1    2    0  502  0.32880883212E+02  0.98961989845E+00 -0.41751801661E+03  0.41881192201E+03  0.00000000000E+00 0. -1.
<mgrwt>
<rscale>  1 0.30000000E+03</rscale>
<asrwt>0</asrwt>
<pdfrwt beam="1">  1       21 0.40735995E-02 0.30000000E+03</pdfrwt>
<pdfrwt beam="2">0</pdfrwt>
<totfact> 0.40775316E+04</totfact>
</mgrwt>
</event>
<event>
 6    1  0.1274196E-001  0.3000000E+03  0.7818608E-02  0.1093470E+00
         21   -1    0    0  501  502  0.00000000000E+00  0.00000000000E+00  0.14587834350E+01  0.14587834350E+01  0.00000000000E+00 0. -1.
         13   -1    0    0    0    0 -0.00000000000E+00 -0.00000000000E+00 -0.10000000000E+04  0.10000000000E+04  0.00000000000E+00 0.  1.
    9000005    2    1    2  501    0  0.23083708722E+02  0.22729993083E+02 -0.76372714295E+03  0.76442047564E+03  0.31629903051E+01 0.  0.
         13    1    3    3    0    0  0.15659224399E+02  0.16264098876E+02 -0.56175823288E+03  0.56221174341E+03  0.00000000000E+00 0.  1.
          1    1    3    3  501    0  0.74244843230E+01  0.64658942070E+01 -0.20196891006E+03  0.20220873222E+03  0.00000000000E+00 0.  1.
         -3    1    1    2    0  502 -0.23083708722E+02 -0.22729993083E+02 -0.23481407362E+03  0.23703830780E+03  0.00000000000E+00 0. -1.
<mgrwt>
<rscale>  1 0.30000000E+03</rscale>
<asrwt>0</asrwt>
<pdfrwt beam="1">  1       21 0.53046782E-02 0.30000000E+03</pdfrwt>
<pdfrwt beam="2">0</pdfrwt>
<totfact> 0.26037543E+04</totfact>
</mgrwt>
</event>
<event>
 6    1  0.1274196E-001  0.3000000E+03  0.7818608E-02  0.1093470E+00
         21   -1    0    0  501  502  0.00000000000E+00  0.00000000000E+00  0.23028145140E+01  0.23028145140E+01  0.00000000000E+00 0. -1.
         13   -1    0    0    0    0 -0.00000000000E+00 -0.00000000000E+00 -0.10000000000E+04  0.10000000000E+04  0.00000000000E+00 0.  1.
    9000005    2    1    2  501    0 -0.20291074221E+02  0.34263082845E+02 -0.22086373277E+03  0.22444942229E+03  0.33268864158E+01 0.  0.
         13    1    3    3    0    0 -0.15967418926E+02  0.25459817914E+02 -0.15943354979E+03  0.16224123272E+03  0.00000000000E+00 0.  1.
          1    1    3    3  501    0 -0.43236552950E+01  0.88032649306E+01 -0.61430182984E+02  0.62208189574E+02  0.00000000000E+00 0.  1.
         -1    1    1    2    0  502  0.20291074221E+02 -0.34263082845E+02 -0.77683345271E+03  0.77785339222E+03  0.00000000000E+00 0. -1.
<mgrwt>
<rscale>  1 0.30000000E+03</rscale>
<asrwt>0</asrwt>
<pdfrwt beam="1">  1       21 0.83738886E-02 0.30000000E+03</pdfrwt>
<pdfrwt beam="2">0</pdfrwt>
<totfact> 0.11787748E+04</totfact>
</mgrwt>
</event>
<event>
 6    1  0.1274196E-001  0.3000000E+03  0.7818608E-02  0.1093470E+00
         21   -1    0    0  501  502  0.00000000000E+00  0.00000000000E+00  0.81704458901E+01  0.81704458901E+01  0.00000000000E+00 0. -1.
         13   -1    0    0    0    0 -0.00000000000E+00 -0.00000000000E+00 -0.10000000000E+04  0.10000000000E+04  0.00000000000E+00 0.  1.
    9000005    2    1    2  501    0  0.43945217661E+02 -0.51035579506E+02 -0.83206812830E+03  0.83479361437E+03  0.26825233566E+01 0.  0.
         13    1    3    3    0    0  0.11769695981E+02 -0.12661667263E+02 -0.22575882917E+03  0.22641972642E+03  0.00000000000E+00 0.  1.
          3    1    3    3  501    0  0.32175521680E+02 -0.38373912243E+02 -0.60630929912E+03  0.60837388795E+03  0.00000000000E+00 0.  1.
         -1    1    1    2    0  502 -0.43945217661E+02  0.51035579506E+02 -0.15976142581E+03  0.17337683152E+03  0.00000000000E+00 0. -1.
<mgrwt>
<rscale>  1 0.30000000E+03</rscale>
<asrwt>0</asrwt>
<pdfrwt beam="1">  1       21 0.29710775E-01 0.30000000E+03</pdfrwt>
<pdfrwt beam="2">0</pdfrwt>
<totfact> 0.11085412E+03</totfact>
</mgrwt>
</event>
<event>
 6    1  0.1274196E-001  0.3000000E+03  0.7818608E-02  0.1093470E+00
         21   -1    0    0  501  502  0.00000000000E+00  0.00000000000E+00  0.40761957628E+01  0.40761957628E+01  0.00000000000E+00 0. -1.
         13   -1    0    0    0    0 -0.00000000000E+00 -0.00000000000E+00 -0.10000000000E+04  0.10000000000E+04  0.00000000000E+00 0.  1.
    9000005    2    1    2  501    0  0.27122542178E+02 -0.56248054887E+02 -0.60127033827E+03  0.60451289142E+03  0.32156249322E+01 0.  0.
         13    1    3    3    0    0  0.51757704998E+01 -0.84015325494E+01 -0.89362773083E+02  0.89905948427E+02  0.00000000000E+00 0.  1.
          3    1    3    3  501    0  0.21946771678E+02 -0.47846522338E+02 -0.51190756518E+03  0.51460694299E+03  0.00000000000E+00 0.  1.
         -3    1    1    2    0  502 -0.27122542178E+02  0.56248054887E+02 -0.39465346597E+03  0.39956330434E+03  0.00000000000E+00 0. -1.
<mgrwt>
<rscale>  1 0.30000000E+03</rscale>
<asrwt>0</asrwt>
<pdfrwt beam="1">  1       21 0.14822561E-01 0.30000000E+03</pdfrwt>
<pdfrwt beam="2">0</pdfrwt>
<totfact> 0.42096775E+03</totfact>
</mgrwt>
</event>
<event>
 6    1  0.1274196E-001  0.3000000E+03  0.7818608E-02  0.1093470E+00
         21   -1    0    0  501  502  0.00000000000E+00  0.00000000000E+00  0.63349719315E+01  0.63349719315E+01  0.00000000000E+00 0. -1.
         13   -1    0    0    0    0 -0.00000000000E+00 -0.00000000000E+00 -0.10000000000E+04  0.10000000000E+04  0.00000000000E+00 0.  1.
    9000005    2    1    2  501    0 -0.31738972868E+02  0.34797127585E+00 -0.95823887843E+03  0.95876927461E+03  0.30480052776E+01 0.  0.
         13    1    3    3    0    0 -0.25557498408E+02 -0.98195947551E-01 -0.73423835519E+03  0.73468303206E+03  0.00000000000E+00 0.  1.
          1    1    3    3  501    0 -0.61814744597E+01  0.44616722340E+00 -0.22400052324E+03  0.22408624256E+03  0.00000000000E+00 0.  1.
         -1    1    1    2    0  502  0.31738972868E+02 -0.34797127585E+00 -0.35426149643E+02  0.47565697317E+02  0.00000000000E+00 0. -1.
<mgrwt>
<rscale>  1 0.30000000E+03</rscale>
<asrwt>0</asrwt>
<pdfrwt beam="1">  1       21 0.23036310E-01 0.30000000E+03</pdfrwt>
<pdfrwt beam="2">0</pdfrwt>
<totfact> 0.18286871E+03</totfact>
</mgrwt>
</event>
<event>
 6    1  0.1274196E-001  0.3000000E+03  0.7818608E-02  0.1093470E+00
         21   -1    0    0  501  502  0.00000000000E+00  0.00000000000E+00  0.12904896460E+01  0.12904896460E+01  0.00000000000E+00 0. -1.
         13   -1    0    0    0    0 -0.00000000000E+00 -0.00000000000E+00 -0.10000000000E+04  0.10000000000E+04  0.00000000000E+00 0.  1.
    9000005    2    1    2  501    0  0.32324333291E+02  0.77089579237E+01 -0.68764258509E+03  0.68845359517E+03  0.34259760690E+01 0.  0.
         13    1    3    3    0    0  0.69853771334E+01  0.31429020628E+01 -0.15702661102E+03  0.15721332608E+03  0.00000000000E+00 0.  1.
          1    1    3    3  501    0  0.25338956158E+02  0.45660558609E+01 -0.53061597407E+03  0.53124026909E+03  0.00000000000E+00 0.  1.
         -3    1    1    2    0  502 -0.32324333291E+02 -0.77089579237E+01 -0.31106692526E+03  0.31283689448E+03  0.00000000000E+00 0. -1.
<mgrwt>
<rscale>  1 0.30000000E+03</rscale>
<asrwt>0</asrwt>
<pdfrwt beam="1">  1       21 0.46926995E-02 0.30000000E+03</pdfrwt>
<pdfrwt beam="2">0</pdfrwt>
<totfact> 0.32089030E+04</totfact>
</mgrwt>
</event>
<event>
 6    1  0.1274196E-001  0.3000000E+03  0.7818608E-02  0.1093470E+00
         21   -1    0    0  501  502  0.00000000000E+00  0.00000000000E+00  0.20074869867E+01  0.20074869867E+01  0.00000000000E+00 0. -1.
         13   -1    0    0    0    0 -0.00000000000E+00 -0.00000000000E+00 -0.10000000000E+04  0.10000000000E+04  0.00000000000E+00 0.  1.
    9000005    2    1    2  501    0  0.11263063845E+02 -0.43322341808E+02 -0.48708548897E+03  0.48914330504E+03  0.22841614645E+01 0.  0.
         13    1    3    3    0    0  0.95658372998E+01 -0.38732051028E+02 -0.42792888825E+03  0.42978460934E+03  0.00000000000E+00 0.  1.
          1    1    3    3  501    0  0.16972265452E+01 -0.45902907800E+01 -0.59156600721E+02  0.59358695708E+02  0.00000000000E+00 0.  1.
         -1    1    1    2    0  502 -0.11263063845E+02  0.43322341808E+02 -0.51090702404E+03  0.51286418194E+03  0.00000000000E+00 0. -1.
<mgrwt>
<rscale>  1 0.30000000E+03</rscale>
<asrwt>0</asrwt>
<pdfrwt beam="1">  1       21 0.72999681E-02 0.30000000E+03</pdfrwt>
<pdfrwt beam="2">0</pdfrwt>
<totfact> 0.14997047E+04</totfact>
</mgrwt>
</event>
<event>
 6    1  0.1274196E-001  0.3000000E+03  0.7818608E-02  0.1093470E+00
         21   -1    0    0  501  502  0.00000000000E+00  0.00000000000E+00  0.17381956618E+01  0.17381956618E+01  0.00000000000E+00 0. -1.
         13   -1    0    0    0    0 -0.00000000000E+00 -0.00000000000E+00 -0.10000000000E+04  0.10000000000E+04  0.00000000000E+00 0.  1.
    9000005    2    1    2  501    0 -0.33051281815E+02 -0.20629923705E+02 -0.67577731054E+03  0.67690865618E+03  0.35177243968E+01 0.  0.
         13    1    3    3    0    0 -0.16009781881E+02 -0.98810423423E+01 -0.35677919208E+03  0.35727488019E+03  0.00000000000E+00 0.  1.
          3    1    3    3  501    0 -0.17041499934E+02 -0.10748881362E+02 -0.31899811847E+03  0.31963377599E+03  0.00000000000E+00 0.  1.
         -3    1    1    2    0  502  0.33051281815E+02  0.20629923705E+02 -0.32248449380E+03  0.32482953948E+03  0.00000000000E+00 0. -1.
<mgrwt>
<rscale>  1 0.30000000E+03</rscale>
<asrwt>0</asrwt>
<pdfrwt beam="1">  1       21 0.63207248E-02 0.30000000E+03</pdfrwt>
<pdfrwt beam="2">0</pdfrwt>
<totfact> 0.19259761E+04</totfact>
</mgrwt>
</event>
<event>
 6    1  0.1274196E-001  0.3000000E+03  0.7818608E-02  0.1093470E+00
         21   -1    0    0  501  502  0.00000000000E+00  0.00000000000E+00  0.34673378631E+01  0.34673378631E+01  0.00000000000E+00 0. -1.
         13   -1    0    0    0    0 -0.00000000000E+00 -0.00000000000E+00 -0.10000000000E+04  0.10000000000E+04  0.00000000000E+00 0.  1.
    9000005    2    1    2  501    0 -0.44745442008E+02 -0.12698382860E+02 -0.80519658559E+03  0.80655898940E+03  0.56972292774E+01 0.  0.
         13    1    3    3    0    0 -0.28950672459E+02 -0.98284753966E+01 -0.56492619902E+03  0.56575290605E+03  0.00000000000E+00 0.  1.
          1    1    3    3  501    0 -0.15794769549E+02 -0.28699074635E+01 -0.24027038658E+03  0.24080608335E+03  0.00000000000E+00 0.  1.
         -1    1    1    2    0  502  0.44745442008E+02  0.12698382860E+02 -0.19133607654E+03  0.19690834846E+03  0.00000000000E+00 0. -1.
<mgrwt>
<rscale>  1 0.30000000E+03</rscale>
<asrwt>0</asrwt>
<pdfrwt beam="1">  1       21 0.12608528E-01 0.30000000E+03</pdfrwt>
<pdfrwt beam="2">0</pdfrwt>
<totfact> 0.56637856E+03</totfact>
</mgrwt>
</event>
<event>
 6    1  0.1274196E-001  0.3000000E+03  0.7818608E-02  0.1093470E+00
         21   -1    0    0  501  502  0.00000000000E+00  0.00000000000E+00  0.17154490815E+01  0.17154490815E+01  0.00000000000E+00 0. -1.
         13   -1    0    0    0    0 -0.00000000000E+00 -0.00000000000E+00 -0.10000000000E+04  0.10000000000E+04  0.00000000000E+00 0.  1.
    9000005    2    1    2  501    0  0.33800222485E+02  0.11864607443E+02 -0.25011263463E+03  0.25268645080E+03  0.32997673369E+01 0.  0.
         13    1    3    3    0    0  0.81906900624E+01  0.40375707624E+01 -0.70333502882E+02  0.70923839497E+02  0.00000000000E+00 0.  1.
          1    1    3    3  501    0  0.25609532423E+02  0.78270366801E+01 -0.17977913175E+03  0.18176261130E+03  0.00000000000E+00 0.  1.
         -1    1    1    2    0  502 -0.33800222485E+02 -0.11864607443E+02 -0.74817191629E+03  0.74902899828E+03  0.00000000000E+00 0. -1.
<mgrwt>
<rscale>  1 0.30000000E+03</rscale>
<asrwt>0</asrwt>
<pdfrwt beam="1">  1       21 0.62380098E-02 0.30000000E+03</pdfrwt>
<pdfrwt beam="2">0</pdfrwt>
<totfact> 0.19703226E+04</totfact>
</mgrwt>
</event>
<event>
 6    1  0.1274196E-001  0.3000000E+03  0.7818608E-02  0.1093470E+00
         21   -1    0    0  501  502  0.00000000000E+00  0.00000000000E+00  0.14630603708E+01  0.14630603708E+01  0.00000000000E+00 0. -1.
         13   -1    0    0    0    0 -0.00000000000E+00 -0.00000000000E+00 -0.10000000000E+04  0.10000000000E+04  0.00000000000E+00 0.  1.
    9000005    2    1    2  501    0 -0.35095083788E+02 -0.26173357414E+01 -0.69417941690E+03  0.69507765440E+03  0.30606274996E+01 0.  0.
         13    1    3    3    0    0 -0.34510764115E+01 -0.96923477464E+00 -0.83018866604E+02  0.83096218666E+02  0.00000000000E+00 0.  1.
          3    1    3    3  501    0 -0.31644007376E+02 -0.16481009668E+01 -0.61116055030E+03  0.61198143573E+03  0.00000000000E+00 0.  1.
         -1    1    1    2    0  502  0.35095083788E+02  0.26173357414E+01 -0.30435752273E+03  0.30638540597E+03  0.00000000000E+00 0. -1.
<mgrwt>
<rscale>  1 0.30000000E+03</rscale>
<asrwt>0</asrwt>
<pdfrwt beam="1">  1       21 0.53202307E-02 0.30000000E+03</pdfrwt>
<pdfrwt beam="2">0</pdfrwt>
<totfact> 0.25907477E+04</totfact>
</mgrwt>
</event>
<event>
 6    1  0.1274196E-001  0.3000000E+03  0.7818608E-02  0.1093470E+00
         21   -1    0    0  501  502  0.00000000000E+00  0.00000000000E+00  0.10618700326E+01  0.10618700326E+01  0.00000000000E+00 0. -1.
         13   -1    0    0    0    0 -0.00000000000E+00 -0.00000000000E+00 -0.10000000000E+04  0.10000000000E+04  0.00000000000E+00 0.  1.
    9000005    2    1    2  501    0 -0.24154356285E+02  0.18738890990E+02 -0.67005057023E+03  0.67075654777E+03  0.34642100946E+01 0.  0.
         13    1    3    3    0    0 -0.17800751889E+02  0.12982009393E+02 -0.44999686260E+03  0.45053587614E+03  0.00000000000E+00 0.  1.
          3    1    3    3  501    0 -0.63536043967E+01  0.57568815966E+01 -0.22005370763E+03  0.22022067164E+03  0.00000000000E+00 0.  1.
         -3    1    1    2    0  502  0.24154356285E+02 -0.18738890990E+02 -0.32888755974E+03  0.33030532226E+03  0.00000000000E+00 0. -1.
<mgrwt>
<rscale>  1 0.30000000E+03</rscale>
<asrwt>0</asrwt>
<pdfrwt beam="1">  1       21 0.38613537E-02 0.30000000E+03</pdfrwt>
<pdfrwt beam="2">0</pdfrwt>
<totfact> 0.44618668E+04</totfact>
</mgrwt>
</event>
<event>
 6    1  0.1274196E-001  0.3000000E+03  0.7818608E-02  0.1093470E+00
         21   -1    0    0  501  502  0.00000000000E+00  0.00000000000E+00  0.22097046757E+01  0.22097046757E+01  0.00000000000E+00 0. -1.
         13   -1    0    0    0    0 -0.00000000000E+00 -0.00000000000E+00 -0.10000000000E+04  0.10000000000E+04  0.00000000000E+00 0.  1.
    9000005    2    1    2  501    0  0.29803675554E+02  0.34051624288E+02 -0.63282403075E+03  0.63444871372E+03  0.33383004581E+01 0.  0.
         13    1    3    3    0    0  0.13928561027E+02  0.13667014226E+02 -0.28263709758E+03  0.28330993809E+03  0.00000000000E+00 0.  1.
          3    1    3    3  501    0  0.15875114528E+02  0.20384610062E+02 -0.35018693317E+03  0.35113877563E+03  0.00000000000E+00 0.  1.
         -1    1    1    2    0  502 -0.29803675554E+02 -0.34051624288E+02 -0.36496626457E+03  0.36776099096E+03  0.00000000000E+00 0. -1.
<mgrwt>
<rscale>  1 0.30000000E+03</rscale>
<asrwt>0</asrwt>
<pdfrwt beam="1">  1       21 0.80353067E-02 0.30000000E+03</pdfrwt>
<pdfrwt beam="2">0</pdfrwt>
<totfact> 0.12675434E+04</totfact>
</mgrwt>
</event>
<event>
 6    1  0.1274196E-001  0.3000000E+03  0.7818608E-02  0.1093470E+00
         21   -1    0    0  501  502  0.00000000000E+00  0.00000000000E+00  0.14333072120E+01  0.14333072120E+01  0.00000000000E+00 0. -1.
         13   -1    0    0    0    0 -0.00000000000E+00 -0.00000000000E+00 -0.10000000000E+04  0.10000000000E+04  0.00000000000E+00 0.  1.
    9000005    2    1    2  501    0 -0.37160509361E+02  0.18030499056E+01 -0.41310419004E+03  0.41478989204E+03  0.33805712692E+01 0.  0.
         13    1    3    3    0    0 -0.20769435905E+02 -0.46932396668E+00 -0.23880892439E+03  0.23971085103E+03  0.00000000000E+00 0.  1.
          3    1    3    3  501    0 -0.16391073456E+02  0.22723738723E+01 -0.17429526566E+03  0.17507904101E+03  0.00000000000E+00 0.  1.
         -1    1    1    2    0  502  0.37160509361E+02 -0.18030499056E+01 -0.58546250274E+03  0.58664341517E+03  0.00000000000E+00 0. -1.
<mgrwt>
<rscale>  1 0.30000000E+03</rscale>
<asrwt>0</asrwt>
<pdfrwt beam="1">  1       21 0.52120372E-02 0.30000000E+03</pdfrwt>
<pdfrwt beam="2">0</pdfrwt>
<totfact> 0.26833674E+04</totfact>
</mgrwt>
</event>
<event>
 6    1  0.1274196E-001  0.3000000E+03  0.7818608E-02  0.1093470E+00
         21   -1    0    0  501  502  0.00000000000E+00  0.00000000000E+00  0.20854725524E+01  0.20854725524E+01  0.00000000000E+00 0. -1.
         13   -1    0    0    0    0 -0.00000000000E+00 -0.00000000000E+00 -0.10000000000E+04  0.10000000000E+04  0.00000000000E+00 0.  1.
    9000005    2    1    2  501    0  0.48592670476E+01 -0.29879421826E+02 -0.87385058149E+03  0.87438169418E+03  0.34808067678E+01 0.  0.
         13    1    3    3    0    0  0.12360399402E+01 -0.14173257369E+02 -0.37031778497E+03  0.37059097518E+03  0.00000000000E+00 0.  1.
          3    1    3    3  501    0  0.36232271075E+01 -0.15706164457E+02 -0.50353279653E+03  0.50379071900E+03  0.00000000000E+00 0.  1.
         -3    1    1    2    0  502 -0.48592670476E+01  0.29879421826E+02 -0.12406394595E+03  0.12770377837E+03  0.00000000000E+00 0. -1.
<mgrwt>
<rscale>  1 0.30000000E+03</rscale>
<asrwt>0</asrwt>
<pdfrwt beam="1">  1       21 0.75835525E-02 0.30000000E+03</pdfrwt>
<pdfrwt beam="2">0</pdfrwt>
<totfact> 0.14029602E+04</totfact>
</mgrwt>
</event>
<event>
 6    1  0.1274196E-001  0.3000000E+03  0.7818608E-02  0.1093470E+00
         21   -1    0    0  501  502  0.00000000000E+00  0.00000000000E+00  0.14484230330E+01  0.14484230330E+01  0.00000000000E+00 0. -1.
         13   -1    0    0    0    0 -0.00000000000E+00 -0.00000000000E+00 -0.10000000000E+04  0.10000000000E+04  0.00000000000E+00 0.  1.
    9000005    2    1    2  501    0  0.25364109092E+02 -0.21958360235E+02 -0.73501458952E+03  0.73578462918E+03  0.26582153706E+01 0.  0.
         13    1    3    3    0    0  0.59671634296E+00 -0.11273530524E+01 -0.32434208383E+02  0.32459280164E+02  0.00000000000E+00 0.  1.
          3    1    3    3  501    0  0.24767392750E+02 -0.20831007183E+02 -0.70258038114E+03  0.70332534901E+03  0.00000000000E+00 0.  1.
         -1    1    1    2    0  502 -0.25364109092E+02  0.21958360235E+02 -0.26353698745E+03  0.26566379386E+03  0.00000000000E+00 0. -1.
<mgrwt>
<rscale>  1 0.30000000E+03</rscale>
<asrwt>0</asrwt>
<pdfrwt beam="1">  1       21 0.52670040E-02 0.30000000E+03</pdfrwt>
<pdfrwt beam="2">0</pdfrwt>
<totfact> 0.26356833E+04</totfact>
</mgrwt>
</event>
<event>
 6    1  0.1274196E-001  0.3000000E+03  0.7818608E-02  0.1093470E+00
         21   -1    0    0  501  502  0.00000000000E+00  0.00000000000E+00  0.22099175310E+01  0.22099175310E+01  0.00000000000E+00 0. -1.
         13   -1    0    0    0    0 -0.00000000000E+00 -0.00000000000E+00 -0.10000000000E+04  0.10000000000E+04  0.00000000000E+00 0.  1.
    9000005    2    1    2  501    0  0.40207704817E+02 -0.15571829196E+02 -0.69733557087E+03  0.69867729172E+03  0.37307069715E+01 0.  0.
         13    1    3    3    0    0  0.39706063370E+02 -0.15080357017E+02 -0.67807784441E+03  0.67940676455E+03  0.00000000000E+00 0.  1.
          3    1    3    3  501    0  0.50164144644E+00 -0.49147217880E+00 -0.19257726456E+02  0.19270527167E+02  0.00000000000E+00 0.  1.
         -1    1    1    2    0  502 -0.40207704817E+02  0.15571829196E+02 -0.30045451160E+03  0.30353262581E+03  0.00000000000E+00 0. -1.
<mgrwt>
<rscale>  1 0.30000000E+03</rscale>
<asrwt>0</asrwt>
<pdfrwt beam="1">  1       21 0.80360807E-02 0.30000000E+03</pdfrwt>
<pdfrwt beam="2">0</pdfrwt>
<totfact> 0.12673289E+04</totfact>
</mgrwt>
</event>
<event>
 6    1  0.1274196E-001  0.3000000E+03  0.7818608E-02  0.1093470E+00
         21   -1    0    0  501  502  0.00000000000E+00  0.00000000000E+00  0.13602745908E+01  0.13602745908E+01  0.00000000000E+00 0. -1.
         13   -1    0    0    0    0 -0.00000000000E+00 -0.00000000000E+00 -0.10000000000E+04  0.10000000000E+04  0.00000000000E+00 0.  1.
    9000005    2    1    2  501    0 -0.29174000559E+02 -0.12880340839E+02 -0.74855406679E+03  0.74924946138E+03  0.49536842675E+01 0.  0.
         13    1    3    3    0    0 -0.25194169771E+02 -0.11942393502E+02 -0.61299970805E+03  0.61363344842E+03  0.00000000000E+00 0.  1.
          3    1    3    3  501    0 -0.39798307882E+01 -0.93794733721E+00 -0.13555435874E+03  0.13561601296E+03  0.00000000000E+00 0.  1.
         -3    1    1    2    0  502  0.29174000559E+02  0.12880340839E+02 -0.25008565862E+03  0.25211081321E+03  0.00000000000E+00 0. -1.
<mgrwt>
<rscale>  1 0.30000000E+03</rscale>
<asrwt>0</asrwt>
<pdfrwt beam="1">  1       21 0.49464635E-02 0.30000000E+03</pdfrwt>
<pdfrwt beam="2">0</pdfrwt>
<totfact> 0.29338001E+04</totfact>
</mgrwt>
</event>
<event>
 6    1  0.1274196E-001  0.3000000E+03  0.7818608E-02  0.1093470E+00
         21   -1    0    0  501  502  0.00000000000E+00  0.00000000000E+00  0.11789710037E+01  0.11789710037E+01  0.00000000000E+00 0. -1.
         13   -1    0    0    0    0 -0.00000000000E+00 -0.00000000000E+00 -0.10000000000E+04  0.10000000000E+04  0.00000000000E+00 0.  1.
    9000005    2    1    2  501    0  0.32185385953E+02 -0.98664734411E+01 -0.59425749672E+03  0.59521727575E+03  0.28959581537E+01 0.  0.
         13    1    3    3    0    0  0.20267733550E+01 -0.31796562314E-02 -0.42205165376E+02  0.42253802252E+02  0.00000000000E+00 0.  1.
          3    1    3    3  501    0  0.30158612598E+02 -0.98632937849E+01 -0.55205233134E+03  0.55296347349E+03  0.00000000000E+00 0.  1.
         -1    1    1    2    0  502 -0.32185385953E+02  0.98664734411E+01 -0.40456353228E+03  0.40596169526E+03  0.00000000000E+00 0. -1.
<mgrwt>
<rscale>  1 0.30000000E+03</rscale>
<asrwt>0</asrwt>
<pdfrwt beam="1">  1       21 0.42871763E-02 0.30000000E+03</pdfrwt>
<pdfrwt beam="2">0</pdfrwt>
<totfact> 0.37405188E+04</totfact>
</mgrwt>
</event>
<event>
 6    1  0.1274196E-001  0.3000000E+03  0.7818608E-02  0.1093470E+00
         21   -1    0    0  501  502  0.00000000000E+00  0.00000000000E+00  0.13859232479E+02  0.13859232479E+02  0.00000000000E+00 0. -1.
         13   -1    0    0    0    0 -0.00000000000E+00 -0.00000000000E+00 -0.10000000000E+04  0.10000000000E+04  0.00000000000E+00 0.  1.
    9000005    2    1    2  501    0  0.35333251077E+02 -0.78905355209E+02 -0.83708484761E+03  0.84154509791E+03  0.35519013088E+01 0.  0.
         13    1    3    3    0    0  0.34009983817E+02 -0.76261786210E+02 -0.80164400245E+03  0.80598116957E+03  0.00000000000E+00 0.  1.
          3    1    3    3  501    0  0.13232672606E+01 -0.26435689991E+01 -0.35440845161E+02  0.35563928341E+02  0.00000000000E+00 0.  1.
         -1    1    1    2    0  502 -0.35333251077E+02  0.78905355209E+02 -0.14905591991E+03  0.17231413457E+03  0.00000000000E+00 0. -1.
<mgrwt>
<rscale>  1 0.30000000E+03</rscale>
<asrwt>0</asrwt>
<pdfrwt beam="1">  1       21 0.50397315E-01 0.30000000E+03</pdfrwt>
<pdfrwt beam="2">0</pdfrwt>
<totfact> 0.36932764E+02</totfact>
</mgrwt>
</event>
<event>
 6    1  0.1274196E-001  0.3000000E+03  0.7818608E-02  0.1093470E+00
         21   -1    0    0  501  502  0.00000000000E+00  0.00000000000E+00  0.19073775739E+01  0.19073775739E+01  0.00000000000E+00 0. -1.
         13   -1    0    0    0    0 -0.00000000000E+00 -0.00000000000E+00 -0.10000000000E+04  0.10000000000E+04  0.00000000000E+00 0.  1.
    9000005    2    1    2  501    0  0.39951424444E+02 -0.17285231185E+02 -0.53083314230E+03  0.53262460855E+03  0.32020524764E+01 0.  0.
         13    1    3    3    0    0  0.18373632370E+02 -0.62652503485E+01 -0.23152492576E+03  0.23233733014E+03  0.00000000000E+00 0.  1.
          3    1    3    3  501    0  0.21577792073E+02 -0.11019980837E+02 -0.29930821653E+03  0.30028727841E+03  0.00000000000E+00 0.  1.
         -1    1    1    2    0  502 -0.39951424444E+02  0.17285231185E+02 -0.46725948013E+03  0.46928276902E+03  0.00000000000E+00 0. -1.
<mgrwt>
<rscale>  1 0.30000000E+03</rscale>
<asrwt>0</asrwt>
<pdfrwt beam="1">  1       21 0.69359331E-02 0.30000000E+03</pdfrwt>
<pdfrwt beam="2">0</pdfrwt>
<totfact> 0.16395457E+04</totfact>
</mgrwt>
</event>
<event>
 6    1  0.1274196E-001  0.3000000E+03  0.7818608E-02  0.1093470E+00
         21   -1    0    0  501  502  0.00000000000E+00  0.00000000000E+00  0.45627171836E+01  0.45627171836E+01  0.00000000000E+00 0. -1.
         13   -1    0    0    0    0 -0.00000000000E+00 -0.00000000000E+00 -0.10000000000E+04  0.10000000000E+04  0.00000000000E+00 0.  1.
    9000005    2    1    2  501    0  0.22878606625E+02 -0.42548280515E+02 -0.14747566884E+03  0.15522610218E+03  0.35047226656E+01 0.  0.
         13    1    3    3    0    0  0.38712291753E+01 -0.76058230786E+01 -0.30542851184E+02  0.31712784779E+02  0.00000000000E+00 0.  1.
          3    1    3    3  501    0  0.19007377450E+02 -0.34942457436E+02 -0.11693281766E+03  0.12351331740E+03  0.00000000000E+00 0.  1.
         -1    1    1    2    0  502 -0.22878606625E+02  0.42548280515E+02 -0.84796161397E+03  0.84933661501E+03  0.00000000000E+00 0. -1.
<mgrwt>
<rscale>  1 0.30000000E+03</rscale>
<asrwt>0</asrwt>
<pdfrwt beam="1">  1       21 0.16591734E-01 0.30000000E+03</pdfrwt>
<pdfrwt beam="2">0</pdfrwt>
<totfact> 0.34132850E+03</totfact>
</mgrwt>
</event>
<event>
 6    1  0.1274196E-001  0.3000000E+03  0.7818608E-02  0.1093470E+00
         21   -1    0    0  501  502  0.00000000000E+00  0.00000000000E+00  0.13535874517E+01  0.13535874517E+01  0.00000000000E+00 0. -1.
         13   -1    0    0    0    0 -0.00000000000E+00 -0.00000000000E+00 -0.10000000000E+04  0.10000000000E+04  0.00000000000E+00 0.  1.
    9000005    2    1    2  501    0 -0.13570558870E+02  0.30811730231E+02 -0.70011220962E+03  0.70092690238E+03  0.28095598931E+01 0.  0.
         13    1    3    3    0    0 -0.11449995688E+02  0.28010828604E+02 -0.62162383206E+03  0.62235994208E+03  0.00000000000E+00 0.  1.
          3    1    3    3  501    0 -0.21205631823E+01  0.28009016265E+01 -0.78488377565E+02  0.78566960301E+02  0.00000000000E+00 0.  1.
         -3    1    1    2    0  502  0.13570558870E+02 -0.30811730231E+02 -0.29853420292E+03  0.30042668507E+03  0.00000000000E+00 0. -1.
<mgrwt>
<rscale>  1 0.30000000E+03</rscale>
<asrwt>0</asrwt>
<pdfrwt beam="1">  1       21 0.49221466E-02 0.30000000E+03</pdfrwt>
<pdfrwt beam="2">0</pdfrwt>
<totfact> 0.29585355E+04</totfact>
</mgrwt>
</event>
<event>
 6    1  0.1274196E-001  0.3000000E+03  0.7818608E-02  0.1093470E+00
         21   -1    0    0  501  502  0.00000000000E+00  0.00000000000E+00  0.23565118536E+01  0.23565118536E+01  0.00000000000E+00 0. -1.
         13   -1    0    0    0    0 -0.00000000000E+00 -0.00000000000E+00 -0.10000000000E+04  0.10000000000E+04  0.00000000000E+00 0.  1.
    9000005    2    1    2  501    0  0.18761214034E+02  0.29762376435E+02 -0.84367427675E+03  0.84441886510E+03  0.43763328562E+01 0.  0.
         13    1    3    3    0    0  0.59519831181E+01  0.13192386994E+02 -0.32606548761E+03  0.32638653065E+03  0.00000000000E+00 0.  1.
          3    1    3    3  501    0  0.12809230915E+02  0.16569989441E+02 -0.51760878914E+03  0.51803233445E+03  0.00000000000E+00 0.  1.
         -3    1    1    2    0  502 -0.18761214034E+02 -0.29762376435E+02 -0.15396921140E+03  0.15793764676E+03  0.00000000000E+00 0. -1.
<mgrwt>
<rscale>  1 0.30000000E+03</rscale>
<asrwt>0</asrwt>
<pdfrwt beam="1">  1       21 0.85691521E-02 0.30000000E+03</pdfrwt>
<pdfrwt beam="2">0</pdfrwt>
<totfact> 0.11318336E+04</totfact>
</mgrwt>
</event>
<event>
 6    1  0.1274196E-001  0.3000000E+03  0.7818608E-02  0.1093470E+00
         21   -1    0    0  501  502  0.00000000000E+00  0.00000000000E+00  0.19990712682E+01  0.19990712682E+01  0.00000000000E+00 0. -1.
         13   -1    0    0    0    0 -0.00000000000E+00 -0.00000000000E+00 -0.10000000000E+04  0.10000000000E+04  0.00000000000E+00 0.  1.
    9000005    2    1    2  501    0 -0.40192704217E+01 -0.34361054652E+02 -0.81599101747E+03  0.81673049754E+03  0.32447524657E+01 0.  0.
         13    1    3    3    0    0 -0.24494846929E+01 -0.10159616900E+02 -0.26502806969E+03  0.26523403913E+03  0.00000000000E+00 0.  1.
          3    1    3    3  501    0 -0.15697857289E+01 -0.24201437752E+02 -0.55096294778E+03  0.55149645841E+03  0.00000000000E+00 0.  1.
         -1    1    1    2    0  502  0.40192704217E+01  0.34361054652E+02 -0.18200991126E+03  0.18526857372E+03  0.00000000000E+00 0. -1.
<mgrwt>
<rscale>  1 0.30000000E+03</rscale>
<asrwt>0</asrwt>
<pdfrwt beam="1">  1       21 0.72693654E-02 0.30000000E+03</pdfrwt>
<pdfrwt beam="2">0</pdfrwt>
<totfact> 0.15107480E+04</totfact>
</mgrwt>
</event>
<event>
 6    1  0.1274196E-001  0.3000000E+03  0.7818608E-02  0.1093470E+00
         21   -1    0    0  501  502  0.00000000000E+00  0.00000000000E+00  0.12915411419E+01  0.12915411419E+01  0.00000000000E+00 0. -1.
         13   -1    0    0    0    0 -0.00000000000E+00 -0.00000000000E+00 -0.10000000000E+04  0.10000000000E+04  0.00000000000E+00 0.  1.
    9000005    2    1    2  501    0  0.26169095201E+02  0.16631940935E+02 -0.75099574577E+03  0.75164572958E+03  0.39050780325E+01 0.  0.
         13    1    3    3    0    0  0.12070245057E+02  0.55762977224E+01 -0.33870715719E+03  0.33896802835E+03  0.00000000000E+00 0.  1.
          3    1    3    3  501    0  0.14098850143E+02  0.11055643212E+02 -0.41228858857E+03  0.41267770123E+03  0.00000000000E+00 0.  1.
         -3    1    1    2    0  502 -0.26169095201E+02 -0.16631940935E+02 -0.24771271309E+03  0.24964581156E+03  0.00000000000E+00 0. -1.
<mgrwt>
<rscale>  1 0.30000000E+03</rscale>
<asrwt>0</asrwt>
<pdfrwt beam="1">  1       21 0.46965231E-02 0.30000000E+03</pdfrwt>
<pdfrwt beam="2">0</pdfrwt>
<totfact> 0.32044626E+04</totfact>
</mgrwt>
</event>
<event>
 6    1  0.1274196E-001  0.3000000E+03  0.7818608E-02  0.1093470E+00
         21   -1    0    0  501  502  0.00000000000E+00  0.00000000000E+00  0.11221437557E+01  0.11221437557E+01  0.00000000000E+00 0. -1.
         13   -1    0    0    0    0 -0.00000000000E+00 -0.00000000000E+00 -0.10000000000E+04  0.10000000000E+04  0.00000000000E+00 0.  1.
    9000005    2    1    2  501    0  0.29885682831E+02 -0.10828830056E+02 -0.36980528299E+03  0.37124698151E+03  0.76129068815E+01 0.  0.
         13    1    3    3    0    0  0.18021173605E+02 -0.88403007752E+01 -0.19575029624E+03  0.19677675700E+03  0.00000000000E+00 0.  1.
          3    1    3    3  501    0  0.11864509226E+02 -0.19885292807E+01 -0.17405498675E+03  0.17447022451E+03  0.00000000000E+00 0.  1.
         -3    1    1    2    0  502 -0.29885682831E+02  0.10828830056E+02 -0.62907257325E+03  0.62987516225E+03  0.00000000000E+00 0. -1.
<mgrwt>
<rscale>  1 0.30000000E+03</rscale>
<asrwt>0</asrwt>
<pdfrwt beam="1">  1       21 0.40805314E-02 0.30000000E+03</pdfrwt>
<pdfrwt beam="2">0</pdfrwt>
<totfact> 0.40658618E+04</totfact>
</mgrwt>
</event>
<event>
 6    1  0.1274196E-001  0.3000000E+03  0.7818608E-02  0.1093470E+00
         21   -1    0    0  501  502  0.00000000000E+00  0.00000000000E+00  0.10719381469E+01  0.10719381469E+01  0.00000000000E+00 0. -1.
         13   -1    0    0    0    0 -0.00000000000E+00 -0.00000000000E+00 -0.10000000000E+04  0.10000000000E+04  0.00000000000E+00 0.  1.
    9000005    2    1    2  501    0  0.15130993143E+02 -0.28930273626E+02 -0.50877176540E+03  0.50982953094E+03  0.33961249836E+01 0.  0.
         13    1    3    3    0    0  0.39702763003E+01 -0.70077267096E+01 -0.10443614508E+03  0.10474626354E+03  0.00000000000E+00 0.  1.
          3    1    3    3  501    0  0.11160716842E+02 -0.21922546917E+02 -0.40433562032E+03  0.40508326739E+03  0.00000000000E+00 0.  1.
         -3    1    1    2    0  502 -0.15130993143E+02  0.28930273626E+02 -0.49015629646E+03  0.49124240721E+03  0.00000000000E+00 0. -1.
<mgrwt>
<rscale>  1 0.30000000E+03</rscale>
<asrwt>0</asrwt>
<pdfrwt beam="1">  1       21 0.38979651E-02 0.30000000E+03</pdfrwt>
<pdfrwt beam="2">0</pdfrwt>
<totfact> 0.43916202E+04</totfact>
</mgrwt>
</event>
<event>
 6    1  0.1274196E-001  0.3000000E+03  0.7818608E-02  0.1093470E+00
         21   -1    0    0  501  502  0.00000000000E+00  0.00000000000E+00  0.16900204923E+01  0.16900204923E+01  0.00000000000E+00 0. -1.
         13   -1    0    0    0    0 -0.00000000000E+00 -0.00000000000E+00 -0.10000000000E+04  0.10000000000E+04  0.00000000000E+00 0.  1.
    9000005    2    1    2  501    0 -0.72199547608E+01 -0.31716172703E+02 -0.80499340099E+03  0.80565598547E+03  0.30245539899E+01 0.  0.
         13    1    3    3    0    0 -0.15958590970E+01 -0.12000347962E+02 -0.32274091061E+03  0.32296787843E+03  0.00000000000E+00 0.  1.
          1    1    3    3  501    0 -0.56240956639E+01 -0.19715824741E+02 -0.48225249039E+03  0.48268810705E+03  0.00000000000E+00 0.  1.
         -3    1    1    2    0  502  0.72199547608E+01  0.31716172703E+02 -0.19331657851E+03  0.19603403502E+03  0.00000000000E+00 0. -1.
<mgrwt>
<rscale>  1 0.30000000E+03</rscale>
<asrwt>0</asrwt>
<pdfrwt beam="1">  1       21 0.61455420E-02 0.30000000E+03</pdfrwt>
<pdfrwt beam="2">0</pdfrwt>
<totfact> 0.20218004E+04</totfact>
</mgrwt>
</event>
<event>
 6    1  0.1274196E-001  0.3000000E+03  0.7818608E-02  0.1093470E+00
         21   -1    0    0  501  502  0.00000000000E+00  0.00000000000E+00  0.87849833299E+01  0.87849833299E+01  0.00000000000E+00 0. -1.
         13   -1    0    0    0    0 -0.00000000000E+00 -0.00000000000E+00 -0.10000000000E+04  0.10000000000E+04  0.00000000000E+00 0.  1.
    9000005    2    1    2  501    0  0.82510133060E+02 -0.19401237064E+02 -0.71070842998E+03  0.71575209228E+03  0.32023599923E+01 0.  0.
         13    1    3    3    0    0  0.15839857872E+02 -0.25211548981E+01 -0.13821066417E+03  0.13913822268E+03  0.00000000000E+00 0.  1.
          1    1    3    3  501    0  0.66670275188E+02 -0.16880082166E+02 -0.57249776580E+03  0.57661386960E+03  0.00000000000E+00 0.  1.
         -3    1    1    2    0  502 -0.82510133060E+02  0.19401237064E+02 -0.28050658669E+03  0.29303289105E+03  0.00000000000E+00 0. -1.
<mgrwt>
<rscale>  1 0.30000000E+03</rscale>
<asrwt>0</asrwt>
<pdfrwt beam="1">  1       21 0.31945461E-01 0.30000000E+03</pdfrwt>
<pdfrwt beam="2">0</pdfrwt>
<totfact> 0.95826548E+02</totfact>
</mgrwt>
</event>
<event>
 6    1  0.1274196E-001  0.3000000E+03  0.7818608E-02  0.1093470E+00
         21   -1    0    0  501  502  0.00000000000E+00  0.00000000000E+00  0.38463635373E+01  0.38463635373E+01  0.00000000000E+00 0. -1.
         13   -1    0    0    0    0 -0.00000000000E+00 -0.00000000000E+00 -0.10000000000E+04  0.10000000000E+04  0.00000000000E+00 0.  1.
    9000005    2    1    2  501    0  0.30488347551E+02  0.43078596854E+02 -0.76132394547E+03  0.76315924586E+03  0.35467949922E+01 0.  0.
         13    1    3    3    0    0  0.15985096760E+01  0.37089306485E+01 -0.52336404673E+02  0.52492005618E+02  0.00000000000E+00 0.  1.
          3    1    3    3  501    0  0.28889837875E+02  0.39369666206E+02 -0.70898754080E+03  0.71066724025E+03  0.00000000000E+00 0.  1.
         -3    1    1    2    0  502 -0.30488347551E+02 -0.43078596854E+02 -0.23482969099E+03  0.24068711767E+03  0.00000000000E+00 0. -1.
<mgrwt>
<rscale>  1 0.30000000E+03</rscale>
<asrwt>0</asrwt>
<pdfrwt beam="1">  1       21 0.13986806E-01 0.30000000E+03</pdfrwt>
<pdfrwt beam="2">0</pdfrwt>
<totfact> 0.46847854E+03</totfact>
</mgrwt>
</event>
<event>
 6    1  0.1274196E-001  0.3000000E+03  0.7818608E-02  0.1093470E+00
         21   -1    0    0  501  502  0.00000000000E+00  0.00000000000E+00  0.18503279052E+01  0.18503279052E+01  0.00000000000E+00 0. -1.
         13   -1    0    0    0    0 -0.00000000000E+00 -0.00000000000E+00 -0.10000000000E+04  0.10000000000E+04  0.00000000000E+00 0.  1.
    9000005    2    1    2  501    0  0.12793646629E+02 -0.27141222877E+02 -0.85769255951E+03  0.85822399380E+03  0.34019874957E+01 0.  0.
         13    1    3    3    0    0  0.86214167070E+01 -0.21114604858E+02 -0.62482704646E+03  0.62524314738E+03  0.00000000000E+00 0.  1.
          3    1    3    3  501    0  0.41722299223E+01 -0.60266180194E+01 -0.23286551305E+03  0.23298084642E+03  0.00000000000E+00 0.  1.
         -3    1    1    2    0  502 -0.12793646629E+02  0.27141222877E+02 -0.14045711258E+03  0.14362633410E+03  0.00000000000E+00 0. -1.
<mgrwt>
<rscale>  1 0.30000000E+03</rscale>
<asrwt>0</asrwt>
<pdfrwt beam="1">  1       21 0.67284793E-02 0.30000000E+03</pdfrwt>
<pdfrwt beam="2">0</pdfrwt>
<totfact> 0.17283522E+04</totfact>
</mgrwt>
</event>
<event>
 6    1  0.1274196E-001  0.3000000E+03  0.7818608E-02  0.1093470E+00
         21   -1    0    0  501  502  0.00000000000E+00  0.00000000000E+00  0.26522496686E+01  0.26522496686E+01  0.00000000000E+00 0. -1.
         13   -1    0    0    0    0 -0.00000000000E+00 -0.00000000000E+00 -0.10000000000E+04  0.10000000000E+04  0.00000000000E+00 0.  1.
    9000005    2    1    2  501    0  0.22549552130E+02 -0.44696654837E+02 -0.61492822853E+03  0.61696978454E+03  0.29522083772E+01 0.  0.
         13    1    3    3    0    0  0.19410315848E+02 -0.36525997835E+02 -0.49868829778E+03  0.50040076661E+03  0.00000000000E+00 0.  1.
          1    1    3    3  501    0  0.31392362818E+01 -0.81706570021E+01 -0.11623993075E+03  0.11656901793E+03  0.00000000000E+00 0.  1.
         -3    1    1    2    0  502 -0.22549552130E+02  0.44696654837E+02 -0.38241952180E+03  0.38568246513E+03  0.00000000000E+00 0. -1.
<mgrwt>
<rscale>  1 0.30000000E+03</rscale>
<asrwt>0</asrwt>
<pdfrwt beam="1">  1       21 0.96445646E-02 0.30000000E+03</pdfrwt>
<pdfrwt beam="2">0</pdfrwt>
<totfact> 0.91773113E+03</totfact>
</mgrwt>
</event>
<event>
 6    1  0.1274196E-001  0.3000000E+03  0.7818608E-02  0.1093470E+00
         21   -1    0    0  501  502  0.00000000000E+00  0.00000000000E+00  0.33038862789E+01  0.33038862789E+01  0.00000000000E+00 0. -1.
         13   -1    0    0    0    0 -0.00000000000E+00 -0.00000000000E+00 -0.10000000000E+04  0.10000000000E+04  0.00000000000E+00 0.  1.
    9000005    2    1    2  501    0 -0.29558560699E+02 -0.36890203357E+02 -0.78348372868E+03  0.78491405880E+03  0.29548215933E+01 0.  0.
         13    1    3    3    0    0 -0.27629769552E+01 -0.44746297808E+01 -0.98826796988E+02  0.98966621425E+02  0.00000000000E+00 0.  1.
          1    1    3    3  501    0 -0.26795583743E+02 -0.32415573576E+02 -0.68465693170E+03  0.68594743737E+03  0.00000000000E+00 0.  1.
         -3    1    1    2    0  502  0.29558560699E+02  0.36890203357E+02 -0.21321238504E+03  0.21838982748E+03  0.00000000000E+00 0. -1.
<mgrwt>
<rscale>  1 0.30000000E+03</rscale>
<asrwt>0</asrwt>
<pdfrwt beam="1">  1       21 0.12014157E-01 0.30000000E+03</pdfrwt>
<pdfrwt beam="2">0</pdfrwt>
<totfact> 0.61838717E+03</totfact>
</mgrwt>
</event>
<event>
 6    1  0.1274196E-001  0.3000000E+03  0.7818608E-02  0.1093470E+00
         21   -1    0    0  501  502  0.00000000000E+00  0.00000000000E+00  0.23779193779E+01  0.23779193779E+01  0.00000000000E+00 0. -1.
         13   -1    0    0    0    0 -0.00000000000E+00 -0.00000000000E+00 -0.10000000000E+04  0.10000000000E+04  0.00000000000E+00 0.  1.
    9000005    2    1    2  501    0  0.15961711363E+02  0.26907829376E+02 -0.88307955176E+03  0.88363955814E+03  0.32506094501E+01 0.  0.
         13    1    3    3    0    0  0.46137170932E+01  0.67242029658E+01 -0.19476699455E+03  0.19493763992E+03  0.00000000000E+00 0.  1.
          3    1    3    3  501    0  0.11347994270E+02  0.20183626410E+02 -0.68831255721E+03  0.68870191822E+03  0.00000000000E+00 0.  1.
         -3    1    1    2    0  502 -0.15961711363E+02 -0.26907829376E+02 -0.11454252886E+03  0.11873836124E+03  0.00000000000E+00 0. -1.
<mgrwt>
<rscale>  1 0.30000000E+03</rscale>
<asrwt>0</asrwt>
<pdfrwt beam="1">  1       21 0.86469978E-02 0.30000000E+03</pdfrwt>
<pdfrwt beam="2">0</pdfrwt>
<totfact> 0.11139107E+04</totfact>
</mgrwt>
</event>
<event>
 6    1  0.1274196E-001  0.3000000E+03  0.7818608E-02  0.1093470E+00
         21   -1    0    0  501  502  0.00000000000E+00  0.00000000000E+00  0.11717403705E+02  0.11717403705E+02  0.00000000000E+00 0. -1.
         13   -1    0    0    0    0 -0.00000000000E+00 -0.00000000000E+00 -0.10000000000E+04  0.10000000000E+04  0.00000000000E+00 0.  1.
    9000005    2    1    2  501    0  0.22014232193E+02  0.98734796399E+02 -0.31453974609E+03  0.33042259627E+03  0.32640182033E+01 0.  0.
         13    1    3    3    0    0  0.13510746340E+02  0.62329894007E+02 -0.19326633678E+03  0.20351764760E+03  0.00000000000E+00 0.  1.
          3    1    3    3  501    0  0.85034858539E+01  0.36404902392E+02 -0.12127340932E+03  0.12690494867E+03  0.00000000000E+00 0.  1.
         -1    1    1    2    0  502 -0.22014232193E+02 -0.98734796399E+02 -0.67374285020E+03  0.68129480743E+03  0.00000000000E+00 0. -1.
<mgrwt>
<rscale>  1 0.30000000E+03</rscale>
<asrwt>0</asrwt>
<pdfrwt beam="1">  1       21 0.42608831E-01 0.30000000E+03</pdfrwt>
<pdfrwt beam="2">0</pdfrwt>
<totfact> 0.52892306E+02</totfact>
</mgrwt>
</event>
<event>
 6    1  0.1274196E-001  0.3000000E+03  0.7818608E-02  0.1093470E+00
         21   -1    0    0  501  502  0.00000000000E+00  0.00000000000E+00  0.24698081560E+01  0.24698081560E+01  0.00000000000E+00 0. -1.
         13   -1    0    0    0    0 -0.00000000000E+00 -0.00000000000E+00 -0.10000000000E+04  0.10000000000E+04  0.00000000000E+00 0.  1.
    9000005    2    1    2  501    0 -0.25367361743E+02 -0.42021635786E+02 -0.57412838992E+03  0.57623230771E+03  0.33080837501E+01 0.  0.
         13    1    3    3    0    0 -0.51752606311E+01 -0.62491604278E+01 -0.97600752291E+02  0.97937440116E+02  0.00000000000E+00 0.  1.
          1    1    3    3  501    0 -0.20192101112E+02 -0.35772475358E+02 -0.47652763763E+03  0.47829486760E+03  0.00000000000E+00 0.  1.
         -1    1    1    2    0  502  0.25367361743E+02  0.42021635786E+02 -0.42340180192E+03  0.42623750044E+03  0.00000000000E+00 0. -1.
<mgrwt>
<rscale>  1 0.30000000E+03</rscale>
<asrwt>0</asrwt>
<pdfrwt beam="1">  1       21 0.89811395E-02 0.30000000E+03</pdfrwt>
<pdfrwt beam="2">0</pdfrwt>
<totfact> 0.10416729E+04</totfact>
</mgrwt>
</event>
<event>
 6    1  0.1274196E-001  0.3000000E+03  0.7818608E-02  0.1093470E+00
         21   -1    0    0  501  502  0.00000000000E+00  0.00000000000E+00  0.16067393608E+01  0.16067393608E+01  0.00000000000E+00 0. -1.
         13   -1    0    0    0    0 -0.00000000000E+00 -0.00000000000E+00 -0.10000000000E+04  0.10000000000E+04  0.00000000000E+00 0.  1.
    9000005    2    1    2  501    0  0.11605051195E+01 -0.32003564889E+02 -0.79984197245E+03  0.80048938809E+03  0.32410840160E+01 0.  0.
         13    1    3    3    0    0  0.11401331356E+01 -0.12968892434E+02 -0.36141032597E+03  0.36164473699E+03  0.00000000000E+00 0.  1.
          3    1    3    3  501    0  0.20371983923E-01 -0.19034672455E+02 -0.43843164647E+03  0.43884465110E+03  0.00000000000E+00 0.  1.
         -1    1    1    2    0  502 -0.11605051195E+01  0.32003564889E+02 -0.19855128819E+03  0.20111735127E+03  0.00000000000E+00 0. -1.
<mgrwt>
<rscale>  1 0.30000000E+03</rscale>
<asrwt>0</asrwt>
<pdfrwt beam="1">  1       21 0.58427009E-02 0.30000000E+03</pdfrwt>
<pdfrwt beam="2">0</pdfrwt>
<totfact> 0.22059065E+04</totfact>
</mgrwt>
</event>
<event>
 6    1  0.1274196E-001  0.3000000E+03  0.7818608E-02  0.1093470E+00
         21   -1    0    0  501  502  0.00000000000E+00  0.00000000000E+00  0.74423991247E+01  0.74423991247E+01  0.00000000000E+00 0. -1.
         13   -1    0    0    0    0 -0.00000000000E+00 -0.00000000000E+00 -0.10000000000E+04  0.10000000000E+04  0.00000000000E+00 0.  1.
    9000005    2    1    2  501    0 -0.71684373637E+02  0.28884995055E+02 -0.27362340217E+03  0.28436607228E+03  0.46156787746E+01 0.  0.
         13    1    3    3    0    0 -0.15423338600E+02  0.42643472754E+01 -0.58279857742E+02  0.60436792186E+02  0.00000000000E+00 0.  1.
          1    1    3    3  501    0 -0.56261035037E+02  0.24620647779E+02 -0.21534354442E+03  0.22392928010E+03  0.00000000000E+00 0.  1.
         -1    1    1    2    0  502  0.71684373637E+02 -0.28884995055E+02 -0.71893419871E+03  0.72307632684E+03  0.00000000000E+00 0. -1.
<mgrwt>
<rscale>  1 0.30000000E+03</rscale>
<asrwt>0</asrwt>
<pdfrwt beam="1">  1       21 0.27063327E-01 0.30000000E+03</pdfrwt>
<pdfrwt beam="2">0</pdfrwt>
<totfact> 0.13342888E+03</totfact>
</mgrwt>
</event>
<event>
 6    1  0.1274196E-001  0.3000000E+03  0.7818608E-02  0.1093470E+00
         21   -1    0    0  501  502  0.00000000000E+00  0.00000000000E+00  0.43577882184E+01  0.43577882184E+01  0.00000000000E+00 0. -1.
         13   -1    0    0    0    0 -0.00000000000E+00 -0.00000000000E+00 -0.10000000000E+04  0.10000000000E+04  0.00000000000E+00 0.  1.
    9000005    2    1    2  501    0  0.29462771767E+02  0.82403718821E+01 -0.94269201823E+03  0.94320485169E+03  0.55850126331E+01 0.  0.
         13    1    3    3    0    0  0.22211134389E+02  0.65588241826E+01 -0.63336211877E+03  0.63378539440E+03  0.00000000000E+00 0.  1.
          1    1    3    3  501    0  0.72516373784E+01  0.16815476994E+01 -0.30932989946E+03  0.30941945729E+03  0.00000000000E+00 0.  1.
         -3    1    1    2    0  502 -0.29462771767E+02 -0.82403718821E+01 -0.52950193548E+02  0.61152936526E+02  0.00000000000E+00 0. -1.
<mgrwt>
<rscale>  1 0.30000000E+03</rscale>
<asrwt>0</asrwt>
<pdfrwt beam="1">  1       21 0.15846536E-01 0.30000000E+03</pdfrwt>
<pdfrwt beam="2">0</pdfrwt>
<totfact> 0.37188509E+03</totfact>
</mgrwt>
</event>
<event>
 6    1  0.1274196E-001  0.3000000E+03  0.7818608E-02  0.1093470E+00
         21   -1    0    0  501  502  0.00000000000E+00  0.00000000000E+00  0.20648659792E+01  0.20648659792E+01  0.00000000000E+00 0. -1.
         13   -1    0    0    0    0 -0.00000000000E+00 -0.00000000000E+00 -0.10000000000E+04  0.10000000000E+04  0.00000000000E+00 0.  1.
    9000005    2    1    2  501    0  0.30112917531E+02 -0.18526827243E+02 -0.81331329489E+03  0.81408812642E+03  0.33061774197E+01 0.  0.
         13    1    3    3    0    0  0.23640009608E+02 -0.14648512728E+02 -0.66877651520E+03  0.66935450717E+03  0.00000000000E+00 0.  1.
          1    1    3    3  501    0  0.64729079230E+01 -0.38783145149E+01 -0.14453677968E+03  0.14473361925E+03  0.00000000000E+00 0.  1.
         -3    1    1    2    0  502 -0.30112917531E+02  0.18526827243E+02 -0.18462183913E+03  0.18797673956E+03  0.00000000000E+00 0. -1.
<mgrwt>
<rscale>  1 0.30000000E+03</rscale>
<asrwt>0</asrwt>
<pdfrwt beam="1">  1       21 0.75086194E-02 0.30000000E+03</pdfrwt>
<pdfrwt beam="2">0</pdfrwt>
<totfact> 0.14275724E+04</totfact>
</mgrwt>
</event>
<event>
 6    1  0.1274196E-001  0.3000000E+03  0.7818608E-02  0.1093470E+00
         21   -1    0    0  501  502  0.00000000000E+00  0.00000000000E+00  0.68563892556E+01  0.68563892556E+01  0.00000000000E+00 0. -1.
         13   -1    0    0    0    0 -0.00000000000E+00 -0.00000000000E+00 -0.10000000000E+04  0.10000000000E+04  0.00000000000E+00 0.  1.
    9000005    2    1    2  501    0 -0.47008421524E+02 -0.67988704157E+02 -0.52311148485E+03  0.52961174029E+03  0.32732691453E+01 0.  0.
         13    1    3    3    0    0 -0.15579952036E+02 -0.25254823424E+02 -0.18933893086E+03  0.19165012849E+03  0.00000000000E+00 0.  1.
          3    1    3    3  501    0 -0.31428469487E+02 -0.42733880733E+02 -0.33377255398E+03  0.33796161180E+03  0.00000000000E+00 0.  1.
         -1    1    1    2    0  502  0.47008421524E+02  0.67988704157E+02 -0.47003212590E+03  0.47724464896E+03  0.00000000000E+00 0. -1.
<mgrwt>
<rscale>  1 0.30000000E+03</rscale>
<asrwt>0</asrwt>
<pdfrwt beam="1">  1       21 0.24932377E-01 0.30000000E+03</pdfrwt>
<pdfrwt beam="2">0</pdfrwt>
<totfact> 0.15678862E+03</totfact>
</mgrwt>
</event>
<event>
 6    1  0.1274196E-001  0.3000000E+03  0.7818608E-02  0.1093470E+00
         21   -1    0    0  501  502  0.00000000000E+00  0.00000000000E+00  0.10945834272E+01  0.10945834272E+01  0.00000000000E+00 0. -1.
         13   -1    0    0    0    0 -0.00000000000E+00 -0.00000000000E+00 -0.10000000000E+04  0.10000000000E+04  0.00000000000E+00 0.  1.
    9000005    2    1    2  501    0 -0.26718638647E+02 -0.17360060946E+02 -0.37007567713E+03  0.37145810214E+03  0.31396609419E+01 0.  0.
         13    1    3    3    0    0 -0.20231883464E+00  0.12040043729E+00 -0.41860357279E+01  0.41926512247E+01  0.00000000000E+00 0.  1.
          1    1    3    3  501    0 -0.26516319812E+02 -0.17480461383E+02 -0.36588964141E+03  0.36726545091E+03  0.00000000000E+00 0.  1.
         -3    1    1    2    0  502  0.26718638647E+02  0.17360060946E+02 -0.62882973944E+03  0.62963648129E+03  0.00000000000E+00 0. -1.
<mgrwt>
<rscale>  1 0.30000000E+03</rscale>
<asrwt>0</asrwt>
<pdfrwt beam="1">  1       21 0.39803118E-02 0.30000000E+03</pdfrwt>
<pdfrwt beam="2">0</pdfrwt>
<totfact> 0.42398122E+04</totfact>
</mgrwt>
</event>
<event>
 6    1  0.1274196E-001  0.3000000E+03  0.7818608E-02  0.1093470E+00
         21   -1    0    0  501  502  0.00000000000E+00  0.00000000000E+00  0.10918820789E+01  0.10918820789E+01  0.00000000000E+00 0. -1.
         13   -1    0    0    0    0 -0.00000000000E+00 -0.00000000000E+00 -0.10000000000E+04  0.10000000000E+04  0.00000000000E+00 0.  1.
    9000005    2    1    2  501    0  0.16622421197E+02 -0.25009168987E+02 -0.29689616178E+03  0.29843794878E+03  0.40143455875E+01 0.  0.
         13    1    3    3    0    0  0.61272584818E+01 -0.90270932388E+01 -0.12757798017E+03  0.12804363605E+03  0.00000000000E+00 0.  1.
          1    1    3    3  501    0  0.10495162716E+02 -0.15982075749E+02 -0.16931818162E+03  0.17039431273E+03  0.00000000000E+00 0.  1.
         -1    1    1    2    0  502 -0.16622421197E+02  0.25009168987E+02 -0.70201195614E+03  0.70265393330E+03  0.00000000000E+00 0. -1.
<mgrwt>
<rscale>  1 0.30000000E+03</rscale>
<asrwt>0</asrwt>
<pdfrwt beam="1">  1       21 0.39704887E-02 0.30000000E+03</pdfrwt>
<pdfrwt beam="2">0</pdfrwt>
<totfact> 0.42574862E+04</totfact>
</mgrwt>
</event>
<event>
 6    1  0.1274196E-001  0.3000000E+03  0.7818608E-02  0.1093470E+00
         21   -1    0    0  501  502  0.00000000000E+00  0.00000000000E+00  0.14932216235E+01  0.14932216235E+01  0.00000000000E+00 0. -1.
         13   -1    0    0    0    0 -0.00000000000E+00 -0.00000000000E+00 -0.10000000000E+04  0.10000000000E+04  0.00000000000E+00 0.  1.
    9000005    2    1    2  501    0 -0.19295300307E+02 -0.27455178999E+02 -0.74678459727E+03  0.74754410876E+03  0.29773042070E+01 0.  0.
         13    1    3    3    0    0 -0.11141162707E+01 -0.31056372056E+01 -0.71196190303E+02  0.71272601687E+02  0.00000000000E+00 0.  1.
          1    1    3    3  501    0 -0.18181184036E+02 -0.24349541794E+02 -0.67558840697E+03  0.67627150707E+03  0.00000000000E+00 0.  1.
         -3    1    1    2    0  502  0.19295300307E+02  0.27455178999E+02 -0.25172218110E+03  0.25394911287E+03  0.00000000000E+00 0. -1.
<mgrwt>
<rscale>  1 0.30000000E+03</rscale>
<asrwt>0</asrwt>
<pdfrwt beam="1">  1       21 0.54299083E-02 0.30000000E+03</pdfrwt>
<pdfrwt beam="2">0</pdfrwt>
<totfact> 0.25018095E+04</totfact>
</mgrwt>
</event>
<event>
 6    1  0.1274196E-001  0.3000000E+03  0.7818608E-02  0.1093470E+00
         21   -1    0    0  501  502  0.00000000000E+00  0.00000000000E+00  0.53331085008E+01  0.53331085008E+01  0.00000000000E+00 0. -1.
         13   -1    0    0    0    0 -0.00000000000E+00 -0.00000000000E+00 -0.10000000000E+04  0.10000000000E+04  0.00000000000E+00 0.  1.
    9000005    2    1    2  501    0  0.67553387209E+01 -0.68875931652E+02 -0.65732593115E+03  0.66096636781E+03  0.31033943911E+01 0.  0.
         13    1    3    3    0    0  0.43431240809E+01 -0.35972865416E+02 -0.33143344920E+03  0.33340821978E+03  0.00000000000E+00 0.  1.
          3    1    3    3  501    0  0.24122146400E+01 -0.32903066235E+02 -0.32589248195E+03  0.32755814803E+03  0.00000000000E+00 0.  1.
         -1    1    1    2    0  502 -0.67553387209E+01  0.68875931652E+02 -0.33734096035E+03  0.34436674069E+03  0.00000000000E+00 0. -1.
<mgrwt>
<rscale>  1 0.30000000E+03</rscale>
<asrwt>0</asrwt>
<pdfrwt beam="1">  1       21 0.19393163E-01 0.30000000E+03</pdfrwt>
<pdfrwt beam="2">0</pdfrwt>
<totfact> 0.25442393E+03</totfact>
</mgrwt>
</event>
<event>
 6    1  0.1274196E-001  0.3000000E+03  0.7818608E-02  0.1093470E+00
         21   -1    0    0  501  502  0.00000000000E+00  0.00000000000E+00  0.19567048952E+01  0.19567048952E+01  0.00000000000E+00 0. -1.
         13   -1    0    0    0    0 -0.00000000000E+00 -0.00000000000E+00 -0.10000000000E+04  0.10000000000E+04  0.00000000000E+00 0.  1.
    9000005    2    1    2  501    0  0.13999576044E+02  0.37645990251E+02 -0.29182971859E+03  0.29460189693E+03  0.35333136427E+01 0.  0.
         13    1    3    3    0    0  0.11123196358E+02  0.33119945754E+02 -0.25599021309E+03  0.25836339815E+03  0.00000000000E+00 0.  1.
          1    1    3    3  501    0  0.28763796861E+01  0.45260444975E+01 -0.35839505502E+02  0.36238498775E+02  0.00000000000E+00 0.  1.
         -3    1    1    2    0  502 -0.13999576044E+02 -0.37645990251E+02 -0.70621357651E+03  0.70735480797E+03  0.00000000000E+00 0. -1.
<mgrwt>
<rscale>  1 0.30000000E+03</rscale>
<asrwt>0</asrwt>
<pdfrwt beam="1">  1       21 0.71153055E-02 0.30000000E+03</pdfrwt>
<pdfrwt beam="2">0</pdfrwt>
<totfact> 0.15682663E+04</totfact>
</mgrwt>
</event>
<event>
 6    1  0.1274196E-001  0.3000000E+03  0.7818608E-02  0.1093470E+00
         21   -1    0    0  501  502  0.00000000000E+00  0.00000000000E+00  0.27846316412E+01  0.27846316412E+01  0.00000000000E+00 0. -1.
         13   -1    0    0    0    0 -0.00000000000E+00 -0.00000000000E+00 -0.10000000000E+04  0.10000000000E+04  0.00000000000E+00 0.  1.
    9000005    2    1    2  501    0  0.34805779384E+02 -0.47770378625E+01 -0.87257024549E+03  0.87328301380E+03  0.31822166285E+01 0.  0.
         13    1    3    3    0    0  0.24238974240E+02 -0.46915027772E+01 -0.62428549827E+03  0.62477349609E+03  0.00000000000E+00 0.  1.
          3    1    3    3  501    0  0.10566805144E+02 -0.85535085298E-01 -0.24828474723E+03  0.24850951771E+03  0.00000000000E+00 0.  1.
         -3    1    1    2    0  502 -0.34805779384E+02  0.47770378625E+01 -0.12464512287E+03  0.12950161784E+03  0.00000000000E+00 0. -1.
<mgrwt>
<rscale>  1 0.30000000E+03</rscale>
<asrwt>0</asrwt>
<pdfrwt beam="1">  1       21 0.10125955E-01 0.30000000E+03</pdfrwt>
<pdfrwt beam="2">0</pdfrwt>
<totfact> 0.84128477E+03</totfact>
</mgrwt>
</event>
<event>
 6    1  0.1274196E-001  0.3000000E+03  0.7818608E-02  0.1093470E+00
         21   -1    0    0  501  502  0.00000000000E+00  0.00000000000E+00  0.30395803850E+01  0.30395803850E+01  0.00000000000E+00 0. -1.
         13   -1    0    0    0    0 -0.00000000000E+00 -0.00000000000E+00 -0.10000000000E+04  0.10000000000E+04  0.00000000000E+00 0.  1.
    9000005    2    1    2  501    0 -0.27773429942E+02 -0.35694951543E+02 -0.78495181265E+03  0.78626056294E+03  0.32911516049E+01 0.  0.
         13    1    3    3    0    0 -0.35424801142E+01 -0.55408664110E+01 -0.13228972709E+03  0.13245309457E+03  0.00000000000E+00 0.  1.
          3    1    3    3  501    0 -0.24230949828E+02 -0.30154085132E+02 -0.65266208555E+03  0.65380746837E+03  0.00000000000E+00 0.  1.
         -3    1    1    2    0  502  0.27773429942E+02  0.35694951543E+02 -0.21200860697E+03  0.21677901745E+03  0.00000000000E+00 0. -1.
<mgrwt>
<rscale>  1 0.30000000E+03</rscale>
<asrwt>0</asrwt>
<pdfrwt beam="1">  1       21 0.11053043E-01 0.30000000E+03</pdfrwt>
<pdfrwt beam="2">0</pdfrwt>
<totfact> 0.71895165E+03</totfact>
</mgrwt>
</event>
<event>
 6    1  0.1274196E-001  0.3000000E+03  0.7818608E-02  0.1093470E+00
         21   -1    0    0  501  502  0.00000000000E+00  0.00000000000E+00  0.28006063851E+01  0.28006063851E+01  0.00000000000E+00 0. -1.
         13   -1    0    0    0    0 -0.00000000000E+00 -0.00000000000E+00 -0.10000000000E+04  0.10000000000E+04  0.00000000000E+00 0.  1.
    9000005    2    1    2  501    0  0.36232421101E+02 -0.18708495820E+02 -0.81772801367E+03  0.81875503492E+03  0.42316332579E+01 0.  0.
         13    1    3    3    0    0  0.19806165557E+02 -0.87120407272E+01 -0.46531786678E+03  0.46582067472E+03  0.00000000000E+00 0.  1.
          1    1    3    3  501    0  0.16426255544E+02 -0.99964550928E+01 -0.35241014688E+03  0.35293436020E+03  0.00000000000E+00 0.  1.
         -3    1    1    2    0  502 -0.36232421101E+02  0.18708495820E+02 -0.17947137995E+03  0.18404557146E+03  0.00000000000E+00 0. -1.
<mgrwt>
<rscale>  1 0.30000000E+03</rscale>
<asrwt>0</asrwt>
<pdfrwt beam="1">  1       21 0.10184045E-01 0.30000000E+03</pdfrwt>
<pdfrwt beam="2">0</pdfrwt>
<totfact> 0.83272147E+03</totfact>
</mgrwt>
</event>
<event>
 6    1  0.1274196E-001  0.3000000E+03  0.7818608E-02  0.1093470E+00
         21   -1    0    0  501  502  0.00000000000E+00  0.00000000000E+00  0.17835535741E+01  0.17835535741E+01  0.00000000000E+00 0. -1.
         13   -1    0    0    0    0 -0.00000000000E+00 -0.00000000000E+00 -0.10000000000E+04  0.10000000000E+04  0.00000000000E+00 0.  1.
    9000005    2    1    2  501    0 -0.29397763877E+02 -0.21610814840E+02 -0.26030353481E+03  0.26296915133E+03  0.79742382587E+01 0.  0.
         13    1    3    3    0    0 -0.19930347784E+02 -0.17926300849E+02 -0.17077257441E+03  0.17286365493E+03  0.00000000000E+00 0.  1.
          1    1    3    3  501    0 -0.94674160932E+01 -0.36845139902E+01 -0.89530960402E+02  0.90105496399E+02  0.00000000000E+00 0.  1.
         -1    1    1    2    0  502  0.29397763877E+02  0.21610814840E+02 -0.73791291161E+03  0.73881440225E+03  0.00000000000E+00 0. -1.
<mgrwt>
<rscale>  1 0.30000000E+03</rscale>
<asrwt>0</asrwt>
<pdfrwt beam="1">  1       21 0.64856630E-02 0.30000000E+03</pdfrwt>
<pdfrwt beam="2">0</pdfrwt>
<totfact> 0.18420329E+04</totfact>
</mgrwt>
</event>
<event>
 6    1  0.1274196E-001  0.3000000E+03  0.7818608E-02  0.1093470E+00
         21   -1    0    0  501  502  0.00000000000E+00  0.00000000000E+00  0.10298681217E+01  0.10298681217E+01  0.00000000000E+00 0. -1.
         13   -1    0    0    0    0 -0.00000000000E+00 -0.00000000000E+00 -0.10000000000E+04  0.10000000000E+04  0.00000000000E+00 0.  1.
    9000005    2    1    2  501    0  0.21747821709E+02 -0.22287563968E+02 -0.58550198844E+03  0.58639073719E+03  0.84743698868E+01 0.  0.
         13    1    3    3    0    0  0.59689745549E+01 -0.65199369867E+01 -0.10507519025E+03  0.10544635528E+03  0.00000000000E+00 0.  1.
          3    1    3    3  501    0  0.15778847154E+02 -0.15767626981E+02 -0.48042679819E+03  0.48094438192E+03  0.00000000000E+00 0.  1.
         -3    1    1    2    0  502 -0.21747821709E+02  0.22287563968E+02 -0.41346814344E+03  0.41463913093E+03  0.00000000000E+00 0. -1.
<mgrwt>
<rscale>  1 0.30000000E+03</rscale>
<asrwt>0</asrwt>
<pdfrwt beam="1">  1       21 0.37449829E-02 0.30000000E+03</pdfrwt>
<pdfrwt beam="2">0</pdfrwt>
<totfact> 0.46972757E+04</totfact>
</mgrwt>
</event>
<event>
 6    1  0.1274196E-001  0.3000000E+03  0.7818608E-02  0.1093470E+00
         21   -1    0    0  501  502  0.00000000000E+00  0.00000000000E+00  0.92355392299E+00  0.92355392299E+00  0.00000000000E+00 0. -1.
         13   -1    0    0    0    0 -0.00000000000E+00 -0.00000000000E+00 -0.10000000000E+04  0.10000000000E+04  0.00000000000E+00 0.  1.
    9000005    2    1    2  501    0 -0.10811993584E+02  0.28312831354E+02 -0.51562650004E+03  0.51652457999E+03  0.29049208956E+01 0.  0.
         13    1    3    3    0    0 -0.10799615839E+02  0.27966455865E+02 -0.50248855618E+03  0.50338206508E+03  0.00000000000E+00 0.  1.
          1    1    3    3  501    0 -0.12377745664E-01  0.34637548905E+00 -0.13137943863E+02  0.13142514909E+02  0.00000000000E+00 0.  1.
         -3    1    1    2    0  502  0.10811993584E+02 -0.28312831354E+02 -0.48344994604E+03  0.48439897393E+03  0.00000000000E+00 0. -1.
<mgrwt>
<rscale>  1 0.30000000E+03</rscale>
<asrwt>0</asrwt>
<pdfrwt beam="1">  1       21 0.33583850E-02 0.30000000E+03</pdfrwt>
<pdfrwt beam="2">0</pdfrwt>
<totfact> 0.56378997E+04</totfact>
</mgrwt>
</event>
<event>
 6    1  0.1274196E-001  0.3000000E+03  0.7818608E-02  0.1093470E+00
         21   -1    0    0  501  502  0.00000000000E+00  0.00000000000E+00  0.10490777725E+01  0.10490777725E+01  0.00000000000E+00 0. -1.
         13   -1    0    0    0    0 -0.00000000000E+00 -0.00000000000E+00 -0.10000000000E+04  0.10000000000E+04  0.00000000000E+00 0.  1.
    9000005    2    1    2  501    0  0.31372823532E+02  0.17550269804E+00 -0.38005625746E+03  0.38135972743E+03  0.28632165325E+01 0.  0.
         13    1    3    3    0    0  0.22465989410E+02 -0.10594595631E+01 -0.26515502043E+03  0.26610717389E+03  0.00000000000E+00 0.  1.
          1    1    3    3  501    0  0.89068341212E+01  0.12349622612E+01 -0.11490123703E+03  0.11525255354E+03  0.00000000000E+00 0.  1.
         -3    1    1    2    0  502 -0.31372823532E+02 -0.17550269804E+00 -0.61889466476E+03  0.61968935035E+03  0.00000000000E+00 0. -1.
<mgrwt>
<rscale>  1 0.30000000E+03</rscale>
<asrwt>0</asrwt>
<pdfrwt beam="1">  1       21 0.38148363E-02 0.30000000E+03</pdfrwt>
<pdfrwt beam="2">0</pdfrwt>
<totfact> 0.45536950E+04</totfact>
</mgrwt>
</event>
<event>
 6    1  0.1274196E-001  0.3000000E+03  0.7818608E-02  0.1093470E+00
         21   -1    0    0  501  502  0.00000000000E+00  0.00000000000E+00  0.98978990199E+00  0.98978990199E+00  0.00000000000E+00 0. -1.
         13   -1    0    0    0    0 -0.00000000000E+00 -0.00000000000E+00 -0.10000000000E+04  0.10000000000E+04  0.00000000000E+00 0.  1.
    9000005    2    1    2  501    0  0.29596484645E+02  0.77417990453E+01 -0.60681440231E+03  0.60760265361E+03  0.46236850849E+01 0.  0.
         13    1    3    3    0    0  0.54168086854E+01  0.15523554182E+01 -0.15138180386E+03  0.15148664022E+03  0.00000000000E+00 0.  1.
          1    1    3    3  501    0  0.24179675960E+02  0.61894436271E+01 -0.45543259845E+03  0.45611601339E+03  0.00000000000E+00 0.  1.
         -3    1    1    2    0  502 -0.29596484645E+02 -0.77417990453E+01 -0.39219580779E+03  0.39338713630E+03  0.00000000000E+00 0. -1.
<mgrwt>
<rscale>  1 0.30000000E+03</rscale>
<asrwt>0</asrwt>
<pdfrwt beam="1">  1       21 0.35992436E-02 0.30000000E+03</pdfrwt>
<pdfrwt beam="2">0</pdfrwt>
<totfact> 0.50208001E+04</totfact>
</mgrwt>
</event>
<event>
 6    1  0.1274196E-001  0.3000000E+03  0.7818608E-02  0.1093470E+00
         21   -1    0    0  501  502  0.00000000000E+00  0.00000000000E+00  0.10787925811E+01  0.10787925811E+01  0.00000000000E+00 0. -1.
         13   -1    0    0    0    0 -0.00000000000E+00 -0.00000000000E+00 -0.10000000000E+04  0.10000000000E+04  0.00000000000E+00 0.  1.
    9000005    2    1    2  501    0 -0.36994203862E+01  0.29896488142E+02 -0.69568785356E+03  0.69635276382E+03  0.42539827040E+01 0.  0.
         13    1    3    3    0    0 -0.17972832690E+01  0.95350003435E+01 -0.26938365606E+03  0.26955834361E+03  0.00000000000E+00 0.  1.
          1    1    3    3  501    0 -0.19021371172E+01  0.20361487799E+02 -0.42630419750E+03  0.42679442021E+03  0.00000000000E+00 0.  1.
         -1    1    1    2    0  502  0.36994203862E+01 -0.29896488142E+02 -0.30323335386E+03  0.30472602876E+03  0.00000000000E+00 0. -1.
<mgrwt>
<rscale>  1 0.30000000E+03</rscale>
<asrwt>0</asrwt>
<pdfrwt beam="1">  1       21 0.39228904E-02 0.30000000E+03</pdfrwt>
<pdfrwt beam="2">0</pdfrwt>
<totfact> 0.43447827E+04</totfact>
</mgrwt>
</event>
<event>
 6    1  0.1274196E-001  0.3000000E+03  0.7818608E-02  0.1093470E+00
         21   -1    0    0  501  502  0.00000000000E+00  0.00000000000E+00  0.28127492779E+01  0.28127492779E+01  0.00000000000E+00 0. -1.
         13   -1    0    0    0    0 -0.00000000000E+00 -0.00000000000E+00 -0.10000000000E+04  0.10000000000E+04  0.00000000000E+00 0.  1.
    9000005    2    1    2  501    0  0.35140864518E+02 -0.39456540574E+02 -0.53746733956E+03  0.54006649520E+03  0.29965280634E+01 0.  0.
         13    1    3    3    0    0  0.12221293561E+02 -0.11763865583E+02 -0.17754513186E+03  0.17835364420E+03  0.00000000000E+00 0.  1.
          3    1    3    3  501    0  0.22919570957E+02 -0.27692674991E+02 -0.35992220770E+03  0.36171285100E+03  0.00000000000E+00 0.  1.
         -3    1    1    2    0  502 -0.35140864518E+02  0.39456540574E+02 -0.45971991116E+03  0.46274625408E+03  0.00000000000E+00 0. -1.
<mgrwt>
<rscale>  1 0.30000000E+03</rscale>
<asrwt>0</asrwt>
<pdfrwt beam="1">  1       21 0.10228201E-01 0.30000000E+03</pdfrwt>
<pdfrwt beam="2">0</pdfrwt>
<totfact> 0.82630074E+03</totfact>
</mgrwt>
</event>
<event>
 6    1  0.1274196E-001  0.3000000E+03  0.7818608E-02  0.1093470E+00
         21   -1    0    0  501  502  0.00000000000E+00  0.00000000000E+00  0.24738121722E+01  0.24738121722E+01  0.00000000000E+00 0. -1.
         13   -1    0    0    0    0 -0.00000000000E+00 -0.00000000000E+00 -0.10000000000E+04  0.10000000000E+04  0.00000000000E+00 0.  1.
    9000005    2    1    2  501    0  0.32826452224E+02  0.10634088673E+02 -0.85952714175E+03  0.86022615305E+03  0.33863222355E+01 0.  0.
         13    1    3    3    0    0  0.13100321146E+02  0.36222752880E+01 -0.37746342976E+03  0.37770806200E+03  0.00000000000E+00 0.  1.
          3    1    3    3  501    0  0.19726131078E+02  0.70118133852E+01 -0.48206371198E+03  0.48251809104E+03  0.00000000000E+00 0.  1.
         -1    1    1    2    0  502 -0.32826452224E+02 -0.10634088673E+02 -0.13799904608E+03  0.14224765913E+03  0.00000000000E+00 0. -1.
<mgrwt>
<rscale>  1 0.30000000E+03</rscale>
<asrwt>0</asrwt>
<pdfrwt beam="1">  1       21 0.89956996E-02 0.30000000E+03</pdfrwt>
<pdfrwt beam="2">0</pdfrwt>
<totfact> 0.10386881E+04</totfact>
</mgrwt>
</event>
<event>
 6    1  0.1274196E-001  0.3000000E+03  0.7818608E-02  0.1093470E+00
         21   -1    0    0  501  502  0.00000000000E+00  0.00000000000E+00  0.16586194935E+01  0.16586194935E+01  0.00000000000E+00 0. -1.
         13   -1    0    0    0    0 -0.00000000000E+00 -0.00000000000E+00 -0.10000000000E+04  0.10000000000E+04  0.00000000000E+00 0.  1.
    9000005    2    1    2  501    0 -0.34691447869E+02  0.86967764099E+01 -0.73808284052E+03  0.73895415034E+03  0.27975641718E+01 0.  0.
         13    1    3    3    0    0 -0.24010404242E+02  0.72545531797E+01 -0.50674478358E+03  0.50736515819E+03  0.00000000000E+00 0.  1.
          3    1    3    3  501    0 -0.10681043628E+02  0.14422232302E+01 -0.23133805694E+03  0.23158899216E+03  0.00000000000E+00 0.  1.
         -3    1    1    2    0  502  0.34691447869E+02 -0.86967764099E+01 -0.26025853999E+03  0.26270446915E+03  0.00000000000E+00 0. -1.
<mgrwt>
<rscale>  1 0.30000000E+03</rscale>
<asrwt>0</asrwt>
<pdfrwt beam="1">  1       21 0.60313563E-02 0.30000000E+03</pdfrwt>
<pdfrwt beam="2">0</pdfrwt>
<totfact> 0.20883069E+04</totfact>
</mgrwt>
</event>
<event>
 6    1  0.1274196E-001  0.3000000E+03  0.7818608E-02  0.1093470E+00
         21   -1    0    0  501  502  0.00000000000E+00  0.00000000000E+00  0.11626087757E+01  0.11626087757E+01  0.00000000000E+00 0. -1.
         13   -1    0    0    0    0 -0.00000000000E+00 -0.00000000000E+00 -0.10000000000E+04  0.10000000000E+04  0.00000000000E+00 0.  1.
    9000005    2    1    2  501    0  0.28359903814E+02  0.16166246571E+02 -0.63818356094E+03  0.63903443123E+03  0.45951249417E+01 0.  0.
         13    1    3    3    0    0  0.10006053287E+02  0.77180622569E+01 -0.21914758497E+03  0.21951162518E+03  0.00000000000E+00 0.  1.
          3    1    3    3  501    0  0.18353850527E+02  0.84481843145E+01 -0.41903597597E+03  0.41952280606E+03  0.00000000000E+00 0.  1.
         -3    1    1    2    0  502 -0.28359903814E+02 -0.16166246571E+02 -0.36065383028E+03  0.36212817754E+03  0.00000000000E+00 0. -1.
<mgrwt>
<rscale>  1 0.30000000E+03</rscale>
<asrwt>0</asrwt>
<pdfrwt beam="1">  1       21 0.42276772E-02 0.30000000E+03</pdfrwt>
<pdfrwt beam="2">0</pdfrwt>
<totfact> 0.38299218E+04</totfact>
</mgrwt>
</event>
<event>
 6    1  0.1274196E-001  0.3000000E+03  0.7818608E-02  0.1093470E+00
         21   -1    0    0  501  502  0.00000000000E+00  0.00000000000E+00  0.22772680053E+01  0.22772680053E+01  0.00000000000E+00 0. -1.
         13   -1    0    0    0    0 -0.00000000000E+00 -0.00000000000E+00 -0.10000000000E+04  0.10000000000E+04  0.00000000000E+00 0.  1.
    9000005    2    1    2  501    0  0.15803023560E+02 -0.27417369718E+02 -0.87381576051E+03  0.87439300275E+03  0.27734882495E+01 0.  0.
         13    1    3    3    0    0  0.59849301907E+00 -0.20921591547E+01 -0.73895203265E+02  0.73927237128E+02  0.00000000000E+00 0.  1.
          1    1    3    3  501    0  0.15204530541E+02 -0.25325210563E+02 -0.79992055724E+03  0.80046576562E+03  0.00000000000E+00 0.  1.
         -1    1    1    2    0  502 -0.15803023560E+02  0.27417369718E+02 -0.12390697149E+03  0.12788426525E+03  0.00000000000E+00 0. -1.
<mgrwt>
<rscale>  1 0.30000000E+03</rscale>
<asrwt>0</asrwt>
<pdfrwt beam="1">  1       21 0.82809920E-02 0.30000000E+03</pdfrwt>
<pdfrwt beam="2">0</pdfrwt>
<totfact> 0.12021586E+04</totfact>
</mgrwt>
</event>
<event>
 6    1  0.1274196E-001  0.3000000E+03  0.7818608E-02  0.1093470E+00
         21   -1    0    0  501  502  0.00000000000E+00  0.00000000000E+00  0.25208083322E+01  0.25208083322E+01  0.00000000000E+00 0. -1.
         13   -1    0    0    0    0 -0.00000000000E+00 -0.00000000000E+00 -0.10000000000E+04  0.10000000000E+04  0.00000000000E+00 0.  1.
    9000005    2    1    2  501    0  0.14196641812E+02 -0.34213287836E+02 -0.83684133469E+03  0.83766749536E+03  0.33644664390E+01 0.  0.
         13    1    3    3    0    0  0.33262884821E+01 -0.49720786064E+01 -0.14386024467E+03  0.14398456777E+03  0.00000000000E+00 0.  1.
          1    1    3    3  501    0  0.10870353330E+02 -0.29241209230E+02 -0.69298109002E+03  0.69368292759E+03  0.00000000000E+00 0.  1.
         -3    1    1    2    0  502 -0.14196641812E+02  0.34213287836E+02 -0.16063785698E+03  0.16485331297E+03  0.00000000000E+00 0. -1.
<mgrwt>
<rscale>  1 0.30000000E+03</rscale>
<asrwt>0</asrwt>
<pdfrwt beam="1">  1       21 0.91665951E-02 0.30000000E+03</pdfrwt>
<pdfrwt beam="2">0</pdfrwt>
<totfact> 0.10045998E+04</totfact>
</mgrwt>
</event>
<event>
 6    1  0.1274196E-001  0.3000000E+03  0.7818608E-02  0.1093470E+00
         21   -1    0    0  501  502  0.00000000000E+00  0.00000000000E+00  0.28034644798E+01  0.28034644798E+01  0.00000000000E+00 0. -1.
         13   -1    0    0    0    0 -0.00000000000E+00 -0.00000000000E+00 -0.10000000000E+04  0.10000000000E+04  0.00000000000E+00 0.  1.
    9000005    2    1    2  501    0  0.52028156100E+02  0.57008235408E-01 -0.58973580389E+03  0.59203445384E+03  0.30893159474E+01 0.  0.
         13    1    3    3    0    0  0.60249587709E+01 -0.97762171203E+00 -0.70387249963E+02  0.70651403593E+02  0.00000000000E+00 0.  1.
          1    1    3    3  501    0  0.46003197329E+02  0.10346299474E+01 -0.51934855393E+03  0.52138305025E+03  0.00000000000E+00 0.  1.
         -1    1    1    2    0  502 -0.52028156100E+02 -0.57008235408E-01 -0.40746073163E+03  0.41076901064E+03  0.00000000000E+00 0. -1.
<mgrwt>
<rscale>  1 0.30000000E+03</rscale>
<asrwt>0</asrwt>
<pdfrwt beam="1">  1       21 0.10194438E-01 0.30000000E+03</pdfrwt>
<pdfrwt beam="2">0</pdfrwt>
<totfact> 0.83120339E+03</totfact>
</mgrwt>
</event>
<event>
 6    1  0.1274196E-001  0.3000000E+03  0.7818608E-02  0.1093470E+00
         21   -1    0    0  501  502  0.00000000000E+00  0.00000000000E+00  0.19515022057E+01  0.19515022057E+01  0.00000000000E+00 0. -1.
         13   -1    0    0    0    0 -0.00000000000E+00 -0.00000000000E+00 -0.10000000000E+04  0.10000000000E+04  0.00000000000E+00 0.  1.
    9000005    2    1    2  501    0  0.29041745364E+02 -0.77234788756E+01 -0.86596701650E+03  0.86649452453E+03  0.32882027898E+01 0.  0.
         13    1    3    3    0    0  0.11883234203E+02 -0.31226488359E+01 -0.40132229292E+03  0.40151032986E+03  0.00000000000E+00 0.  1.
          1    1    3    3  501    0  0.17158511161E+02 -0.46008300397E+01 -0.46464472358E+03  0.46498419467E+03  0.00000000000E+00 0.  1.
         -3    1    1    2    0  502 -0.29041745364E+02  0.77234788756E+01 -0.13208148129E+03  0.13545697767E+03  0.00000000000E+00 0. -1.
<mgrwt>
<rscale>  1 0.30000000E+03</rscale>
<asrwt>0</asrwt>
<pdfrwt beam="1">  1       21 0.70963866E-02 0.30000000E+03</pdfrwt>
<pdfrwt beam="2">0</pdfrwt>
<totfact> 0.15755589E+04</totfact>
</mgrwt>
</event>
<event>
 6    1  0.1274196E-001  0.3000000E+03  0.7818608E-02  0.1093470E+00
         21   -1    0    0  501  502  0.00000000000E+00  0.00000000000E+00  0.35365629329E+01  0.35365629329E+01  0.00000000000E+00 0. -1.
         13   -1    0    0    0    0 -0.00000000000E+00 -0.00000000000E+00 -0.10000000000E+04  0.10000000000E+04  0.00000000000E+00 0.  1.
    9000005    2    1    2  501    0 -0.36793683724E+02 -0.50976561411E+01 -0.88994541293E+03  0.89072765049E+03  0.36260302518E+01 0.  0.
         13    1    3    3    0    0 -0.13234489666E+02 -0.10564875540E+00 -0.32229041610E+03  0.32256204859E+03  0.00000000000E+00 0.  1.
          1    1    3    3  501    0 -0.23559194058E+02 -0.49920073857E+01 -0.56765499683E+03  0.56816560190E+03  0.00000000000E+00 0.  1.
         -3    1    1    2    0  502  0.36793683724E+02  0.50976561411E+01 -0.10651802414E+03  0.11280891244E+03  0.00000000000E+00 0. -1.
<mgrwt>
<rscale>  1 0.30000000E+03</rscale>
<asrwt>0</asrwt>
<pdfrwt beam="1">  1       21 0.12860256E-01 0.30000000E+03</pdfrwt>
<pdfrwt beam="2">0</pdfrwt>
<totfact> 0.54632521E+03</totfact>
</mgrwt>
</event>
<event>
 6    1  0.1274196E-001  0.3000000E+03  0.7818608E-02  0.1093470E+00
         21   -1    0    0  501  502  0.00000000000E+00  0.00000000000E+00  0.77047573977E+01  0.77047573977E+01  0.00000000000E+00 0. -1.
         13   -1    0    0    0    0 -0.00000000000E+00 -0.00000000000E+00 -0.10000000000E+04  0.10000000000E+04  0.00000000000E+00 0.  1.
    9000005    2    1    2  501    0  0.53849231670E+02  0.29712077354E+02 -0.85556799013E+03  0.85778181432E+03  0.32415972266E+01 0.  0.
         13    1    3    3    0    0  0.24120960415E+02  0.15039846333E+02 -0.40277950409E+03  0.40378131040E+03  0.00000000000E+00 0.  1.
          3    1    3    3  501    0  0.29728271255E+02  0.14672231022E+02 -0.45278848604E+03  0.45400050393E+03  0.00000000000E+00 0.  1.
         -1    1    1    2    0  502 -0.53849231670E+02 -0.29712077354E+02 -0.13672725247E+03  0.14992294307E+03  0.00000000000E+00 0. -1.
<mgrwt>
<rscale>  1 0.30000000E+03</rscale>
<asrwt>0</asrwt>
<pdfrwt beam="1">  1       21 0.28017359E-01 0.30000000E+03</pdfrwt>
<pdfrwt beam="2">0</pdfrwt>
<totfact> 0.12458674E+03</totfact>
</mgrwt>
</event>
<event>
 6    1  0.1274196E-001  0.3000000E+03  0.7818608E-02  0.1093470E+00
         21   -1    0    0  501  502  0.00000000000E+00  0.00000000000E+00  0.12735248690E+01  0.12735248690E+01  0.00000000000E+00 0. -1.
         13   -1    0    0    0    0 -0.00000000000E+00 -0.00000000000E+00 -0.10000000000E+04  0.10000000000E+04  0.00000000000E+00 0.  1.
    9000005    2    1    2  501    0  0.26117933666E+02  0.24176365804E+02 -0.50826704913E+03  0.50952451198E+03  0.36320732699E+01 0.  0.
         13    1    3    3    0    0  0.72110078476E+01  0.89816867177E+01 -0.16223075719E+03  0.16263913400E+03  0.00000000000E+00 0.  1.
          3    1    3    3  501    0  0.18906925819E+02  0.15194679087E+02 -0.34603629194E+03  0.34688537798E+03  0.00000000000E+00 0.  1.
         -3    1    1    2    0  502 -0.26117933666E+02 -0.24176365804E+02 -0.49045942601E+03  0.49174901289E+03  0.00000000000E+00 0. -1.
<mgrwt>
<rscale>  1 0.30000000E+03</rscale>
<asrwt>0</asrwt>
<pdfrwt beam="1">  1       21 0.46310093E-02 0.30000000E+03</pdfrwt>
<pdfrwt beam="2">0</pdfrwt>
<totfact> 0.32818982E+04</totfact>
</mgrwt>
</event>
<event>
 6    1  0.1274196E-001  0.3000000E+03  0.7818608E-02  0.1093470E+00
         21   -1    0    0  501  502  0.00000000000E+00  0.00000000000E+00  0.11690450419E+01  0.11690450419E+01  0.00000000000E+00 0. -1.
         13   -1    0    0    0    0 -0.00000000000E+00 -0.00000000000E+00 -0.10000000000E+04  0.10000000000E+04  0.00000000000E+00 0.  1.
    9000005    2    1    2  501    0 -0.23559836506E+02 -0.21040785211E+02 -0.68752618645E+03  0.68826580211E+03  0.44471077714E+01 0.  0.
         13    1    3    3    0    0 -0.65342780498E+01 -0.80934410807E+01 -0.19920771806E+03  0.19947911047E+03  0.00000000000E+00 0.  1.
          3    1    3    3  501    0 -0.17025558457E+02 -0.12947344130E+02 -0.48831846838E+03  0.48878669164E+03  0.00000000000E+00 0.  1.
         -3    1    1    2    0  502  0.23559836506E+02  0.21040785211E+02 -0.31130476851E+03  0.31290324293E+03  0.00000000000E+00 0. -1.
<mgrwt>
<rscale>  1 0.30000000E+03</rscale>
<asrwt>0</asrwt>
<pdfrwt beam="1">  1       21 0.42510818E-02 0.30000000E+03</pdfrwt>
<pdfrwt beam="2">0</pdfrwt>
<totfact> 0.37943621E+04</totfact>
</mgrwt>
</event>
<event>
 6    1  0.1274196E-001  0.3000000E+03  0.7818608E-02  0.1093470E+00
         21   -1    0    0  501  502  0.00000000000E+00  0.00000000000E+00  0.18247671081E+01  0.18247671081E+01  0.00000000000E+00 0. -1.
         13   -1    0    0    0    0 -0.00000000000E+00 -0.00000000000E+00 -0.10000000000E+04  0.10000000000E+04  0.00000000000E+00 0.  1.
    9000005    2    1    2  501    0  0.27956731377E+02 -0.32123162871E+02 -0.46873501328E+03  0.47067467291E+03  0.29425539588E+01 0.  0.
         13    1    3    3    0    0  0.27184087459E+02 -0.30995312554E+02 -0.44721506792E+03  0.44911134586E+03  0.00000000000E+00 0.  1.
          1    1    3    3  501    0  0.77264391785E+00 -0.11278503168E+01 -0.21519945360E+02  0.21563327045E+02  0.00000000000E+00 0.  1.
         -1    1    1    2    0  502 -0.27956731377E+02  0.32123162871E+02 -0.52944021962E+03  0.53115009420E+03  0.00000000000E+00 0. -1.
<mgrwt>
<rscale>  1 0.30000000E+03</rscale>
<asrwt>0</asrwt>
<pdfrwt beam="1">  1       21 0.66355307E-02 0.30000000E+03</pdfrwt>
<pdfrwt beam="2">0</pdfrwt>
<totfact> 0.17705579E+04</totfact>
</mgrwt>
</event>
<event>
 6    1  0.1274196E-001  0.3000000E+03  0.7818608E-02  0.1093470E+00
         21   -1    0    0  501  502  0.00000000000E+00  0.00000000000E+00  0.67850518505E+01  0.67850518505E+01  0.00000000000E+00 0. -1.
         13   -1    0    0    0    0 -0.00000000000E+00 -0.00000000000E+00 -0.10000000000E+04  0.10000000000E+04  0.00000000000E+00 0.  1.
    9000005    2    1    2  501    0 -0.34285240494E+02 -0.31265198768E+02 -0.91249788186E+03  0.91368169445E+03  0.29772463299E+01 0.  0.
         13    1    3    3    0    0 -0.15412138596E+02 -0.12734860351E+02 -0.41469146770E+03  0.41517312541E+03  0.00000000000E+00 0.  1.
          3    1    3    3  501    0 -0.18873101898E+02 -0.18530338417E+02 -0.49780641417E+03  0.49850856903E+03  0.00000000000E+00 0.  1.
         -3    1    1    2    0  502  0.34285240494E+02  0.31265198768E+02 -0.80717066289E+02  0.93103357405E+02  0.00000000000E+00 0. -1.
<mgrwt>
<rscale>  1 0.30000000E+03</rscale>
<asrwt>0</asrwt>
<pdfrwt beam="1">  1       21 0.24672968E-01 0.30000000E+03</pdfrwt>
<pdfrwt beam="2">0</pdfrwt>
<totfact> 0.16002729E+03</totfact>
</mgrwt>
</event>
<event>
 6    1  0.1274196E-001  0.3000000E+03  0.7818608E-02  0.1093470E+00
         21   -1    0    0  501  502  0.00000000000E+00  0.00000000000E+00  0.13393014186E+01  0.13393014186E+01  0.00000000000E+00 0. -1.
         13   -1    0    0    0    0 -0.00000000000E+00 -0.00000000000E+00 -0.10000000000E+04  0.10000000000E+04  0.00000000000E+00 0.  1.
    9000005    2    1    2  501    0 -0.33112105819E+02 -0.19585023159E+01 -0.70972686757E+03  0.71050772475E+03  0.29585637382E+01 0.  0.
         13    1    3    3    0    0 -0.74392061991E+00  0.30444569765E+00 -0.12079537317E+02  0.12106251561E+02  0.00000000000E+00 0.  1.
          1    1    3    3  501    0 -0.32368185199E+02 -0.22629480136E+01 -0.69764733025E+03  0.69840147319E+03  0.00000000000E+00 0.  1.
         -1    1    1    2    0  502  0.33112105819E+02  0.19585023159E+01 -0.28893383101E+03  0.29083157667E+03  0.00000000000E+00 0. -1.
<mgrwt>
<rscale>  1 0.30000000E+03</rscale>
<asrwt>0</asrwt>
<pdfrwt beam="1">  1       21 0.48701972E-02 0.30000000E+03</pdfrwt>
<pdfrwt beam="2">0</pdfrwt>
<totfact> 0.30124815E+04</totfact>
</mgrwt>
</event>
<event>
 6    1  0.1274196E-001  0.3000000E+03  0.7818608E-02  0.1093470E+00
         21   -1    0    0  501  502  0.00000000000E+00  0.00000000000E+00  0.21638821390E+01  0.21638821390E+01  0.00000000000E+00 0. -1.
         13   -1    0    0    0    0 -0.00000000000E+00 -0.00000000000E+00 -0.10000000000E+04  0.10000000000E+04  0.00000000000E+00 0.  1.
    9000005    2    1    2  501    0 -0.32604031380E+02  0.11990382530E+02 -0.83180922745E+03  0.83254159447E+03  0.34818833518E+01 0.  0.
         13    1    3    3    0    0 -0.31043495106E+02  0.10607925653E+02 -0.78870088780E+03  0.78938287104E+03  0.00000000000E+00 0.  1.
          3    1    3    3  501    0 -0.15605362748E+01  0.13824568772E+01 -0.43108339653E+02  0.43158723430E+02  0.00000000000E+00 0.  1.
         -3    1    1    2    0  502  0.32604031380E+02 -0.11990382530E+02 -0.16602689041E+03  0.16962228767E+03  0.00000000000E+00 0. -1.
<mgrwt>
<rscale>  1 0.30000000E+03</rscale>
<asrwt>0</asrwt>
<pdfrwt beam="1">  1       21 0.78686789E-02 0.30000000E+03</pdfrwt>
<pdfrwt beam="2">0</pdfrwt>
<totfact> 0.13150503E+04</totfact>
</mgrwt>
</event>
<event>
 6    1  0.1274196E-001  0.3000000E+03  0.7818608E-02  0.1093470E+00
         21   -1    0    0  501  502  0.00000000000E+00  0.00000000000E+00  0.16064800193E+01  0.16064800193E+01  0.00000000000E+00 0. -1.
         13   -1    0    0    0    0 -0.00000000000E+00 -0.00000000000E+00 -0.10000000000E+04  0.10000000000E+04  0.00000000000E+00 0.  1.
    9000005    2    1    2  501    0  0.27935943531E+02  0.27653307370E+02 -0.59188488089E+03  0.59320178366E+03  0.39397419845E+01 0.  0.
         13    1    3    3    0    0  0.68921510214E+01  0.62278941713E+01 -0.16563950360E+03  0.16589976963E+03  0.00000000000E+00 0.  1.
          1    1    3    3  501    0  0.21043792509E+02  0.21425413199E+02 -0.42624537729E+03  0.42730201403E+03  0.00000000000E+00 0.  1.
         -3    1    1    2    0  502 -0.27935943531E+02 -0.27653307370E+02 -0.40650863909E+03  0.40840469636E+03  0.00000000000E+00 0. -1.
<mgrwt>
<rscale>  1 0.30000000E+03</rscale>
<asrwt>0</asrwt>
<pdfrwt beam="1">  1       21 0.58417578E-02 0.30000000E+03</pdfrwt>
<pdfrwt beam="2">0</pdfrwt>
<totfact> 0.22065201E+04</totfact>
</mgrwt>
</event>
<event>
 6    1  0.1274196E-001  0.3000000E+03  0.7818608E-02  0.1093470E+00
         21   -1    0    0  501  502  0.00000000000E+00  0.00000000000E+00  0.15080575183E+01  0.15080575183E+01  0.00000000000E+00 0. -1.
         13   -1    0    0    0    0 -0.00000000000E+00 -0.00000000000E+00 -0.10000000000E+04  0.10000000000E+04  0.00000000000E+00 0.  1.
    9000005    2    1    2  501    0 -0.75209906915E+01 -0.34085139045E+02 -0.71560376712E+03  0.71647458271E+03  0.53585577321E+01 0.  0.
         13    1    3    3    0    0 -0.57068018074E-01 -0.29748237418E+01 -0.38182524485E+02  0.38298276842E+02  0.00000000000E+00 0.  1.
          3    1    3    3  501    0 -0.74639226734E+01 -0.31110315304E+02 -0.67742124264E+03  0.67817630586E+03  0.00000000000E+00 0.  1.
         -1    1    1    2    0  502  0.75209906915E+01  0.34085139045E+02 -0.28288817536E+03  0.28503347481E+03  0.00000000000E+00 0. -1.
<mgrwt>
<rscale>  1 0.30000000E+03</rscale>
<asrwt>0</asrwt>
<pdfrwt beam="1">  1       21 0.54838571E-02 0.30000000E+03</pdfrwt>
<pdfrwt beam="2">0</pdfrwt>
<totfact> 0.24597799E+04</totfact>
</mgrwt>
</event>
<event>
 6    1  0.1274196E-001  0.3000000E+03  0.7818608E-02  0.1093470E+00
         21   -1    0    0  501  502  0.00000000000E+00  0.00000000000E+00  0.13853273364E+01  0.13853273364E+01  0.00000000000E+00 0. -1.
         13   -1    0    0    0    0 -0.00000000000E+00 -0.00000000000E+00 -0.10000000000E+04  0.10000000000E+04  0.00000000000E+00 0.  1.
    9000005    2    1    2  501    0  0.75766883675E+01  0.33224655584E+02 -0.69630269423E+03  0.69715874032E+03  0.56198988099E+01 0.  0.
         13    1    3    3    0    0  0.28271768260E+01  0.22517477311E+02 -0.42973973088E+03  0.43033854814E+03  0.00000000000E+00 0.  1.
          3    1    3    3  501    0  0.47495115415E+01  0.10707178273E+02 -0.26656296335E+03  0.26682019218E+03  0.00000000000E+00 0.  1.
         -1    1    1    2    0  502 -0.75766883675E+01 -0.33224655584E+02 -0.30231197843E+03  0.30422658702E+03  0.00000000000E+00 0. -1.
<mgrwt>
<rscale>  1 0.30000000E+03</rscale>
<asrwt>0</asrwt>
<pdfrwt beam="1">  1       21 0.50375646E-02 0.30000000E+03</pdfrwt>
<pdfrwt beam="2">0</pdfrwt>
<totfact> 0.28439387E+04</totfact>
</mgrwt>
</event>
<event>
 6    1  0.1274196E-001  0.3000000E+03  0.7818608E-02  0.1093470E+00
         21   -1    0    0  501  502  0.00000000000E+00  0.00000000000E+00  0.40783610455E+01  0.40783610455E+01  0.00000000000E+00 0. -1.
         13   -1    0    0    0    0 -0.00000000000E+00 -0.00000000000E+00 -0.10000000000E+04  0.10000000000E+04  0.00000000000E+00 0.  1.
    9000005    2    1    2  501    0 -0.30452234483E+02  0.23306015763E+02 -0.89892217053E+03  0.89977397077E+03  0.78498950331E+01 0.  0.
         13    1    3    3    0    0 -0.23937519648E+02  0.13945162609E+02 -0.65360358153E+03  0.65419042656E+03  0.00000000000E+00 0.  1.
          1    1    3    3  501    0 -0.65147148345E+01  0.93608531543E+01 -0.24531858900E+03  0.24558354422E+03  0.00000000000E+00 0.  1.
         -1    1    1    2    0  502  0.30452234483E+02 -0.23306015763E+02 -0.96999468423E+02  0.10430439027E+03  0.00000000000E+00 0. -1.
<mgrwt>
<rscale>  1 0.30000000E+03</rscale>
<asrwt>0</asrwt>
<pdfrwt beam="1">  1       21 0.14830435E-01 0.30000000E+03</pdfrwt>
<pdfrwt beam="2">0</pdfrwt>
<totfact> 0.42055473E+03</totfact>
</mgrwt>
</event>
<event>
 6    1  0.1274196E-001  0.3000000E+03  0.7818608E-02  0.1093470E+00
         21   -1    0    0  501  502  0.00000000000E+00  0.00000000000E+00  0.41978140446E+01  0.41978140446E+01  0.00000000000E+00 0. -1.
         13   -1    0    0    0    0 -0.00000000000E+00 -0.00000000000E+00 -0.10000000000E+04  0.10000000000E+04  0.00000000000E+00 0.  1.
    9000005    2    1    2  501    0 -0.14341115203E+02  0.40528840109E+02 -0.87338209612E+03  0.87444831362E+03  0.39131699362E+01 0.  0.
         13    1    3    3    0    0 -0.73158971226E+00  0.56211386768E+01 -0.10360457205E+03  0.10375952859E+03  0.00000000000E+00 0.  1.
          3    1    3    3  501    0 -0.13609525491E+02  0.34907701432E+02 -0.76977752407E+03  0.77068878503E+03  0.00000000000E+00 0.  1.
         -3    1    1    2    0  502  0.14341115203E+02 -0.40528840109E+02 -0.12242008983E+03  0.12974950043E+03  0.00000000000E+00 0. -1.
<mgrwt>
<rscale>  1 0.30000000E+03</rscale>
<asrwt>0</asrwt>
<pdfrwt beam="1">  1       21 0.15264811E-01 0.30000000E+03</pdfrwt>
<pdfrwt beam="2">0</pdfrwt>
<totfact> 0.39866494E+03</totfact>
</mgrwt>
</event>
<event>
 6    1  0.1274196E-001  0.3000000E+03  0.7818608E-02  0.1093470E+00
         21   -1    0    0  501  502  0.00000000000E+00  0.00000000000E+00  0.27653087175E+01  0.27653087175E+01  0.00000000000E+00 0. -1.
         13   -1    0    0    0    0 -0.00000000000E+00 -0.00000000000E+00 -0.10000000000E+04  0.10000000000E+04  0.00000000000E+00 0.  1.
    9000005    2    1    2  501    0  0.49179571533E+01  0.39455676182E+02 -0.17181813667E+03  0.17639164910E+03  0.34066254633E+01 0.  0.
         13    1    3    3    0    0  0.18401312560E+00  0.26445431941E+01 -0.82405144502E+01  0.86564165761E+01  0.00000000000E+00 0.  1.
          3    1    3    3  501    0  0.47339440277E+01  0.36811132987E+02 -0.16357762222E+03  0.16773523252E+03  0.00000000000E+00 0.  1.
         -1    1    1    2    0  502 -0.49179571533E+01 -0.39455676182E+02 -0.82541655461E+03  0.82637365962E+03  0.00000000000E+00 0. -1.
<mgrwt>
<rscale>  1 0.30000000E+03</rscale>
<asrwt>0</asrwt>
<pdfrwt beam="1">  1       21 0.10055689E-01 0.30000000E+03</pdfrwt>
<pdfrwt beam="2">0</pdfrwt>
<totfact> 0.85182349E+03</totfact>
</mgrwt>
</event>
<event>
 6    1  0.1274196E-001  0.3000000E+03  0.7818608E-02  0.1093470E+00
         21   -1    0    0  501  502  0.00000000000E+00  0.00000000000E+00  0.20020924344E+01  0.20020924344E+01  0.00000000000E+00 0. -1.
         13   -1    0    0    0    0 -0.00000000000E+00 -0.00000000000E+00 -0.10000000000E+04  0.10000000000E+04  0.00000000000E+00 0.  1.
    9000005    2    1    2  501    0  0.17757081726E+02 -0.27401307615E+02 -0.84116181057E+03  0.84180313197E+03  0.36298535673E+01 0.  0.
         13    1    3    3    0    0  0.17358111044E+02 -0.26843977306E+02 -0.80442120310E+03  0.80505613166E+03  0.00000000000E+00 0.  1.
          3    1    3    3  501    0  0.39897068142E+00 -0.55733030863E+00 -0.36740607470E+02  0.36747000312E+02  0.00000000000E+00 0.  1.
         -3    1    1    2    0  502 -0.17757081726E+02  0.27401307615E+02 -0.15683609700E+03  0.16019896046E+03  0.00000000000E+00 0. -1.
<mgrwt>
<rscale>  1 0.30000000E+03</rscale>
<asrwt>0</asrwt>
<pdfrwt beam="1">  1       21 0.72803515E-02 0.30000000E+03</pdfrwt>
<pdfrwt beam="2">0</pdfrwt>
<totfact> 0.15067694E+04</totfact>
</mgrwt>
</event>
<event>
 6    1  0.1274196E-001  0.3000000E+03  0.7818608E-02  0.1093470E+00
         21   -1    0    0  501  502  0.00000000000E+00  0.00000000000E+00  0.16021379952E+01  0.16021379952E+01  0.00000000000E+00 0. -1.
         13   -1    0    0    0    0 -0.00000000000E+00 -0.00000000000E+00 -0.10000000000E+04  0.10000000000E+04  0.00000000000E+00 0.  1.
    9000005    2    1    2  501    0  0.25470329144E+02 -0.24288150161E+02 -0.73632152705E+03  0.73717321135E+03  0.40373785491E+01 0.  0.
         13    1    3    3    0    0  0.15187314144E+02 -0.15593771129E+02 -0.41671916411E+03  0.41728728946E+03  0.00000000000E+00 0.  1.
          3    1    3    3  501    0  0.10283014999E+02 -0.86943790320E+01 -0.31960236295E+03  0.31988592189E+03  0.00000000000E+00 0.  1.
         -1    1    1    2    0  502 -0.25470329144E+02  0.24288150161E+02 -0.26207633495E+03  0.26442892664E+03  0.00000000000E+00 0. -1.
<mgrwt>
<rscale>  1 0.30000000E+03</rscale>
<asrwt>0</asrwt>
<pdfrwt beam="1">  1       21 0.58259686E-02 0.30000000E+03</pdfrwt>
<pdfrwt beam="2">0</pdfrwt>
<totfact> 0.22168329E+04</totfact>
</mgrwt>
</event>
<event>
 6    1  0.1274196E-001  0.3000000E+03  0.7818608E-02  0.1093470E+00
         21   -1    0    0  501  502  0.00000000000E+00  0.00000000000E+00  0.10387940479E+01  0.10387940479E+01  0.00000000000E+00 0. -1.
         13   -1    0    0    0    0 -0.00000000000E+00 -0.00000000000E+00 -0.10000000000E+04  0.10000000000E+04  0.00000000000E+00 0.  1.
    9000005    2    1    2  501    0 -0.11990240302E+02  0.29837060736E+02 -0.49337285373E+03  0.49442888696E+03  0.30224837610E+01 0.  0.
         13    1    3    3    0    0 -0.75664587607E-01 -0.69243091757E-01 -0.19935872143E+01  0.19962238643E+01  0.00000000000E+00 0.  1.
          3    1    3    3  501    0 -0.11914575714E+02  0.29906303827E+02 -0.49137926651E+03  0.49243266310E+03  0.00000000000E+00 0.  1.
         -3    1    1    2    0  502  0.11990240302E+02 -0.29837060736E+02 -0.50558835222E+03  0.50660990709E+03  0.00000000000E+00 0. -1.
<mgrwt>
<rscale>  1 0.30000000E+03</rscale>
<asrwt>0</asrwt>
<pdfrwt beam="1">  1       21 0.37774409E-02 0.30000000E+03</pdfrwt>
<pdfrwt beam="2">0</pdfrwt>
<totfact> 0.46296875E+04</totfact>
</mgrwt>
</event>
<event>
 6    1  0.1274196E-001  0.3000000E+03  0.7818608E-02  0.1093470E+00
         21   -1    0    0  501  502  0.00000000000E+00  0.00000000000E+00  0.26986603869E+01  0.26986603869E+01  0.00000000000E+00 0. -1.
         13   -1    0    0    0    0 -0.00000000000E+00 -0.00000000000E+00 -0.10000000000E+04  0.10000000000E+04  0.00000000000E+00 0.  1.
    9000005    2    1    2  501    0 -0.54276421442E+01 -0.50506204708E+02 -0.60188815192E+03  0.60403598968E+03  0.31294399247E+01 0.  0.
         13    1    3    3    0    0 -0.24486433538E+01 -0.33575683867E+02 -0.40930690394E+03  0.41068901132E+03  0.00000000000E+00 0.  1.
          3    1    3    3  501    0 -0.29789987905E+01 -0.16930520842E+02 -0.19258124798E+03  0.19334697836E+03  0.00000000000E+00 0.  1.
         -3    1    1    2    0  502  0.54276421442E+01  0.50506204708E+02 -0.39541318769E+03  0.39866267071E+03  0.00000000000E+00 0. -1.
<mgrwt>
<rscale>  1 0.30000000E+03</rscale>
<asrwt>0</asrwt>
<pdfrwt beam="1">  1       21 0.98133312E-02 0.30000000E+03</pdfrwt>
<pdfrwt beam="2">0</pdfrwt>
<totfact> 0.88976344E+03</totfact>
</mgrwt>
</event>
<event>
 6    1  0.1274196E-001  0.3000000E+03  0.7818608E-02  0.1093470E+00
         21   -1    0    0  501  502  0.00000000000E+00  0.00000000000E+00  0.20296738294E+01  0.20296738294E+01  0.00000000000E+00 0. -1.
         13   -1    0    0    0    0 -0.00000000000E+00 -0.00000000000E+00 -0.10000000000E+04  0.10000000000E+04  0.00000000000E+00 0.  1.
    9000005    2    1    2  501    0  0.34910191063E+02 -0.40509871808E+01 -0.81203436166E+03  0.81280146548E+03  0.33594389723E+01 0.  0.
         13    1    3    3    0    0  0.23471148731E+01 -0.10008887739E+01 -0.70651393795E+02  0.70697455200E+02  0.00000000000E+00 0.  1.
          1    1    3    3  501    0  0.32563076190E+02 -0.30500984069E+01 -0.74138296787E+03  0.74210401028E+03  0.00000000000E+00 0.  1.
         -1    1    1    2    0  502 -0.34910191063E+02  0.40509871808E+01 -0.18593596451E+03  0.18922820835E+03  0.00000000000E+00 0. -1.
<mgrwt>
<rscale>  1 0.30000000E+03</rscale>
<asrwt>0</asrwt>
<pdfrwt beam="1">  1       21 0.73806477E-02 0.30000000E+03</pdfrwt>
<pdfrwt beam="2">0</pdfrwt>
<totfact> 0.14711707E+04</totfact>
</mgrwt>
</event>
<event>
 6    1  0.1274196E-001  0.3000000E+03  0.7818608E-02  0.1093470E+00
         21   -1    0    0  501  502  0.00000000000E+00  0.00000000000E+00  0.94199428346E+00  0.94199428346E+00  0.00000000000E+00 0. -1.
         13   -1    0    0    0    0 -0.00000000000E+00 -0.00000000000E+00 -0.10000000000E+04  0.10000000000E+04  0.00000000000E+00 0.  1.
    9000005    2    1    2  501    0 -0.27632079138E+02 -0.12730540482E+02 -0.44694687622E+03  0.44799326449E+03  0.32949071959E+01 0.  0.
         13    1    3    3    0    0 -0.27665745962E+02 -0.12830441368E+02 -0.44541772509E+03  0.44646048375E+03  0.00000000000E+00 0.  1.
          1    1    3    3  501    0  0.33666823715E-01  0.99900886468E-01 -0.15291511252E+01  0.15327807429E+01  0.00000000000E+00 0.  1.
         -1    1    1    2    0  502  0.27632079138E+02  0.12730540482E+02 -0.55211112950E+03  0.55294872979E+03  0.00000000000E+00 0. -1.
<mgrwt>
<rscale>  1 0.30000000E+03</rscale>
<asrwt>0</asrwt>
<pdfrwt beam="1">  1       21 0.34254410E-02 0.30000000E+03</pdfrwt>
<pdfrwt beam="2">0</pdfrwt>
<totfact> 0.54547065E+04</totfact>
</mgrwt>
</event>
<event>
 6    1  0.1274196E-001  0.3000000E+03  0.7818608E-02  0.1093470E+00
         21   -1    0    0  501  502  0.00000000000E+00  0.00000000000E+00  0.20172333688E+01  0.20172333688E+01  0.00000000000E+00 0. -1.
         13   -1    0    0    0    0 -0.00000000000E+00 -0.00000000000E+00 -0.10000000000E+04  0.10000000000E+04  0.00000000000E+00 0.  1.
    9000005    2    1    2  501    0  0.15479435315E+02  0.26920852801E+02 -0.13947470418E+03  0.14294771434E+03  0.40633354878E+01 0.  0.
         13    1    3    3    0    0  0.97002572790E+01  0.14456292144E+02 -0.70472835920E+02  0.72591321633E+02  0.00000000000E+00 0.  1.
          1    1    3    3  501    0  0.57791780359E+01  0.12464560657E+02 -0.69001868257E+02  0.70356392702E+02  0.00000000000E+00 0.  1.
         -1    1    1    2    0  502 -0.15479435315E+02 -0.26920852801E+02 -0.85850806245E+03  0.85906951903E+03  0.00000000000E+00 0. -1.
<mgrwt>
<rscale>  1 0.30000000E+03</rscale>
<asrwt>0</asrwt>
<pdfrwt beam="1">  1       21 0.73354095E-02 0.30000000E+03</pdfrwt>
<pdfrwt beam="2">0</pdfrwt>
<totfact> 0.14870676E+04</totfact>
</mgrwt>
</event>
<event>
 6    1  0.1274196E-001  0.3000000E+03  0.7818608E-02  0.1093470E+00
         21   -1    0    0  501  502  0.00000000000E+00  0.00000000000E+00  0.38992053575E+01  0.38992053575E+01  0.00000000000E+00 0. -1.
         13   -1    0    0    0    0 -0.00000000000E+00 -0.00000000000E+00 -0.10000000000E+04  0.10000000000E+04  0.00000000000E+00 0.  1.
    9000005    2    1    2  501    0  0.39983605272E+02  0.41245642256E+02 -0.69431718353E+03  0.69669692732E+03  0.32195489380E+01 0.  0.
         13    1    3    3    0    0  0.10486460029E+02  0.90054093593E+01 -0.17357165842E+03  0.17412117576E+03  0.00000000000E+00 0.  1.
          1    1    3    3  501    0  0.29497145243E+02  0.32240232897E+02 -0.52074552511E+03  0.52257575156E+03  0.00000000000E+00 0.  1.
         -3    1    1    2    0  502 -0.39983605272E+02 -0.41245642256E+02 -0.30178361111E+03  0.30720227804E+03  0.00000000000E+00 0. -1.
<mgrwt>
<rscale>  1 0.30000000E+03</rscale>
<asrwt>0</asrwt>
<pdfrwt beam="1">  1       21 0.14178958E-01 0.30000000E+03</pdfrwt>
<pdfrwt beam="2">0</pdfrwt>
<totfact> 0.45687343E+03</totfact>
</mgrwt>
</event>
<event>
 6    1  0.1274196E-001  0.3000000E+03  0.7818608E-02  0.1093470E+00
         21   -1    0    0  501  502  0.00000000000E+00  0.00000000000E+00  0.15702995943E+01  0.15702995943E+01  0.00000000000E+00 0. -1.
         13   -1    0    0    0    0 -0.00000000000E+00 -0.00000000000E+00 -0.10000000000E+04  0.10000000000E+04  0.00000000000E+00 0.  1.
    9000005    2    1    2  501    0 -0.45908248967E+01 -0.32256633178E+02 -0.78316631816E+03  0.78385514212E+03  0.42232539775E+01 0.  0.
         13    1    3    3    0    0  0.19059990706E+00 -0.13238020589E+02 -0.30935653992E+03  0.30963971049E+03  0.00000000000E+00 0.  1.
          3    1    3    3  501    0 -0.47814248038E+01 -0.19018612589E+02 -0.47380977824E+03  0.47421543164E+03  0.00000000000E+00 0.  1.
         -3    1    1    2    0  502  0.45908248967E+01  0.32256633178E+02 -0.21526338224E+03  0.21771515747E+03  0.00000000000E+00 0. -1.
<mgrwt>
<rscale>  1 0.30000000E+03</rscale>
<asrwt>0</asrwt>
<pdfrwt beam="1">  1       21 0.57101924E-02 0.30000000E+03</pdfrwt>
<pdfrwt beam="2">0</pdfrwt>
<totfact> 0.22947651E+04</totfact>
</mgrwt>
</event>
<event>
 6    1  0.1274196E-001  0.3000000E+03  0.7818608E-02  0.1093470E+00
         21   -1    0    0  501  502  0.00000000000E+00  0.00000000000E+00  0.12828219641E+01  0.12828219641E+01  0.00000000000E+00 0. -1.
         13   -1    0    0    0    0 -0.00000000000E+00 -0.00000000000E+00 -0.10000000000E+04  0.10000000000E+04  0.00000000000E+00 0.  1.
    9000005    2    1    2  501    0 -0.28461361138E+02 -0.15527833504E+02 -0.71060689814E+03  0.71135404438E+03  0.33541134327E+01 0.  0.
         13    1    3    3    0    0 -0.28553149759E+02 -0.15523630758E+02 -0.70807311131E+03  0.70881859204E+03  0.00000000000E+00 0.  1.
          3    1    3    3  501    0  0.91788620551E-01 -0.42027453993E-02 -0.25337868330E+01  0.25354523322E+01  0.00000000000E+00 0.  1.
         -3    1    1    2    0  502  0.28461361138E+02  0.15527833504E+02 -0.28811027990E+03  0.28992877759E+03  0.00000000000E+00 0. -1.
<mgrwt>
<rscale>  1 0.30000000E+03</rscale>
<asrwt>0</asrwt>
<pdfrwt beam="1">  1       21 0.46648170E-02 0.30000000E+03</pdfrwt>
<pdfrwt beam="2">0</pdfrwt>
<totfact> 0.32415766E+04</totfact>
</mgrwt>
</event>
<event>
 6    1  0.1274196E-001  0.3000000E+03  0.7818608E-02  0.1093470E+00
         21   -1    0    0  501  502  0.00000000000E+00  0.00000000000E+00  0.13212115337E+01  0.13212115337E+01  0.00000000000E+00 0. -1.
         13   -1    0    0    0    0 -0.00000000000E+00 -0.00000000000E+00 -0.10000000000E+04  0.10000000000E+04  0.00000000000E+00 0.  1.
    9000005    2    1    2  501    0  0.15060889879E+02 -0.31468946341E+02 -0.63689451604E+03  0.63785871724E+03  0.34631779297E+01 0.  0.
         13    1    3    3    0    0  0.67237013305E+01 -0.15665408419E+02 -0.28220207951E+03  0.28271651324E+03  0.00000000000E+00 0.  1.
          3    1    3    3  501    0  0.83371885490E+01 -0.15803537922E+02 -0.35469243653E+03  0.35514220399E+03  0.00000000000E+00 0.  1.
         -3    1    1    2    0  502 -0.15060889879E+02  0.31468946341E+02 -0.36178427242E+03  0.36346249430E+03  0.00000000000E+00 0. -1.
<mgrwt>
<rscale>  1 0.30000000E+03</rscale>
<asrwt>0</asrwt>
<pdfrwt beam="1">  1       21 0.48044157E-02 0.30000000E+03</pdfrwt>
<pdfrwt beam="2">0</pdfrwt>
<totfact> 0.30830264E+04</totfact>
</mgrwt>
</event>
<event>
 6    1  0.1274196E-001  0.3000000E+03  0.7818608E-02  0.1093470E+00
         21   -1    0    0  501  502  0.00000000000E+00  0.00000000000E+00  0.17693613828E+01  0.17693613828E+01  0.00000000000E+00 0. -1.
         13   -1    0    0    0    0 -0.00000000000E+00 -0.00000000000E+00 -0.10000000000E+04  0.10000000000E+04  0.00000000000E+00 0.  1.
    9000005    2    1    2  501    0 -0.17222378037E+02  0.29346546044E+02 -0.79279087319E+03  0.79353073075E+03  0.39776824416E+01 0.  0.
         13    1    3    3    0    0 -0.92603162957E+01  0.19209908854E+02 -0.51323214184E+03  0.51367499986E+03  0.00000000000E+00 0.  1.
          3    1    3    3  501    0 -0.79620617412E+01  0.10136637190E+02 -0.27955873135E+03  0.27985573090E+03  0.00000000000E+00 0.  1.
         -1    1    1    2    0  502  0.17222378037E+02 -0.29346546044E+02 -0.20543976542E+03  0.20823863063E+03  0.00000000000E+00 0. -1.
<mgrwt>
<rscale>  1 0.30000000E+03</rscale>
<asrwt>0</asrwt>
<pdfrwt beam="1">  1       21 0.64340550E-02 0.30000000E+03</pdfrwt>
<pdfrwt beam="2">0</pdfrwt>
<totfact> 0.18676802E+04</totfact>
</mgrwt>
</event>
<event>
 6    1  0.1274196E-001  0.3000000E+03  0.7818608E-02  0.1093470E+00
         21   -1    0    0  501  502  0.00000000000E+00  0.00000000000E+00  0.14219818133E+01  0.14219818133E+01  0.00000000000E+00 0. -1.
         13   -1    0    0    0    0 -0.00000000000E+00 -0.00000000000E+00 -0.10000000000E+04  0.10000000000E+04  0.00000000000E+00 0.  1.
    9000005    2    1    2  501    0 -0.28881177480E+02  0.20781242495E+02 -0.66326137759E+03  0.66422288349E+03  0.32251341891E+01 0.  0.
         13    1    3    3    0    0 -0.11277240624E+02  0.95781470252E+01 -0.25576431531E+03  0.25619192423E+03  0.00000000000E+00 0.  1.
          3    1    3    3  501    0 -0.17603936856E+02  0.11203095470E+02 -0.40749706229E+03  0.40803095926E+03  0.00000000000E+00 0.  1.
         -3    1    1    2    0  502  0.28881177480E+02 -0.20781242495E+02 -0.33531664060E+03  0.33719909833E+03  0.00000000000E+00 0. -1.
<mgrwt>
<rscale>  1 0.30000000E+03</rscale>
<asrwt>0</asrwt>
<pdfrwt beam="1">  1       21 0.51708539E-02 0.30000000E+03</pdfrwt>
<pdfrwt beam="2">0</pdfrwt>
<totfact> 0.27199768E+04</totfact>
</mgrwt>
</event>
<event>
 6    1  0.1274196E-001  0.3000000E+03  0.7818608E-02  0.1093470E+00
         21   -1    0    0  501  502  0.00000000000E+00  0.00000000000E+00  0.13852144936E+01  0.13852144936E+01  0.00000000000E+00 0. -1.
         13   -1    0    0    0    0 -0.00000000000E+00 -0.00000000000E+00 -0.10000000000E+04  0.10000000000E+04  0.00000000000E+00 0.  1.
    9000005    2    1    2  501    0  0.50764661345E+01 -0.36737300437E+02 -0.52826123217E+03  0.52957183519E+03  0.33165438440E+01 0.  0.
         13    1    3    3    0    0  0.31646547515E+01 -0.26472864328E+02 -0.35872883617E+03  0.35971823068E+03  0.00000000000E+00 0.  1.
          1    1    3    3  501    0  0.19118113830E+01 -0.10264436110E+02 -0.16953239600E+03  0.16985360450E+03  0.00000000000E+00 0.  1.
         -3    1    1    2    0  502 -0.50764661345E+01  0.36737300437E+02 -0.47035355334E+03  0.47181337931E+03  0.00000000000E+00 0. -1.
<mgrwt>
<rscale>  1 0.30000000E+03</rscale>
<asrwt>0</asrwt>
<pdfrwt beam="1">  1       21 0.50371542E-02 0.30000000E+03</pdfrwt>
<pdfrwt beam="2">0</pdfrwt>
<totfact> 0.28443338E+04</totfact>
</mgrwt>
</event>
<event>
 6    1  0.1274196E-001  0.3000000E+03  0.7818608E-02  0.1093470E+00
         21   -1    0    0  501  502  0.00000000000E+00  0.00000000000E+00  0.11108779784E+01  0.11108779784E+01  0.00000000000E+00 0. -1.
         13   -1    0    0    0    0 -0.00000000000E+00 -0.00000000000E+00 -0.10000000000E+04  0.10000000000E+04  0.00000000000E+00 0.  1.
    9000005    2    1    2  501    0 -0.14510608763E+02  0.27467003209E+02 -0.66075117509E+03  0.66154900558E+03  0.94856401090E+01 0.  0.
         13    1    3    3    0    0 -0.11306210029E+02  0.12161717428E+02 -0.30021375178E+03  0.30067263679E+03  0.00000000000E+00 0.  1.
          1    1    3    3  501    0 -0.32043987341E+01  0.15305285781E+02 -0.36053742330E+03  0.36087636878E+03  0.00000000000E+00 0.  1.
         -1    1    1    2    0  502  0.14510608763E+02 -0.27467003209E+02 -0.33813794693E+03  0.33956187240E+03  0.00000000000E+00 0. -1.
<mgrwt>
<rscale>  1 0.30000000E+03</rscale>
<asrwt>0</asrwt>
<pdfrwt beam="1">  1       21 0.40395648E-02 0.30000000E+03</pdfrwt>
<pdfrwt beam="2">0</pdfrwt>
<totfact> 0.41355950E+04</totfact>
</mgrwt>
</event>
<event>
 6    1  0.1274196E-001  0.3000000E+03  0.7818608E-02  0.1093470E+00
         21   -1    0    0  501  502  0.00000000000E+00  0.00000000000E+00  0.14089996563E+01  0.14089996563E+01  0.00000000000E+00 0. -1.
         13   -1    0    0    0    0 -0.00000000000E+00 -0.00000000000E+00 -0.10000000000E+04  0.10000000000E+04  0.00000000000E+00 0.  1.
    9000005    2    1    2  501    0  0.24519806617E+02 -0.23203610674E+02 -0.71740423589E+03  0.71820302343E+03  0.26677200021E+01 0.  0.
         13    1    3    3    0    0  0.15194852547E+02 -0.15278767830E+02 -0.48050091315E+03  0.48098383739E+03  0.00000000000E+00 0.  1.
          1    1    3    3  501    0  0.93249540699E+01 -0.79248428441E+01 -0.23690332274E+03  0.23721918604E+03  0.00000000000E+00 0.  1.
         -1    1    1    2    0  502 -0.24519806617E+02  0.23203610674E+02 -0.28118676446E+03  0.28320597623E+03  0.00000000000E+00 0. -1.
<mgrwt>
<rscale>  1 0.30000000E+03</rscale>
<asrwt>0</asrwt>
<pdfrwt beam="1">  1       21 0.51236459E-02 0.30000000E+03</pdfrwt>
<pdfrwt beam="2">0</pdfrwt>
<totfact> 0.27629039E+04</totfact>
</mgrwt>
</event>
<event>
 6    1  0.1274196E-001  0.3000000E+03  0.7818608E-02  0.1093470E+00
         21   -1    0    0  501  502  0.00000000000E+00  0.00000000000E+00  0.99071164673E+00  0.99071164673E+00  0.00000000000E+00 0. -1.
         13   -1    0    0    0    0 -0.00000000000E+00 -0.00000000000E+00 -0.10000000000E+04  0.10000000000E+04  0.00000000000E+00 0.  1.
    9000005    2    1    2  501    0  0.25139336144E+02  0.18579151525E+02 -0.54611466787E+03  0.54701856673E+03  0.33031495289E+01 0.  0.
         13    1    3    3    0    0  0.23848324445E+02  0.16593927357E+02 -0.50881383674E+03  0.50964264094E+03  0.00000000000E+00 0.  1.
          1    1    3    3  501    0  0.12910116990E+01  0.19852241675E+01 -0.37300831125E+02  0.37375925792E+02  0.00000000000E+00 0.  1.
         -3    1    1    2    0  502 -0.25139336144E+02 -0.18579151525E+02 -0.45289462048E+03  0.45397214491E+03  0.00000000000E+00 0. -1.
<mgrwt>
<rscale>  1 0.30000000E+03</rscale>
<asrwt>0</asrwt>
<pdfrwt beam="1">  1       21 0.36025954E-02 0.30000000E+03</pdfrwt>
<pdfrwt beam="2">0</pdfrwt>
<totfact> 0.50129690E+04</totfact>
</mgrwt>
</event>
<event>
 6    1  0.1274196E-001  0.3000000E+03  0.7818608E-02  0.1093470E+00
         21   -1    0    0  501  502  0.00000000000E+00  0.00000000000E+00  0.28902106292E+01  0.28902106292E+01  0.00000000000E+00 0. -1.
         13   -1    0    0    0    0 -0.00000000000E+00 -0.00000000000E+00 -0.10000000000E+04  0.10000000000E+04  0.00000000000E+00 0.  1.
    9000005    2    1    2  501    0 -0.31776661440E+02  0.42582522075E+02 -0.43004467842E+03  0.43334138265E+03  0.48271190443E+01 0.  0.
         13    1    3    3    0    0 -0.24701590856E+01  0.58349800906E+01 -0.48185074917E+02  0.48599898388E+02  0.00000000000E+00 0.  1.
          3    1    3    3  501    0 -0.29306502354E+02  0.36747541985E+02 -0.38185960350E+03  0.38474148426E+03  0.00000000000E+00 0.  1.
         -3    1    1    2    0  502  0.31776661440E+02 -0.42582522075E+02 -0.56706511095E+03  0.56954882798E+03  0.00000000000E+00 0. -1.
<mgrwt>
<rscale>  1 0.30000000E+03</rscale>
<asrwt>0</asrwt>
<pdfrwt beam="1">  1       21 0.10509879E-01 0.30000000E+03</pdfrwt>
<pdfrwt beam="2">0</pdfrwt>
<totfact> 0.78705893E+03</totfact>
</mgrwt>
</event>
<event>
 6    1  0.1274196E-001  0.3000000E+03  0.7818608E-02  0.1093470E+00
         21   -1    0    0  501  502  0.00000000000E+00  0.00000000000E+00  0.10960592798E+01  0.10960592798E+01  0.00000000000E+00 0. -1.
         13   -1    0    0    0    0 -0.00000000000E+00 -0.00000000000E+00 -0.10000000000E+04  0.10000000000E+04  0.00000000000E+00 0.  1.
    9000005    2    1    2  501    0  0.14534316862E+02 -0.29602483321E+02 -0.48561151674E+03  0.48674533662E+03  0.38631781126E+01 0.  0.
         13    1    3    3    0    0  0.76173610445E+01 -0.19720728689E+02 -0.31078155766E+03  0.31149977192E+03  0.00000000000E+00 0.  1.
          3    1    3    3  501    0  0.69169558177E+01 -0.98817546317E+01 -0.17482995908E+03  0.17524556469E+03  0.00000000000E+00 0.  1.
         -1    1    1    2    0  502 -0.14534316862E+02  0.29602483321E+02 -0.51329242398E+03  0.51435072266E+03  0.00000000000E+00 0. -1.
<mgrwt>
<rscale>  1 0.30000000E+03</rscale>
<asrwt>0</asrwt>
<pdfrwt beam="1">  1       21 0.39856785E-02 0.30000000E+03</pdfrwt>
<pdfrwt beam="2">0</pdfrwt>
<totfact> 0.42302047E+04</totfact>
</mgrwt>
</event>
<event>
 6    1  0.1274196E-001  0.3000000E+03  0.7818608E-02  0.1093470E+00
         21   -1    0    0  501  502  0.00000000000E+00  0.00000000000E+00  0.47080081150E+01  0.47080081150E+01  0.00000000000E+00 0. -1.
         13   -1    0    0    0    0 -0.00000000000E+00 -0.00000000000E+00 -0.10000000000E+04  0.10000000000E+04  0.00000000000E+00 0.  1.
    9000005    2    1    2  501    0  0.29418121358E+02 -0.95152940087E+01 -0.94606251853E+03  0.94657447450E+03  0.36027925200E+01 0.  0.
         13    1    3    3    0    0  0.40680178807E+01 -0.17113564862E+01 -0.10228814715E+03  0.10238331191E+03  0.00000000000E+00 0.  1.
          1    1    3    3  501    0  0.25350103477E+02 -0.78039375225E+01 -0.84377437138E+03  0.84419116258E+03  0.00000000000E+00 0.  1.
         -1    1    1    2    0  502 -0.29418121358E+02  0.95152940087E+01 -0.49229473354E+02  0.58133533618E+02  0.00000000000E+00 0. -1.
<mgrwt>
<rscale>  1 0.30000000E+03</rscale>
<asrwt>0</asrwt>
<pdfrwt beam="1">  1       21 0.17120066E-01 0.30000000E+03</pdfrwt>
<pdfrwt beam="2">0</pdfrwt>
<totfact> 0.32187978E+03</totfact>
</mgrwt>
</event>
<event>
 6    1  0.1274196E-001  0.3000000E+03  0.7818608E-02  0.1093470E+00
         21   -1    0    0  501  502  0.00000000000E+00  0.00000000000E+00  0.14536677541E+01  0.14536677541E+01  0.00000000000E+00 0. -1.
         13   -1    0    0    0    0 -0.00000000000E+00 -0.00000000000E+00 -0.10000000000E+04  0.10000000000E+04  0.00000000000E+00 0.  1.
    9000005    2    1    2  501    0  0.33364234462E+02 -0.13574705152E+02 -0.66168352906E+03  0.66267056172E+03  0.31202540021E+01 0.  0.
         13    1    3    3    0    0  0.25247415971E+00 -0.15971700350E+00 -0.22185237015E+01  0.22385486675E+01  0.00000000000E+00 0.  1.
          3    1    3    3  501    0  0.33111760302E+02 -0.13414988148E+02 -0.65946500536E+03  0.66043201305E+03  0.00000000000E+00 0.  1.
         -1    1    1    2    0  502 -0.33364234462E+02  0.13574705152E+02 -0.33686280319E+03  0.33878310603E+03  0.00000000000E+00 0. -1.
<mgrwt>
<rscale>  1 0.30000000E+03</rscale>
<asrwt>0</asrwt>
<pdfrwt beam="1">  1       21 0.52860757E-02 0.30000000E+03</pdfrwt>
<pdfrwt beam="2">0</pdfrwt>
<totfact> 0.26194447E+04</totfact>
</mgrwt>
</event>
<event>
 6    1  0.1274196E-001  0.3000000E+03  0.7818608E-02  0.1093470E+00
         21   -1    0    0  501  502  0.00000000000E+00  0.00000000000E+00  0.18366029734E+01  0.18366029734E+01  0.00000000000E+00 0. -1.
         13   -1    0    0    0    0 -0.00000000000E+00 -0.00000000000E+00 -0.10000000000E+04  0.10000000000E+04  0.00000000000E+00 0.  1.
    9000005    2    1    2  501    0 -0.42736789423E+02 -0.99051882103E+00 -0.52577090482E+03  0.52751384262E+03  0.28974990772E+01 0.  0.
         13    1    3    3    0    0 -0.46863672254E+00  0.22861709473E+00 -0.43545628889E+01  0.43856703144E+01  0.00000000000E+00 0.  1.
          1    1    3    3  501    0 -0.42268152700E+02 -0.12191359158E+01 -0.52141634193E+03  0.52312817230E+03  0.00000000000E+00 0.  1.
         -1    1    1    2    0  502  0.42736789423E+02  0.99051882103E+00 -0.47239249221E+03  0.47432276035E+03  0.00000000000E+00 0. -1.
<mgrwt>
<rscale>  1 0.30000000E+03</rscale>
<asrwt>0</asrwt>
<pdfrwt beam="1">  1       21 0.66785704E-02 0.30000000E+03</pdfrwt>
<pdfrwt beam="2">0</pdfrwt>
<totfact> 0.17508198E+04</totfact>
</mgrwt>
</event>
<event>
 6    1  0.1274196E-001  0.3000000E+03  0.7818608E-02  0.1093470E+00
         21   -1    0    0  501  502  0.00000000000E+00  0.00000000000E+00  0.34942137429E+01  0.34942137429E+01  0.00000000000E+00 0. -1.
         13   -1    0    0    0    0 -0.00000000000E+00 -0.00000000000E+00 -0.10000000000E+04  0.10000000000E+04  0.00000000000E+00 0.  1.
    9000005    2    1    2  501    0 -0.81861304569E+01 -0.37894630649E+02 -0.12032489197E+03  0.12645603027E+03  0.31673646841E+01 0.  0.
         13    1    3    3    0    0 -0.93781530984E+00 -0.10362541380E+02 -0.30320851874E+02  0.32056447398E+02  0.00000000000E+00 0.  1.
          1    1    3    3  501    0 -0.72483151470E+01 -0.27532089269E+02 -0.90004040096E+02  0.94399582867E+02  0.00000000000E+00 0.  1.
         -3    1    1    2    0  502  0.81861304569E+01  0.37894630649E+02 -0.87618089429E+03  0.87703818348E+03  0.00000000000E+00 0. -1.
<mgrwt>
<rscale>  1 0.30000000E+03</rscale>
<asrwt>0</asrwt>
<pdfrwt beam="1">  1       21 0.12706259E-01 0.30000000E+03</pdfrwt>
<pdfrwt beam="2">0</pdfrwt>
<totfact> 0.55846291E+03</totfact>
</mgrwt>
</event>
<event>
 6    1  0.1274196E-001  0.3000000E+03  0.7818608E-02  0.1093470E+00
         21   -1    0    0  501  502  0.00000000000E+00  0.00000000000E+00  0.97148078355E+00  0.97148078355E+00  0.00000000000E+00 0. -1.
         13   -1    0    0    0    0 -0.00000000000E+00 -0.00000000000E+00 -0.10000000000E+04  0.10000000000E+04  0.00000000000E+00 0.  1.
    9000005    2    1    2  501    0  0.25886667161E+02 -0.16272435923E+02 -0.46614885550E+03  0.46721531201E+03  0.77769261022E+01 0.  0.
         13    1    3    3    0    0  0.12106441241E+02 -0.10627919138E+02 -0.19856637490E+03  0.19921878382E+03  0.00000000000E+00 0.  1.
          1    1    3    3  501    0  0.13780225919E+02 -0.56445167851E+01 -0.26758248060E+03  0.26799652819E+03  0.00000000000E+00 0.  1.
         -3    1    1    2    0  502 -0.25886667161E+02  0.16272435923E+02 -0.53287966371E+03  0.53375616877E+03  0.00000000000E+00 0. -1.
<mgrwt>
<rscale>  1 0.30000000E+03</rscale>
<asrwt>0</asrwt>
<pdfrwt beam="1">  1       21 0.35326648E-02 0.30000000E+03</pdfrwt>
<pdfrwt beam="2">0</pdfrwt>
<totfact> 0.51804409E+04</totfact>
</mgrwt>
</event>
<event>
 6    1  0.1274196E-001  0.3000000E+03  0.7818608E-02  0.1093470E+00
         21   -1    0    0  501  502  0.00000000000E+00  0.00000000000E+00  0.12350228807E+01  0.12350228807E+01  0.00000000000E+00 0. -1.
         13   -1    0    0    0    0 -0.00000000000E+00 -0.00000000000E+00 -0.10000000000E+04  0.10000000000E+04  0.00000000000E+00 0.  1.
    9000005    2    1    2  501    0  0.30331714755E+02 -0.14537162882E+02 -0.64097669783E+03  0.64186919976E+03  0.36878754322E+01 0.  0.
         13    1    3    3    0    0  0.22025665016E+02 -0.96086128026E+01 -0.48320608757E+03  0.48380324351E+03  0.00000000000E+00 0.  1.
          1    1    3    3  501    0  0.83060497384E+01 -0.49285500796E+01 -0.15777061025E+03  0.15806595626E+03  0.00000000000E+00 0.  1.
         -1    1    1    2    0  502 -0.30331714755E+02  0.14537162882E+02 -0.35778827929E+03  0.35936582312E+03  0.00000000000E+00 0. -1.
<mgrwt>
<rscale>  1 0.30000000E+03</rscale>
<asrwt>0</asrwt>
<pdfrwt beam="1">  1       21 0.44910018E-02 0.30000000E+03</pdfrwt>
<pdfrwt beam="2">0</pdfrwt>
<totfact> 0.34575417E+04</totfact>
</mgrwt>
</event>
<event>
 6    1  0.1274196E-001  0.3000000E+03  0.7818608E-02  0.1093470E+00
         21   -1    0    0  501  502  0.00000000000E+00  0.00000000000E+00  0.11040838359E+01  0.11040838359E+01  0.00000000000E+00 0. -1.
         13   -1    0    0    0    0 -0.00000000000E+00 -0.00000000000E+00 -0.10000000000E+04  0.10000000000E+04  0.00000000000E+00 0.  1.
    9000005    2    1    2  501    0 -0.12480647880E+01  0.32808986112E+02 -0.57036071620E+03  0.57131296615E+03  0.30284433151E+01 0.  0.
         13    1    3    3    0    0 -0.14365701072E+01  0.66612955114E+01 -0.12349494985E+03  0.12368281704E+03  0.00000000000E+00 0.  1.
          1    1    3    3  501    0  0.18850531922E+00  0.26147690600E+02 -0.44686576635E+03  0.44763014911E+03  0.00000000000E+00 0.  1.
         -1    1    1    2    0  502  0.12480647880E+01 -0.32808986112E+02 -0.42853519996E+03  0.42979111769E+03  0.00000000000E+00 0. -1.
<mgrwt>
<rscale>  1 0.30000000E+03</rscale>
<asrwt>0</asrwt>
<pdfrwt beam="1">  1       21 0.40148588E-02 0.30000000E+03</pdfrwt>
<pdfrwt beam="2">0</pdfrwt>
<totfact> 0.41785570E+04</totfact>
</mgrwt>
</event>
<event>
 6    1  0.1274196E-001  0.3000000E+03  0.7818608E-02  0.1093470E+00
         21   -1    0    0  501  502  0.00000000000E+00  0.00000000000E+00  0.16352316901E+01  0.16352316901E+01  0.00000000000E+00 0. -1.
         13   -1    0    0    0    0 -0.00000000000E+00 -0.00000000000E+00 -0.10000000000E+04  0.10000000000E+04  0.00000000000E+00 0.  1.
    9000005    2    1    2  501    0  0.21694616646E+01  0.39910172146E+02 -0.56351163292E+03  0.56494909983E+03  0.49594911552E+01 0.  0.
         13    1    3    3    0    0  0.70795036483E+00  0.22189686451E+01 -0.21276851669E+02  0.21403958337E+02  0.00000000000E+00 0.  1.
          3    1    3    3  501    0  0.14615112997E+01  0.37691203501E+02 -0.54223478125E+03  0.54354514149E+03  0.00000000000E+00 0.  1.
         -1    1    1    2    0  502 -0.21694616646E+01 -0.39910172146E+02 -0.43485313539E+03  0.43668613186E+03  0.00000000000E+00 0. -1.
<mgrwt>
<rscale>  1 0.30000000E+03</rscale>
<asrwt>0</asrwt>
<pdfrwt beam="1">  1       21 0.59463096E-02 0.30000000E+03</pdfrwt>
<pdfrwt beam="2">0</pdfrwt>
<totfact> 0.21400810E+04</totfact>
</mgrwt>
</event>
<event>
 6    1  0.1274196E-001  0.3000000E+03  0.7818608E-02  0.1093470E+00
         21   -1    0    0  501  502  0.00000000000E+00  0.00000000000E+00  0.27144251906E+01  0.27144251906E+01  0.00000000000E+00 0. -1.
         13   -1    0    0    0    0 -0.00000000000E+00 -0.00000000000E+00 -0.10000000000E+04  0.10000000000E+04  0.00000000000E+00 0.  1.
    9000005    2    1    2  501    0  0.33432041473E+02 -0.32829481934E+02 -0.71732086409E+03  0.71885580628E+03  0.29953103618E+01 0.  0.
         13    1    3    3    0    0  0.10007051410E+02 -0.90886361485E+01 -0.18825918749E+03  0.18874391661E+03  0.00000000000E+00 0.  1.
          1    1    3    3  501    0  0.23424990062E+02 -0.23740845785E+02 -0.52906167660E+03  0.53011188966E+03  0.00000000000E+00 0.  1.
         -3    1    1    2    0  502 -0.33432041473E+02  0.32829481934E+02 -0.27996471072E+03  0.28385861891E+03  0.00000000000E+00 0. -1.
<mgrwt>
<rscale>  1 0.30000000E+03</rscale>
<asrwt>0</asrwt>
<pdfrwt beam="1">  1       21 0.98706579E-02 0.30000000E+03</pdfrwt>
<pdfrwt beam="2">0</pdfrwt>
<totfact> 0.88055938E+03</totfact>
</mgrwt>
</event>
<event>
 6    1  0.1274196E-001  0.3000000E+03  0.7818608E-02  0.1093470E+00
         21   -1    0    0  501  502  0.00000000000E+00  0.00000000000E+00  0.92550080481E+00  0.92550080481E+00  0.00000000000E+00 0. -1.
         13   -1    0    0    0    0 -0.00000000000E+00 -0.00000000000E+00 -0.10000000000E+04  0.10000000000E+04  0.00000000000E+00 0.  1.
    9000005    2    1    2  501    0  0.21224508506E+02  0.21668902874E+02 -0.51641948418E+03  0.51731834139E+03  0.30268118356E+01 0.  0.
         13    1    3    3    0    0  0.19571996602E+02  0.20850424135E+02 -0.49096204343E+03  0.49179419611E+03  0.00000000000E+00 0.  1.
          1    1    3    3  501    0  0.16525119043E+01  0.81847873915E+00 -0.25457440744E+02  0.25524145280E+02  0.00000000000E+00 0.  1.
         -3    1    1    2    0  502 -0.21224508506E+02 -0.21668902874E+02 -0.48265501502E+03  0.48360715941E+03  0.00000000000E+00 0. -1.
<mgrwt>
<rscale>  1 0.30000000E+03</rscale>
<asrwt>0</asrwt>
<pdfrwt beam="1">  1       21 0.33654646E-02 0.30000000E+03</pdfrwt>
<pdfrwt beam="2">0</pdfrwt>
<totfact> 0.56181088E+04</totfact>
</mgrwt>
</event>
<event>
 6    1  0.1274196E-001  0.3000000E+03  0.7818608E-02  0.1093470E+00
         21   -1    0    0  501  502  0.00000000000E+00  0.00000000000E+00  0.38990278090E+01  0.38990278090E+01  0.00000000000E+00 0. -1.
         13   -1    0    0    0    0 -0.00000000000E+00 -0.00000000000E+00 -0.10000000000E+04  0.10000000000E+04  0.00000000000E+00 0.  1.
    9000005    2    1    2  501    0 -0.59599959858E+02 -0.17597939985E+02 -0.50726368484E+03  0.51112754303E+03  0.85484840389E+01 0.  0.
         13    1    3    3    0    0 -0.24432629966E+02 -0.61927454025E+01 -0.17321636913E+03  0.17504060682E+03  0.00000000000E+00 0.  1.
          1    1    3    3  501    0 -0.35167329892E+02 -0.11405194582E+02 -0.33404731571E+03  0.33608693621E+03  0.00000000000E+00 0.  1.
         -3    1    1    2    0  502  0.59599959858E+02  0.17597939985E+02 -0.48883728735E+03  0.49277148478E+03  0.00000000000E+00 0. -1.
<mgrwt>
<rscale>  1 0.30000000E+03</rscale>
<asrwt>0</asrwt>
<pdfrwt beam="1">  1       21 0.14178313E-01 0.30000000E+03</pdfrwt>
<pdfrwt beam="2">0</pdfrwt>
<totfact> 0.45691171E+03</totfact>
</mgrwt>
</event>
<event>
 6    1  0.1274196E-001  0.3000000E+03  0.7818608E-02  0.1093470E+00
         21   -1    0    0  501  502  0.00000000000E+00  0.00000000000E+00  0.26972743697E+01  0.26972743697E+01  0.00000000000E+00 0. -1.
         13   -1    0    0    0    0 -0.00000000000E+00 -0.00000000000E+00 -0.10000000000E+04  0.10000000000E+04  0.00000000000E+00 0.  1.
    9000005    2    1    2  501    0 -0.38213413896E+02  0.10943029573E+02 -0.82105948356E+03  0.82202714603E+03  0.31525185185E+01 0.  0.
         13    1    3    3    0    0 -0.20118617536E+02  0.73805086281E+01 -0.43679743604E+03  0.43732279933E+03  0.00000000000E+00 0.  1.
          1    1    3    3  501    0 -0.18094796360E+02  0.35625209448E+01 -0.38426204752E+03  0.38470434670E+03  0.00000000000E+00 0.  1.
         -3    1    1    2    0  502  0.38213413896E+02 -0.10943029573E+02 -0.17624324207E+03  0.18067012834E+03  0.00000000000E+00 0. -1.
<mgrwt>
<rscale>  1 0.30000000E+03</rscale>
<asrwt>0</asrwt>
<pdfrwt beam="1">  1       21 0.98082911E-02 0.30000000E+03</pdfrwt>
<pdfrwt beam="2">0</pdfrwt>
<totfact> 0.89057968E+03</totfact>
</mgrwt>
</event>
<event>
 6    1  0.1274196E-001  0.3000000E+03  0.7818608E-02  0.1093470E+00
         21   -1    0    0  501  502  0.00000000000E+00  0.00000000000E+00  0.19577800234E+01  0.19577800234E+01  0.00000000000E+00 0. -1.
         13   -1    0    0    0    0 -0.00000000000E+00 -0.00000000000E+00 -0.10000000000E+04  0.10000000000E+04  0.00000000000E+00 0.  1.
    9000005    2    1    2  501    0 -0.15429005231E+02 -0.29048549131E+02 -0.83283159705E+03  0.83350475293E+03  0.63112363098E+01 0.  0.
         13    1    3    3    0    0 -0.96384931203E+01 -0.17991175775E+02 -0.43694991015E+03  0.43742634459E+03  0.00000000000E+00 0.  1.
          3    1    3    3  501    0 -0.57905121104E+01 -0.11057373356E+02 -0.39588168689E+03  0.39607840834E+03  0.00000000000E+00 0.  1.
         -3    1    1    2    0  502  0.15429005231E+02  0.29048549131E+02 -0.16521062293E+03  0.16845302710E+03  0.00000000000E+00 0. -1.
<mgrwt>
<rscale>  1 0.30000000E+03</rscale>
<asrwt>0</asrwt>
<pdfrwt beam="1">  1       21 0.71192151E-02 0.30000000E+03</pdfrwt>
<pdfrwt beam="2">0</pdfrwt>
<totfact> 0.15667657E+04</totfact>
</mgrwt>
</event>
<event>
 6    1  0.1274196E-001  0.3000000E+03  0.7818608E-02  0.1093470E+00
         21   -1    0    0  501  502  0.00000000000E+00  0.00000000000E+00  0.26437332546E+01  0.26437332546E+01  0.00000000000E+00 0. -1.
         13   -1    0    0    0    0 -0.00000000000E+00 -0.00000000000E+00 -0.10000000000E+04  0.10000000000E+04  0.00000000000E+00 0.  1.
    9000005    2    1    2  501    0 -0.29360531530E+02 -0.40693197794E+02 -0.39199789998E+03  0.39520918586E+03  0.31575052020E+01 0.  0.
         13    1    3    3    0    0 -0.12686824563E+02 -0.20275900162E+02 -0.18704559547E+03  0.18856861465E+03  0.00000000000E+00 0.  1.
          1    1    3    3  501    0 -0.16673706968E+02 -0.20417297632E+02 -0.20495230451E+03  0.20664057122E+03  0.00000000000E+00 0.  1.
         -3    1    1    2    0  502  0.29360531530E+02  0.40693197794E+02 -0.60535836676E+03  0.60743454739E+03  0.00000000000E+00 0. -1.
<mgrwt>
<rscale>  1 0.30000000E+03</rscale>
<asrwt>0</asrwt>
<pdfrwt beam="1">  1       21 0.96135957E-02 0.30000000E+03</pdfrwt>
<pdfrwt beam="2">0</pdfrwt>
<totfact> 0.92300927E+03</totfact>
</mgrwt>
</event>
<event>
 6    1  0.1274196E-001  0.3000000E+03  0.7818608E-02  0.1093470E+00
         21   -1    0    0  501  502  0.00000000000E+00  0.00000000000E+00  0.26634807926E+01  0.26634807926E+01  0.00000000000E+00 0. -1.
         13   -1    0    0    0    0 -0.00000000000E+00 -0.00000000000E+00 -0.10000000000E+04  0.10000000000E+04  0.00000000000E+00 0.  1.
    9000005    2    1    2  501    0  0.15558208613E+01  0.44739058600E+02 -0.74755432116E+03  0.74890148520E+03  0.34594096410E+01 0.  0.
         13    1    3    3    0    0 -0.45672234591E+00  0.27335835201E+02 -0.43989853755E+03  0.44074729700E+03  0.00000000000E+00 0.  1.
          3    1    3    3  501    0  0.20125432072E+01  0.17403223398E+02 -0.30765578361E+03  0.30815418820E+03  0.00000000000E+00 0.  1.
         -3    1    1    2    0  502 -0.15558208613E+01 -0.44739058600E+02 -0.24978219805E+03  0.25376199559E+03  0.00000000000E+00 0. -1.
<mgrwt>
<rscale>  1 0.30000000E+03</rscale>
<asrwt>0</asrwt>
<pdfrwt beam="1">  1       21 0.96854051E-02 0.30000000E+03</pdfrwt>
<pdfrwt beam="2">0</pdfrwt>
<totfact> 0.91084092E+03</totfact>
</mgrwt>
</event>
<event>
 6    1  0.1274196E-001  0.3000000E+03  0.7818608E-02  0.1093470E+00
         21   -1    0    0  501  502  0.00000000000E+00  0.00000000000E+00  0.16647161144E+01  0.16647161144E+01  0.00000000000E+00 0. -1.
         13   -1    0    0    0    0 -0.00000000000E+00 -0.00000000000E+00 -0.10000000000E+04  0.10000000000E+04  0.00000000000E+00 0.  1.
    9000005    2    1    2  501    0  0.31349565690E+02 -0.10378920225E+02 -0.79267710590E+03  0.79337212521E+03  0.34376715118E+01 0.  0.
         13    1    3    3    0    0  0.25724809181E+02 -0.92838878505E+01 -0.62764010157E+03  0.62823566715E+03  0.00000000000E+00 0.  1.
          3    1    3    3  501    0  0.56247565095E+01 -0.10950323748E+01 -0.16503700434E+03  0.16513645807E+03  0.00000000000E+00 0.  1.
         -3    1    1    2    0  502 -0.31349565690E+02  0.10378920225E+02 -0.20565817798E+03  0.20829259090E+03  0.00000000000E+00 0. -1.
<mgrwt>
<rscale>  1 0.30000000E+03</rscale>
<asrwt>0</asrwt>
<pdfrwt beam="1">  1       21 0.60535259E-02 0.30000000E+03</pdfrwt>
<pdfrwt beam="2">0</pdfrwt>
<totfact> 0.20751307E+04</totfact>
</mgrwt>
</event>
<event>
 6    1  0.1274196E-001  0.3000000E+03  0.7818608E-02  0.1093470E+00
         21   -1    0    0  501  502  0.00000000000E+00  0.00000000000E+00  0.23660682245E+01  0.23660682245E+01  0.00000000000E+00 0. -1.
         13   -1    0    0    0    0 -0.00000000000E+00 -0.00000000000E+00 -0.10000000000E+04  0.10000000000E+04  0.00000000000E+00 0.  1.
    9000005    2    1    2  501    0  0.57625567355E+01  0.39640870001E+02 -0.78244918126E+03  0.78348463345E+03  0.41041397364E+01 0.  0.
         13    1    3    3    0    0  0.26043781004E+01  0.17966996491E+02 -0.39475366716E+03  0.39517091680E+03  0.00000000000E+00 0.  1.
          1    1    3    3  501    0  0.31581786351E+01  0.21673873509E+02 -0.38769551411E+03  0.38831371666E+03  0.00000000000E+00 0.  1.
         -3    1    1    2    0  502 -0.57625567355E+01 -0.39640870001E+02 -0.21518475051E+03  0.21888143477E+03  0.00000000000E+00 0. -1.
<mgrwt>
<rscale>  1 0.30000000E+03</rscale>
<asrwt>0</asrwt>
<pdfrwt beam="1">  1       21 0.86039026E-02 0.30000000E+03</pdfrwt>
<pdfrwt beam="2">0</pdfrwt>
<totfact> 0.11237789E+04</totfact>
</mgrwt>
</event>
<event>
 6    1  0.1274196E-001  0.3000000E+03  0.7818608E-02  0.1093470E+00
         21   -1    0    0  501  502  0.00000000000E+00  0.00000000000E+00  0.24241633348E+01  0.24241633348E+01  0.00000000000E+00 0. -1.
         13   -1    0    0    0    0 -0.00000000000E+00 -0.00000000000E+00 -0.10000000000E+04  0.10000000000E+04  0.00000000000E+00 0.  1.
    9000005    2    1    2  501    0 -0.20184985396E+02 -0.44772821000E+02 -0.52487654094E+03  0.52718036978E+03  0.34234359426E+01 0.  0.
         13    1    3    3    0    0 -0.72775344175E+01 -0.14987790764E+02 -0.16179953548E+03  0.16265511385E+03  0.00000000000E+00 0.  1.
          1    1    3    3  501    0 -0.12907450978E+02 -0.29785030236E+02 -0.36307700546E+03  0.36452525593E+03  0.00000000000E+00 0.  1.
         -3    1    1    2    0  502  0.20184985396E+02  0.44772821000E+02 -0.47269929572E+03  0.47524379355E+03  0.00000000000E+00 0. -1.
<mgrwt>
<rscale>  1 0.30000000E+03</rscale>
<asrwt>0</asrwt>
<pdfrwt beam="1">  1       21 0.88151580E-02 0.30000000E+03</pdfrwt>
<pdfrwt beam="2">0</pdfrwt>
<totfact> 0.10766377E+04</totfact>
</mgrwt>
</event>
<event>
 6    1  0.1274196E-001  0.3000000E+03  0.7818608E-02  0.1093470E+00
         21   -1    0    0  501  502  0.00000000000E+00  0.00000000000E+00  0.18261410448E+01  0.18261410448E+01  0.00000000000E+00 0. -1.
         13   -1    0    0    0    0 -0.00000000000E+00 -0.00000000000E+00 -0.10000000000E+04  0.10000000000E+04  0.00000000000E+00 0.  1.
    9000005    2    1    2  501    0 -0.34123792000E+01 -0.42416072911E+02 -0.53625980291E+03  0.53795615630E+03  0.33885562239E+01 0.  0.
         13    1    3    3    0    0 -0.17783207609E+01 -0.14739330054E+02 -0.16851133759E+03  0.16916406584E+03  0.00000000000E+00 0.  1.
          1    1    3    3  501    0 -0.16340584391E+01 -0.27676742857E+02 -0.36774846532E+03  0.36879209046E+03  0.00000000000E+00 0.  1.
         -3    1    1    2    0  502  0.34123792000E+01  0.42416072911E+02 -0.46191405605E+03  0.46386998474E+03  0.00000000000E+00 0. -1.
<mgrwt>
<rscale>  1 0.30000000E+03</rscale>
<asrwt>0</asrwt>
<pdfrwt beam="1">  1       21 0.66405269E-02 0.30000000E+03</pdfrwt>
<pdfrwt beam="2">0</pdfrwt>
<totfact> 0.17682491E+04</totfact>
</mgrwt>
</event>
<event>
 6    1  0.1274196E-001  0.3000000E+03  0.7818608E-02  0.1093470E+00
         21   -1    0    0  501  502  0.00000000000E+00  0.00000000000E+00  0.16413022011E+01  0.16413022011E+01  0.00000000000E+00 0. -1.
         13   -1    0    0    0    0 -0.00000000000E+00 -0.00000000000E+00 -0.10000000000E+04  0.10000000000E+04  0.00000000000E+00 0.  1.
    9000005    2    1    2  501    0  0.69154477223E+01  0.36730999532E+02 -0.30951526124E+03  0.31178459981E+03  0.35986100644E+01 0.  0.
         13    1    3    3    0    0  0.41367834050E+01  0.25168406979E+02 -0.19761472943E+03  0.19925396602E+03  0.00000000000E+00 0.  1.
          3    1    3    3  501    0  0.27786643173E+01  0.11562592553E+02 -0.11190053181E+03  0.11253063379E+03  0.00000000000E+00 0.  1.
         -1    1    1    2    0  502 -0.69154477223E+01 -0.36730999532E+02 -0.68884343656E+03  0.68985670239E+03  0.00000000000E+00 0. -1.
<mgrwt>
<rscale>  1 0.30000000E+03</rscale>
<asrwt>0</asrwt>
<pdfrwt beam="1">  1       21 0.59683842E-02 0.30000000E+03</pdfrwt>
<pdfrwt beam="2">0</pdfrwt>
<totfact> 0.21264521E+04</totfact>
</mgrwt>
</event>
<event>
 6    1  0.1274196E-001  0.3000000E+03  0.7818608E-02  0.1093470E+00
         21   -1    0    0  501  502  0.00000000000E+00  0.00000000000E+00  0.10387604110E+01  0.10387604110E+01  0.00000000000E+00 0. -1.
         13   -1    0    0    0    0 -0.00000000000E+00 -0.00000000000E+00 -0.10000000000E+04  0.10000000000E+04  0.00000000000E+00 0.  1.
    9000005    2    1    2  501    0 -0.16362735868E+02  0.25590350100E+02 -0.33756056393E+03  0.33894098901E+03  0.33547818356E+01 0.  0.
         13    1    3    3    0    0 -0.15500571105E+02  0.24625749689E+02 -0.32885339462E+03  0.33013822924E+03  0.00000000000E+00 0.  1.
          1    1    3    3  501    0 -0.86216476313E+00  0.96460041146E+00 -0.87071693132E+01  0.88027597651E+01  0.00000000000E+00 0.  1.
         -1    1    1    2    0  502  0.16362735868E+02 -0.25590350100E+02 -0.66140067565E+03  0.66209777141E+03  0.00000000000E+00 0. -1.
<mgrwt>
<rscale>  1 0.30000000E+03</rscale>
<asrwt>0</asrwt>
<pdfrwt beam="1">  1       21 0.37773186E-02 0.30000000E+03</pdfrwt>
<pdfrwt beam="2">0</pdfrwt>
<totfact> 0.46299393E+04</totfact>
</mgrwt>
</event>
<event>
 6    1  0.1274196E-001  0.3000000E+03  0.7818608E-02  0.1093470E+00
         21   -1    0    0  501  502  0.00000000000E+00  0.00000000000E+00  0.15703976194E+01  0.15703976194E+01  0.00000000000E+00 0. -1.
         13   -1    0    0    0    0 -0.00000000000E+00 -0.00000000000E+00 -0.10000000000E+04  0.10000000000E+04  0.00000000000E+00 0.  1.
    9000005    2    1    2  501    0  0.13266284506E+01 -0.39466584077E+02 -0.47522035535E+03  0.47687306832E+03  0.37637670742E+01 0.  0.
         13    1    3    3    0    0  0.81806657784E+00 -0.25255038539E+02 -0.28176195014E+03  0.28289270537E+03  0.00000000000E+00 0.  1.
          1    1    3    3  501    0  0.50856187274E+00 -0.14211545538E+02 -0.19345840522E+03  0.19398036295E+03  0.00000000000E+00 0.  1.
         -3    1    1    2    0  502 -0.13266284506E+01  0.39466584077E+02 -0.52320924703E+03  0.52469732930E+03  0.00000000000E+00 0. -1.
<mgrwt>
<rscale>  1 0.30000000E+03</rscale>
<asrwt>0</asrwt>
<pdfrwt beam="1">  1       21 0.57105488E-02 0.30000000E+03</pdfrwt>
<pdfrwt beam="2">0</pdfrwt>
<totfact> 0.22945188E+04</totfact>
</mgrwt>
</event>
<event>
 6    1  0.1274196E-001  0.3000000E+03  0.7818608E-02  0.1093470E+00
         21   -1    0    0  501  502  0.00000000000E+00  0.00000000000E+00  0.10648319323E+02  0.10648319323E+02  0.00000000000E+00 0. -1.
         13   -1    0    0    0    0 -0.00000000000E+00 -0.00000000000E+00 -0.10000000000E+04  0.10000000000E+04  0.00000000000E+00 0.  1.
    9000005    2    1    2  501    0  0.45398175582E+02 -0.42975198772E+02 -0.89668886506E+03  0.89887059590E+03  0.30927969181E+01 0.  0.
         13    1    3    3    0    0  0.10290353310E+02 -0.91656872325E+01 -0.21560402659E+03  0.21604397116E+03  0.00000000000E+00 0.  1.
          1    1    3    3  501    0  0.35107822272E+02 -0.33809511539E+02 -0.68108483847E+03  0.68282662474E+03  0.00000000000E+00 0.  1.
         -3    1    1    2    0  502 -0.45398175582E+02  0.42975198772E+02 -0.92662815614E+02  0.11177772342E+03  0.00000000000E+00 0. -1.
<mgrwt>
<rscale>  1 0.30000000E+03</rscale>
<asrwt>0</asrwt>
<pdfrwt beam="1">  1       21 0.38721243E-01 0.30000000E+03</pdfrwt>
<pdfrwt beam="2">0</pdfrwt>
<totfact> 0.64628347E+02</totfact>
</mgrwt>
</event>
<event>
 6    1  0.1274196E-001  0.3000000E+03  0.7818608E-02  0.1093470E+00
         21   -1    0    0  501  502  0.00000000000E+00  0.00000000000E+00  0.10386933408E+01  0.10386933408E+01  0.00000000000E+00 0. -1.
         13   -1    0    0    0    0 -0.00000000000E+00 -0.00000000000E+00 -0.10000000000E+04  0.10000000000E+04  0.00000000000E+00 0.  1.
    9000005    2    1    2  501    0 -0.16567810812E+02 -0.27436947077E+02 -0.52619660814E+03  0.52718878188E+03  0.42264533713E+01 0.  0.
         13    1    3    3    0    0 -0.34008056703E+01 -0.93248813714E+01 -0.15543681569E+03  0.15575340306E+03  0.00000000000E+00 0.  1.
          3    1    3    3  501    0 -0.13167005142E+02 -0.18112065706E+02 -0.37075979244E+03  0.37143537882E+03  0.00000000000E+00 0.  1.
         -3    1    1    2    0  502  0.16567810812E+02  0.27436947077E+02 -0.47276469852E+03  0.47384991146E+03  0.00000000000E+00 0. -1.
<mgrwt>
<rscale>  1 0.30000000E+03</rscale>
<asrwt>0</asrwt>
<pdfrwt beam="1">  1       21 0.37770747E-02 0.30000000E+03</pdfrwt>
<pdfrwt beam="2">0</pdfrwt>
<totfact> 0.46304415E+04</totfact>
</mgrwt>
</event>
<event>
 6    1  0.1274196E-001  0.3000000E+03  0.7818608E-02  0.1093470E+00
         21   -1    0    0  501  502  0.00000000000E+00  0.00000000000E+00  0.16460905738E+01  0.16460905738E+01  0.00000000000E+00 0. -1.
         13   -1    0    0    0    0 -0.00000000000E+00 -0.00000000000E+00 -0.10000000000E+04  0.10000000000E+04  0.00000000000E+00 0.  1.
    9000005    2    1    2  501    0  0.38660199993E+02 -0.37653777962E+01 -0.64189671054E+03  0.64307876946E+03  0.31823880691E+01 0.  0.
         13    1    3    3    0    0  0.27352320221E+02 -0.16211928009E+01 -0.43483382376E+03  0.43569626115E+03  0.00000000000E+00 0.  1.
          1    1    3    3  501    0  0.11307879771E+02 -0.21441849953E+01 -0.20706288678E+03  0.20738250831E+03  0.00000000000E+00 0.  1.
         -3    1    1    2    0  502 -0.38660199993E+02  0.37653777962E+01 -0.35645719888E+03  0.35856732111E+03  0.00000000000E+00 0. -1.
<mgrwt>
<rscale>  1 0.30000000E+03</rscale>
<asrwt>0</asrwt>
<pdfrwt beam="1">  1       21 0.59857965E-02 0.30000000E+03</pdfrwt>
<pdfrwt beam="2">0</pdfrwt>
<totfact> 0.21157968E+04</totfact>
</mgrwt>
</event>
<event>
 6    1  0.1274196E-001  0.3000000E+03  0.7818608E-02  0.1093470E+00
         21   -1    0    0  501  502  0.00000000000E+00  0.00000000000E+00  0.19120481342E+01  0.19120481342E+01  0.00000000000E+00 0. -1.
         13   -1    0    0    0    0 -0.00000000000E+00 -0.00000000000E+00 -0.10000000000E+04  0.10000000000E+04  0.00000000000E+00 0.  1.
    9000005    2    1    2  501    0 -0.15281633782E+02 -0.37871371985E+02 -0.67655575684E+03  0.67779675756E+03  0.36032341254E+01 0.  0.
         13    1    3    3    0    0 -0.16567312211E+01 -0.74683240891E+01 -0.13687817654E+03  0.13709177887E+03  0.00000000000E+00 0.  1.
          1    1    3    3  501    0 -0.13624902561E+02 -0.30403047895E+02 -0.53967758030E+03  0.54070497868E+03  0.00000000000E+00 0.  1.
         -1    1    1    2    0  502  0.15281633782E+02  0.37871371985E+02 -0.32153219503E+03  0.32411529058E+03  0.00000000000E+00 0. -1.
<mgrwt>
<rscale>  1 0.30000000E+03</rscale>
<asrwt>0</asrwt>
<pdfrwt beam="1">  1       21 0.69529170E-02 0.30000000E+03</pdfrwt>
<pdfrwt beam="2">0</pdfrwt>
<totfact> 0.16325866E+04</totfact>
</mgrwt>
</event>
<event>
 6    1  0.1274196E-001  0.3000000E+03  0.7818608E-02  0.1093470E+00
         21   -1    0    0  501  502  0.00000000000E+00  0.00000000000E+00  0.39439165066E+01  0.39439165066E+01  0.00000000000E+00 0. -1.
         13   -1    0    0    0    0 -0.00000000000E+00 -0.00000000000E+00 -0.10000000000E+04  0.10000000000E+04  0.00000000000E+00 0.  1.
    9000005    2    1    2  501    0  0.35557751764E+01 -0.44199453637E+02 -0.85335779609E+03  0.85451488162E+03  0.31495278497E+01 0.  0.
         13    1    3    3    0    0  0.32977245825E+01 -0.23964117642E+02 -0.47943449011E+03  0.48004435653E+03  0.00000000000E+00 0.  1.
          3    1    3    3  501    0  0.25805059387E+00 -0.20235335995E+02 -0.37392330598E+03  0.37447052510E+03  0.00000000000E+00 0.  1.
         -3    1    1    2    0  502 -0.35557751764E+01  0.44199453637E+02 -0.14269828740E+03  0.14942903488E+03  0.00000000000E+00 0. -1.
<mgrwt>
<rscale>  1 0.30000000E+03</rscale>
<asrwt>0</asrwt>
<pdfrwt beam="1">  1       21 0.14341545E-01 0.30000000E+03</pdfrwt>
<pdfrwt beam="2">0</pdfrwt>
<totfact> 0.44738541E+03</totfact>
</mgrwt>
</event>
<event>
 6    1  0.1274196E-001  0.3000000E+03  0.7818608E-02  0.1093470E+00
         21   -1    0    0  501  502  0.00000000000E+00  0.00000000000E+00  0.23161239170E+01  0.23161239170E+01  0.00000000000E+00 0. -1.
         13   -1    0    0    0    0 -0.00000000000E+00 -0.00000000000E+00 -0.10000000000E+04  0.10000000000E+04  0.00000000000E+00 0.  1.
    9000005    2    1    2  501    0 -0.37578309666E+02 -0.10242037250E+02 -0.79274428860E+03  0.79370820652E+03  0.34901718224E+01 0.  0.
         13    1    3    3    0    0 -0.71180116832E+01 -0.18692189739E+01 -0.17951127989E+03  0.17966207078E+03  0.00000000000E+00 0.  1.
          1    1    3    3  501    0 -0.30460297983E+02 -0.83728182764E+01 -0.61323300871E+03  0.61404613573E+03  0.00000000000E+00 0.  1.
         -1    1    1    2    0  502  0.37578309666E+02  0.10242037250E+02 -0.20493958748E+03  0.20860791740E+03  0.00000000000E+00 0. -1.
<mgrwt>
<rscale>  1 0.30000000E+03</rscale>
<asrwt>0</asrwt>
<pdfrwt beam="1">  1       21 0.84222865E-02 0.30000000E+03</pdfrwt>
<pdfrwt beam="2">0</pdfrwt>
<totfact> 0.11668666E+04</totfact>
</mgrwt>
</event>
<event>
 6    1  0.1274196E-001  0.3000000E+03  0.7818608E-02  0.1093470E+00
         21   -1    0    0  501  502  0.00000000000E+00  0.00000000000E+00  0.13638210613E+01  0.13638210613E+01  0.00000000000E+00 0. -1.
         13   -1    0    0    0    0 -0.00000000000E+00 -0.00000000000E+00 -0.10000000000E+04  0.10000000000E+04  0.00000000000E+00 0.  1.
    9000005    2    1    2  501    0 -0.46021826712E+01  0.36319648539E+02 -0.55677611460E+03  0.55798969753E+03  0.35445466289E+01 0.  0.
         13    1    3    3    0    0 -0.19417516546E+01  0.62628086069E+01 -0.11102341784E+03  0.11121687138E+03  0.00000000000E+00 0.  1.
          1    1    3    3  501    0 -0.26604310166E+01  0.30056839932E+02 -0.44575269676E+03  0.44677282615E+03  0.00000000000E+00 0.  1.
         -3    1    1    2    0  502  0.46021826712E+01 -0.36319648539E+02 -0.44186006434E+03  0.44337412353E+03  0.00000000000E+00 0. -1.
<mgrwt>
<rscale>  1 0.30000000E+03</rscale>
<asrwt>0</asrwt>
<pdfrwt beam="1">  1       21 0.49593598E-02 0.30000000E+03</pdfrwt>
<pdfrwt beam="2">0</pdfrwt>
<totfact> 0.29208126E+04</totfact>
</mgrwt>
</event>
<event>
 6    1  0.1274196E-001  0.3000000E+03  0.7818608E-02  0.1093470E+00
         21   -1    0    0  501  502  0.00000000000E+00  0.00000000000E+00  0.27049015632E+01  0.27049015632E+01  0.00000000000E+00 0. -1.
         13   -1    0    0    0    0 -0.00000000000E+00 -0.00000000000E+00 -0.10000000000E+04  0.10000000000E+04  0.00000000000E+00 0.  1.
    9000005    2    1    2  501    0 -0.27987668663E+02  0.40356545044E+02 -0.65854860651E+03  0.66041679759E+03  0.72193548971E+01 0.  0.
         13    1    3    3    0    0 -0.19782792983E+02  0.23491626653E+02 -0.43503056063E+03  0.43611329274E+03  0.00000000000E+00 0.  1.
          3    1    3    3  501    0 -0.82048756797E+01  0.16864918390E+02 -0.22351804587E+03  0.22430350485E+03  0.00000000000E+00 0.  1.
         -3    1    1    2    0  502  0.27987668663E+02 -0.40356545044E+02 -0.33874649193E+03  0.34228810397E+03  0.00000000000E+00 0. -1.
<mgrwt>
<rscale>  1 0.30000000E+03</rscale>
<asrwt>0</asrwt>
<pdfrwt beam="1">  1       21 0.98360264E-02 0.30000000E+03</pdfrwt>
<pdfrwt beam="2">0</pdfrwt>
<totfact> 0.88610211E+03</totfact>
</mgrwt>
</event>
<event>
 6    1  0.1274196E-001  0.3000000E+03  0.7818608E-02  0.1093470E+00
         21   -1    0    0  501  502  0.00000000000E+00  0.00000000000E+00  0.15050857113E+01  0.15050857113E+01  0.00000000000E+00 0. -1.
         13   -1    0    0    0    0 -0.00000000000E+00 -0.00000000000E+00 -0.10000000000E+04  0.10000000000E+04  0.00000000000E+00 0.  1.
    9000005    2    1    2  501    0  0.17312397128E+02 -0.34542824234E+02 -0.46704648088E+03  0.46865392153E+03  0.33402184992E+01 0.  0.
         13    1    3    3    0    0  0.99843282807E+01 -0.22265254603E+02 -0.30901052854E+03  0.30997247478E+03  0.00000000000E+00 0.  1.
          3    1    3    3  501    0  0.73280688474E+01 -0.12277569631E+02 -0.15803595235E+03  0.15868144675E+03  0.00000000000E+00 0.  1.
         -1    1    1    2    0  502 -0.17312397128E+02  0.34542824234E+02 -0.53144843340E+03  0.53285116418E+03  0.00000000000E+00 0. -1.
<mgrwt>
<rscale>  1 0.30000000E+03</rscale>
<asrwt>0</asrwt>
<pdfrwt beam="1">  1       21 0.54730505E-02 0.30000000E+03</pdfrwt>
<pdfrwt beam="2">0</pdfrwt>
<totfact> 0.24681113E+04</totfact>
</mgrwt>
</event>
<event>
 6    1  0.1274196E-001  0.3000000E+03  0.7818608E-02  0.1093470E+00
         21   -1    0    0  501  502  0.00000000000E+00  0.00000000000E+00  0.11790549594E+01  0.11790549594E+01  0.00000000000E+00 0. -1.
         13   -1    0    0    0    0 -0.00000000000E+00 -0.00000000000E+00 -0.10000000000E+04  0.10000000000E+04  0.00000000000E+00 0.  1.
    9000005    2    1    2  501    0  0.21375512916E+02 -0.25616399272E+02 -0.38482193464E+03  0.38627426783E+03  0.26031023629E+01 0.  0.
         13    1    3    3    0    0  0.10621073142E+02 -0.10771749318E+02 -0.17021824710E+03  0.17088911441E+03  0.00000000000E+00 0.  1.
          3    1    3    3  501    0  0.10754439774E+02 -0.14844649955E+02 -0.21460368754E+03  0.21538515342E+03  0.00000000000E+00 0.  1.
         -1    1    1    2    0  502 -0.21375512916E+02  0.25616399272E+02 -0.61399901040E+03  0.61490478713E+03  0.00000000000E+00 0. -1.
<mgrwt>
<rscale>  1 0.30000000E+03</rscale>
<asrwt>0</asrwt>
<pdfrwt beam="1">  1       21 0.42874816E-02 0.30000000E+03</pdfrwt>
<pdfrwt beam="2">0</pdfrwt>
<totfact> 0.37400684E+04</totfact>
</mgrwt>
</event>
<event>
 6    1  0.1274196E-001  0.3000000E+03  0.7818608E-02  0.1093470E+00
         21   -1    0    0  501  502  0.00000000000E+00  0.00000000000E+00  0.35122167721E+01  0.35122167721E+01  0.00000000000E+00 0. -1.
         13   -1    0    0    0    0 -0.00000000000E+00 -0.00000000000E+00 -0.10000000000E+04  0.10000000000E+04  0.00000000000E+00 0.  1.
    9000005    2    1    2  501    0  0.18239924716E+02  0.33458950004E+02 -0.88238767344E+03  0.88321661734E+03  0.33750138127E+01 0.  0.
         13    1    3    3    0    0  0.17412434627E+02  0.30774878185E+02 -0.79991622779E+03  0.80069735699E+03  0.00000000000E+00 0.  1.
          1    1    3    3  501    0  0.82749008906E+00  0.26840718193E+01 -0.82471445655E+02  0.82519260357E+02  0.00000000000E+00 0.  1.
         -3    1    1    2    0  502 -0.18239924716E+02 -0.33458950004E+02 -0.11410010979E+03  0.12029559943E+03  0.00000000000E+00 0. -1.
<mgrwt>
<rscale>  1 0.30000000E+03</rscale>
<asrwt>0</asrwt>
<pdfrwt beam="1">  1       21 0.12771724E-01 0.30000000E+03</pdfrwt>
<pdfrwt beam="2">0</pdfrwt>
<totfact> 0.55325375E+03</totfact>
</mgrwt>
</event>
<event>
 6    1  0.1274196E-001  0.3000000E+03  0.7818608E-02  0.1093470E+00
         21   -1    0    0  501  502  0.00000000000E+00  0.00000000000E+00  0.21741263871E+01  0.21741263871E+01  0.00000000000E+00 0. -1.
         13   -1    0    0    0    0 -0.00000000000E+00 -0.00000000000E+00 -0.10000000000E+04  0.10000000000E+04  0.00000000000E+00 0.  1.
    9000005    2    1    2  501    0  0.14890686542E+02 -0.37226710007E+02 -0.75410992672E+03  0.75518217661E+03  0.32829577586E+01 0.  0.
         13    1    3    3    0    0  0.13610046718E+01 -0.62728501179E+01 -0.11040350684E+03  0.11058994215E+03  0.00000000000E+00 0.  1.
          3    1    3    3  501    0  0.13529681870E+02 -0.30953859890E+02 -0.64370641988E+03  0.64459223446E+03  0.00000000000E+00 0.  1.
         -3    1    1    2    0  502 -0.14890686542E+02  0.37226710007E+02 -0.24371594689E+03  0.24699194977E+03  0.00000000000E+00 0. -1.
<mgrwt>
<rscale>  1 0.30000000E+03</rscale>
<asrwt>0</asrwt>
<pdfrwt beam="1">  1       21 0.79059308E-02 0.30000000E+03</pdfrwt>
<pdfrwt beam="2">0</pdfrwt>
<totfact> 0.13041945E+04</totfact>
</mgrwt>
</event>
<event>
 6    1  0.1274196E-001  0.3000000E+03  0.7818608E-02  0.1093470E+00
         21   -1    0    0  501  502  0.00000000000E+00  0.00000000000E+00  0.22167344556E+01  0.22167344556E+01  0.00000000000E+00 0. -1.
         13   -1    0    0    0    0 -0.00000000000E+00 -0.00000000000E+00 -0.10000000000E+04  0.10000000000E+04  0.00000000000E+00 0.  1.
    9000005    2    1    2  501    0 -0.12665883737E+02  0.35928416686E+02 -0.79293578369E+03  0.79385702972E+03  0.32482055846E+01 0.  0.
         13    1    3    3    0    0 -0.19547566888E+01  0.63041335705E+01 -0.16419372904E+03  0.16432633334E+03  0.00000000000E+00 0.  1.
          3    1    3    3  501    0 -0.10711127048E+02  0.29624283116E+02 -0.62874205465E+03  0.62953069637E+03  0.00000000000E+00 0.  1.
         -3    1    1    2    0  502  0.12665883737E+02 -0.35928416686E+02 -0.20484748185E+03  0.20835970474E+03  0.00000000000E+00 0. -1.
<mgrwt>
<rscale>  1 0.30000000E+03</rscale>
<asrwt>0</asrwt>
<pdfrwt beam="1">  1       21 0.80608696E-02 0.30000000E+03</pdfrwt>
<pdfrwt beam="2">0</pdfrwt>
<totfact> 0.12604891E+04</totfact>
</mgrwt>
</event>
<event>
 6    1  0.1274196E-001  0.3000000E+03  0.7818608E-02  0.1093470E+00
         21   -1    0    0  501  502  0.00000000000E+00  0.00000000000E+00  0.18604398255E+01  0.18604398255E+01  0.00000000000E+00 0. -1.
         13   -1    0    0    0    0 -0.00000000000E+00 -0.00000000000E+00 -0.10000000000E+04  0.10000000000E+04  0.00000000000E+00 0.  1.
    9000005    2    1    2  501    0  0.31380366284E+02  0.27574743749E+02 -0.62207097695E+03  0.62347878967E+03  0.28994710280E+01 0.  0.
         13    1    3    3    0    0  0.30667564082E+02  0.26386794265E+02 -0.59660535421E+03  0.59797551043E+03  0.00000000000E+00 0.  1.
          1    1    3    3  501    0  0.71280220217E+00  0.11879494842E+01 -0.25465622734E+02  0.25503279244E+02  0.00000000000E+00 0.  1.
         -3    1    1    2    0  502 -0.31380366284E+02 -0.27574743749E+02 -0.37606858323E+03  0.37838165015E+03  0.00000000000E+00 0. -1.
<mgrwt>
<rscale>  1 0.30000000E+03</rscale>
<asrwt>0</asrwt>
<pdfrwt beam="1">  1       21 0.67652500E-02 0.30000000E+03</pdfrwt>
<pdfrwt beam="2">0</pdfrwt>
<totfact> 0.17120812E+04</totfact>
</mgrwt>
</event>
<event>
 6    1  0.1274196E-001  0.3000000E+03  0.7818608E-02  0.1093470E+00
         21   -1    0    0  501  502  0.00000000000E+00  0.00000000000E+00  0.13708495950E+01  0.13708495950E+01  0.00000000000E+00 0. -1.
         13   -1    0    0    0    0 -0.00000000000E+00 -0.00000000000E+00 -0.10000000000E+04  0.10000000000E+04  0.00000000000E+00 0.  1.
    9000005    2    1    2  501    0 -0.32567978256E+02  0.23797765773E+01 -0.73396418095E+03  0.73469898644E+03  0.35840211681E+01 0.  0.
         13    1    3    3    0    0 -0.73080228720E+01 -0.31363608503E+00 -0.13816604866E+03  0.13835954094E+03  0.00000000000E+00 0.  1.
          3    1    3    3  501    0 -0.25259955384E+02  0.26934126623E+01 -0.59579813230E+03  0.59633944550E+03  0.00000000000E+00 0.  1.
         -1    1    1    2    0  502  0.32567978256E+02 -0.23797765773E+01 -0.26466496945E+03  0.26667186316E+03  0.00000000000E+00 0. -1.
<mgrwt>
<rscale>  1 0.30000000E+03</rscale>
<asrwt>0</asrwt>
<pdfrwt beam="1">  1       21 0.49849181E-02 0.30000000E+03</pdfrwt>
<pdfrwt beam="2">0</pdfrwt>
<totfact> 0.28953367E+04</totfact>
</mgrwt>
</event>
<event>
 6    1  0.1274196E-001  0.3000000E+03  0.7818608E-02  0.1093470E+00
         21   -1    0    0  501  502  0.00000000000E+00  0.00000000000E+00  0.11371444596E+01  0.11371444596E+01  0.00000000000E+00 0. -1.
         13   -1    0    0    0    0 -0.00000000000E+00 -0.00000000000E+00 -0.10000000000E+04  0.10000000000E+04  0.00000000000E+00 0.  1.
    9000005    2    1    2  501    0 -0.13307741699E+02 -0.30426470210E+02 -0.42036208202E+03  0.42168394441E+03  0.31941976050E+01 0.  0.
         13    1    3    3    0    0 -0.65909384216E+01 -0.18845482437E+02 -0.25667444863E+03  0.25744973346E+03  0.00000000000E+00 0.  1.
          1    1    3    3  501    0 -0.67168032774E+01 -0.11580987773E+02 -0.16368763339E+03  0.16423421096E+03  0.00000000000E+00 0.  1.
         -3    1    1    2    0  502  0.13307741699E+02  0.30426470210E+02 -0.57850077352E+03  0.57945320005E+03  0.00000000000E+00 0. -1.
<mgrwt>
<rscale>  1 0.30000000E+03</rscale>
<asrwt>0</asrwt>
<pdfrwt beam="1">  1       21 0.41350795E-02 0.30000000E+03</pdfrwt>
<pdfrwt beam="2">0</pdfrwt>
<totfact> 0.39758204E+04</totfact>
</mgrwt>
</event>
<event>
 6    1  0.1274196E-001  0.3000000E+03  0.7818608E-02  0.1093470E+00
         21   -1    0    0  501  502  0.00000000000E+00  0.00000000000E+00  0.15450619587E+01  0.15450619587E+01  0.00000000000E+00 0. -1.
         13   -1    0    0    0    0 -0.00000000000E+00 -0.00000000000E+00 -0.10000000000E+04  0.10000000000E+04  0.00000000000E+00 0.  1.
    9000005    2    1    2  501    0 -0.31739714683E+01 -0.32717997075E+02 -0.77308673157E+03  0.77379219169E+03  0.32741355313E+01 0.  0.
         13    1    3    3    0    0 -0.17419003758E+01 -0.22607765371E+02 -0.56564446975E+03  0.56609876473E+03  0.00000000000E+00 0.  1.
          1    1    3    3  501    0 -0.14320710925E+01 -0.10110231704E+02 -0.20744226182E+03  0.20769342695E+03  0.00000000000E+00 0.  1.
         -1    1    1    2    0  502  0.31739714683E+01  0.32717997075E+02 -0.22536820647E+03  0.22775287027E+03  0.00000000000E+00 0. -1.
<mgrwt>
<rscale>  1 0.30000000E+03</rscale>
<asrwt>0</asrwt>
<pdfrwt beam="1">  1       21 0.56184190E-02 0.30000000E+03</pdfrwt>
<pdfrwt beam="2">0</pdfrwt>
<totfact> 0.23595630E+04</totfact>
</mgrwt>
</event>
<event>
 6    1  0.1274196E-001  0.3000000E+03  0.7818608E-02  0.1093470E+00
         21   -1    0    0  501  502  0.00000000000E+00  0.00000000000E+00  0.28674602860E+01  0.28674602860E+01  0.00000000000E+00 0. -1.
         13   -1    0    0    0    0 -0.00000000000E+00 -0.00000000000E+00 -0.10000000000E+04  0.10000000000E+04  0.00000000000E+00 0.  1.
    9000005    2    1    2  501    0  0.24448457794E+02 -0.22454553266E+02 -0.89190502235E+03  0.89252814516E+03  0.31602163142E+01 0.  0.
         13    1    3    3    0    0  0.16507469529E+02 -0.17037678857E+02 -0.64447053485E+03  0.64490700829E+03  0.00000000000E+00 0.  1.
          3    1    3    3  501    0  0.79409882644E+01 -0.54168744094E+01 -0.24743448749E+03  0.24762113687E+03  0.00000000000E+00 0.  1.
         -3    1    1    2    0  502 -0.24448457794E+02  0.22454553266E+02 -0.10522751737E+03  0.11033931512E+03  0.00000000000E+00 0. -1.
<mgrwt>
<rscale>  1 0.30000000E+03</rscale>
<asrwt>0</asrwt>
<pdfrwt beam="1">  1       21 0.10427150E-01 0.30000000E+03</pdfrwt>
<pdfrwt beam="2">0</pdfrwt>
<totfact> 0.79828533E+03</totfact>
</mgrwt>
</event>
<event>
 6    1  0.1274196E-001  0.3000000E+03  0.7818608E-02  0.1093470E+00
         21   -1    0    0  501  502  0.00000000000E+00  0.00000000000E+00  0.50768946562E+01  0.50768946562E+01  0.00000000000E+00 0. -1.
         13   -1    0    0    0    0 -0.00000000000E+00 -0.00000000000E+00 -0.10000000000E+04  0.10000000000E+04  0.00000000000E+00 0.  1.
    9000005    2    1    2  501    0  0.12626143727E+02 -0.64848014057E+02 -0.31023608333E+03  0.31720989985E+03  0.33179404759E+01 0.  0.
         13    1    3    3    0    0  0.73542695689E+01 -0.29346099646E+02 -0.14010917206E+03  0.14333826754E+03  0.00000000000E+00 0.  1.
          3    1    3    3  501    0  0.52718741582E+01 -0.35501914411E+02 -0.17012691127E+03  0.17387163231E+03  0.00000000000E+00 0.  1.
         -3    1    1    2    0  502 -0.12626143727E+02  0.64848014057E+02 -0.68468702201E+03  0.68786699481E+03  0.00000000000E+00 0. -1.
<mgrwt>
<rscale>  1 0.30000000E+03</rscale>
<asrwt>0</asrwt>
<pdfrwt beam="1">  1       21 0.18461474E-01 0.30000000E+03</pdfrwt>
<pdfrwt beam="2">0</pdfrwt>
<totfact> 0.27929704E+03</totfact>
</mgrwt>
</event>
<event>
 6    1  0.1274196E-001  0.3000000E+03  0.7818608E-02  0.1093470E+00
         21   -1    0    0  501  502  0.00000000000E+00  0.00000000000E+00  0.13857769173E+01  0.13857769173E+01  0.00000000000E+00 0. -1.
         13   -1    0    0    0    0 -0.00000000000E+00 -0.00000000000E+00 -0.10000000000E+04  0.10000000000E+04  0.00000000000E+00 0.  1.
    9000005    2    1    2  501    0 -0.34610542729E+02 -0.17839078544E+01 -0.68100796417E+03  0.68189429393E+03  0.26284688363E+01 0.  0.
         13    1    3    3    0    0 -0.37625524020E+01  0.60573335011E+00 -0.71281599433E+02  0.71383402351E+02  0.00000000000E+00 0.  1.
          3    1    3    3  501    0 -0.30847990327E+02 -0.23896412045E+01 -0.60972636473E+03  0.61051089158E+03  0.00000000000E+00 0.  1.
         -3    1    1    2    0  502  0.34610542729E+02  0.17839078544E+01 -0.31760625892E+03  0.31949148298E+03  0.00000000000E+00 0. -1.
<mgrwt>
<rscale>  1 0.30000000E+03</rscale>
<asrwt>0</asrwt>
<pdfrwt beam="1">  1       21 0.50391994E-02 0.30000000E+03</pdfrwt>
<pdfrwt beam="2">0</pdfrwt>
<totfact> 0.28423654E+04</totfact>
</mgrwt>
</event>
<event>
 6    1  0.1274196E-001  0.3000000E+03  0.7818608E-02  0.1093470E+00
         21   -1    0    0  501  502  0.00000000000E+00  0.00000000000E+00  0.19408545583E+01  0.19408545583E+01  0.00000000000E+00 0. -1.
         13   -1    0    0    0    0 -0.00000000000E+00 -0.00000000000E+00 -0.10000000000E+04  0.10000000000E+04  0.00000000000E+00 0.  1.
    9000005    2    1    2  501    0  0.72304407320E+01 -0.43405042219E+02 -0.50236599250E+03  0.50429843390E+03  0.30071668504E+01 0.  0.
         13    1    3    3    0    0  0.21301268088E+01 -0.12561627163E+02 -0.16154584364E+03  0.16204749771E+03  0.00000000000E+00 0.  1.
          3    1    3    3  501    0  0.51003139232E+01 -0.30843415056E+02 -0.34082014886E+03  0.34225093619E+03  0.00000000000E+00 0.  1.
         -1    1    1    2    0  502 -0.72304407320E+01  0.43405042219E+02 -0.49569315294E+03  0.49764242066E+03  0.00000000000E+00 0. -1.
<mgrwt>
<rscale>  1 0.30000000E+03</rscale>
<asrwt>0</asrwt>
<pdfrwt beam="1">  1       21 0.70576678E-02 0.30000000E+03</pdfrwt>
<pdfrwt beam="2">0</pdfrwt>
<totfact> 0.15906459E+04</totfact>
</mgrwt>
</event>
<event>
 6    1  0.1274196E-001  0.3000000E+03  0.7818608E-02  0.1093470E+00
         21   -1    0    0  501  502  0.00000000000E+00  0.00000000000E+00  0.17854106084E+01  0.17854106084E+01  0.00000000000E+00 0. -1.
         13   -1    0    0    0    0 -0.00000000000E+00 -0.00000000000E+00 -0.10000000000E+04  0.10000000000E+04  0.00000000000E+00 0.  1.
    9000005    2    1    2  501    0  0.32927677132E+02 -0.21920173681E+02 -0.32812605946E+03  0.33053034442E+03  0.43441628930E+01 0.  0.
         13    1    3    3    0    0  0.27343408910E+01 -0.24997038211E+01 -0.22484771270E+02  0.22787937124E+02  0.00000000000E+00 0.  1.
          3    1    3    3  501    0  0.30193336241E+02 -0.19420469860E+02 -0.30564128819E+03  0.30774240730E+03  0.00000000000E+00 0.  1.
         -1    1    1    2    0  502 -0.32927677132E+02  0.21920173681E+02 -0.67008852993E+03  0.67125506619E+03  0.00000000000E+00 0. -1.
<mgrwt>
<rscale>  1 0.30000000E+03</rscale>
<asrwt>0</asrwt>
<pdfrwt beam="1">  1       21 0.64924159E-02 0.30000000E+03</pdfrwt>
<pdfrwt beam="2">0</pdfrwt>
<totfact> 0.18387173E+04</totfact>
</mgrwt>
</event>
<event>
 6    1  0.1274196E-001  0.3000000E+03  0.7818608E-02  0.1093470E+00
         21   -1    0    0  501  502  0.00000000000E+00  0.00000000000E+00  0.18147443149E+01  0.18147443149E+01  0.00000000000E+00 0. -1.
         13   -1    0    0    0    0 -0.00000000000E+00 -0.00000000000E+00 -0.10000000000E+04  0.10000000000E+04  0.00000000000E+00 0.  1.
    9000005    2    1    2  501    0  0.37072214103E+02 -0.17912496121E+02 -0.37228041135E+03  0.37455715709E+03  0.22699499120E+01 0.  0.
         13    1    3    3    0    0  0.35884847009E+02 -0.17540454182E+02 -0.35747420583E+03  0.35969875954E+03  0.00000000000E+00 0.  1.
          3    1    3    3  501    0  0.11873670939E+01 -0.37204193970E+00 -0.14806205518E+02  0.14858397547E+02  0.00000000000E+00 0.  1.
         -1    1    1    2    0  502 -0.37072214103E+02  0.17912496121E+02 -0.62590484433E+03  0.62725758723E+03  0.00000000000E+00 0. -1.
<mgrwt>
<rscale>  1 0.30000000E+03</rscale>
<asrwt>0</asrwt>
<pdfrwt beam="1">  1       21 0.65990842E-02 0.30000000E+03</pdfrwt>
<pdfrwt beam="2">0</pdfrwt>
<totfact> 0.17875416E+04</totfact>
</mgrwt>
</event>
<event>
 6    1  0.1274196E-001  0.3000000E+03  0.7818608E-02  0.1093470E+00
         21   -1    0    0  501  502  0.00000000000E+00  0.00000000000E+00  0.11554290060E+02  0.11554290060E+02  0.00000000000E+00 0. -1.
         13   -1    0    0    0    0 -0.00000000000E+00 -0.00000000000E+00 -0.10000000000E+04  0.10000000000E+04  0.00000000000E+00 0.  1.
    9000005    2    1    2  501    0  0.67127017928E+02 -0.23178723019E+02 -0.87385582882E+03  0.87674282693E+03  0.32688333399E+01 0.  0.
         13    1    3    3    0    0  0.55990581197E+02 -0.18624164433E+02 -0.73808928360E+03  0.74044418780E+03  0.00000000000E+00 0.  1.
          1    1    3    3  501    0  0.11136436731E+02 -0.45545585864E+01 -0.13576654522E+03  0.13629863913E+03  0.00000000000E+00 0.  1.
         -3    1    1    2    0  502 -0.67127017928E+02  0.23178723019E+02 -0.11458988112E+03  0.13481146313E+03  0.00000000000E+00 0. -1.
<mgrwt>
<rscale>  1 0.30000000E+03</rscale>
<asrwt>0</asrwt>
<pdfrwt beam="1">  1       21 0.42015689E-01 0.30000000E+03</pdfrwt>
<pdfrwt beam="2">0</pdfrwt>
<totfact> 0.54481353E+02</totfact>
</mgrwt>
</event>
<event>
 6    1  0.1274196E-001  0.3000000E+03  0.7818608E-02  0.1093470E+00
         21   -1    0    0  501  502  0.00000000000E+00  0.00000000000E+00  0.12891251166E+01  0.12891251166E+01  0.00000000000E+00 0. -1.
         13   -1    0    0    0    0 -0.00000000000E+00 -0.00000000000E+00 -0.10000000000E+04  0.10000000000E+04  0.00000000000E+00 0.  1.
    9000005    2    1    2  501    0 -0.82749622358E+01 -0.33107732136E+02 -0.65290889336E+03  0.65380731645E+03  0.30638359454E+01 0.  0.
         13    1    3    3    0    0 -0.13773924403E+01 -0.31996366040E+01 -0.53733593721E+02  0.53846392437E+02  0.00000000000E+00 0.  1.
          1    1    3    3  501    0 -0.68975697955E+01 -0.29908095532E+02 -0.59917529964E+03  0.59996092402E+03  0.00000000000E+00 0.  1.
         -1    1    1    2    0  502  0.82749622358E+01  0.33107732136E+02 -0.34580198152E+03  0.34748180866E+03  0.00000000000E+00 0. -1.
<mgrwt>
<rscale>  1 0.30000000E+03</rscale>
<asrwt>0</asrwt>
<pdfrwt beam="1">  1       21 0.46877376E-02 0.30000000E+03</pdfrwt>
<pdfrwt beam="2">0</pdfrwt>
<totfact> 0.32146797E+04</totfact>
</mgrwt>
</event>
<event>
 6    1  0.1274196E-001  0.3000000E+03  0.7818608E-02  0.1093470E+00
         21   -1    0    0  501  502  0.00000000000E+00  0.00000000000E+00  0.27192368312E+01  0.27192368312E+01  0.00000000000E+00 0. -1.
         13   -1    0    0    0    0 -0.00000000000E+00 -0.00000000000E+00 -0.10000000000E+04  0.10000000000E+04  0.00000000000E+00 0.  1.
    9000005    2    1    2  501    0  0.45638866641E+02 -0.19366476319E+01 -0.25838832212E+03  0.26241612580E+03  0.33228487153E+01 0.  0.
         13    1    3    3    0    0  0.20652734331E+02  0.76741998660E+00 -0.11550154412E+03  0.11733597514E+03  0.00000000000E+00 0.  1.
          1    1    3    3  501    0  0.24986132309E+02 -0.27040676185E+01 -0.14288677800E+03  0.14508015066E+03  0.00000000000E+00 0.  1.
         -3    1    1    2    0  502 -0.45638866641E+02  0.19366476319E+01 -0.73889244105E+03  0.74030311103E+03  0.00000000000E+00 0. -1.
<mgrwt>
<rscale>  1 0.30000000E+03</rscale>
<asrwt>0</asrwt>
<pdfrwt beam="1">  1       21 0.98881548E-02 0.30000000E+03</pdfrwt>
<pdfrwt beam="2">0</pdfrwt>
<totfact> 0.87777915E+03</totfact>
</mgrwt>
</event>
<event>
 6    1  0.1274196E-001  0.3000000E+03  0.7818608E-02  0.1093470E+00
         21   -1    0    0  501  502  0.00000000000E+00  0.00000000000E+00  0.17000151149E+01  0.17000151149E+01  0.00000000000E+00 0. -1.
         13   -1    0    0    0    0 -0.00000000000E+00 -0.00000000000E+00 -0.10000000000E+04  0.10000000000E+04  0.00000000000E+00 0.  1.
    9000005    2    1    2  501    0 -0.33043107010E+02 -0.42462741354E+01 -0.20501960354E+03  0.20772039246E+03  0.22013275362E+01 0.  0.
         13    1    3    3    0    0 -0.28895404346E+02 -0.30783488104E+01 -0.17606934677E+03  0.17845121321E+03  0.00000000000E+00 0.  1.
          1    1    3    3  501    0 -0.41477026637E+01 -0.11679253250E+01 -0.28950256770E+02  0.29269179250E+02  0.00000000000E+00 0.  1.
         -1    1    1    2    0  502  0.33043107010E+02  0.42462741354E+01 -0.79328038135E+03  0.79397962266E+03  0.00000000000E+00 0. -1.
<mgrwt>
<rscale>  1 0.30000000E+03</rscale>
<asrwt>0</asrwt>
<pdfrwt beam="1">  1       21 0.61818862E-02 0.30000000E+03</pdfrwt>
<pdfrwt beam="2">0</pdfrwt>
<totfact> 0.20013210E+04</totfact>
</mgrwt>
</event>
<event>
 6    1  0.1274196E-001  0.3000000E+03  0.7818608E-02  0.1093470E+00
         21   -1    0    0  501  502  0.00000000000E+00  0.00000000000E+00  0.12271758335E+01  0.12271758335E+01  0.00000000000E+00 0. -1.
         13   -1    0    0    0    0 -0.00000000000E+00 -0.00000000000E+00 -0.10000000000E+04  0.10000000000E+04  0.00000000000E+00 0.  1.
    9000005    2    1    2  501    0 -0.31605816104E+02 -0.13019959188E+02 -0.39522280205E+03  0.39670995015E+03  0.30453801938E+01 0.  0.
         13    1    3    3    0    0 -0.10321709206E+02 -0.32023038554E+01 -0.11311514077E+03  0.11363022266E+03  0.00000000000E+00 0.  1.
          3    1    3    3  501    0 -0.21284106898E+02 -0.98176553324E+01 -0.28210766128E+03  0.28307972749E+03  0.00000000000E+00 0.  1.
         -3    1    1    2    0  502  0.31605816104E+02  0.13019959188E+02 -0.60355002212E+03  0.60451722568E+03  0.00000000000E+00 0. -1.
<mgrwt>
<rscale>  1 0.30000000E+03</rscale>
<asrwt>0</asrwt>
<pdfrwt beam="1">  1       21 0.44624670E-02 0.30000000E+03</pdfrwt>
<pdfrwt beam="2">0</pdfrwt>
<totfact> 0.34951263E+04</totfact>
</mgrwt>
</event>
<event>
 6    1  0.1274196E-001  0.3000000E+03  0.7818608E-02  0.1093470E+00
         21   -1    0    0  501  502  0.00000000000E+00  0.00000000000E+00  0.13098011734E+01  0.13098011734E+01  0.00000000000E+00 0. -1.
         13   -1    0    0    0    0 -0.00000000000E+00 -0.00000000000E+00 -0.10000000000E+04  0.10000000000E+04  0.00000000000E+00 0.  1.
    9000005    2    1    2  501    0  0.30015630443E+02 -0.15556959205E+02 -0.32692311888E+03  0.32869254987E+03  0.41363790221E+01 0.  0.
         13    1    3    3    0    0  0.20882036698E+02 -0.11574601172E+02 -0.24683214786E+03  0.24798415286E+03  0.00000000000E+00 0.  1.
          3    1    3    3  501    0  0.91335937455E+01 -0.39823580329E+01 -0.80090971017E+02  0.80708397015E+02  0.00000000000E+00 0.  1.
         -1    1    1    2    0  502 -0.30015630443E+02  0.15556959205E+02 -0.67176707995E+03  0.67261725130E+03  0.00000000000E+00 0. -1.
<mgrwt>
<rscale>  1 0.30000000E+03</rscale>
<asrwt>0</asrwt>
<pdfrwt beam="1">  1       21 0.47629234E-02 0.30000000E+03</pdfrwt>
<pdfrwt beam="2">0</pdfrwt>
<totfact> 0.31288611E+04</totfact>
</mgrwt>
</event>
<event>
 6    1  0.1274196E-001  0.3000000E+03  0.7818608E-02  0.1093470E+00
         21   -1    0    0  501  502  0.00000000000E+00  0.00000000000E+00  0.13842283623E+01  0.13842283623E+01  0.00000000000E+00 0. -1.
         13   -1    0    0    0    0 -0.00000000000E+00 -0.00000000000E+00 -0.10000000000E+04  0.10000000000E+04  0.00000000000E+00 0.  1.
    9000005    2    1    2  501    0  0.18452272713E+02  0.26202774769E+02 -0.75267198369E+03  0.75336120805E+03  0.33049949541E+01 0.  0.
         13    1    3    3    0    0 -0.11414803110E-01 -0.74442897363E-01 -0.40166625955E+01  0.40173685976E+01  0.00000000000E+00 0.  1.
          3    1    3    3  501    0  0.18463687516E+02  0.26277217666E+02 -0.74865532110E+03  0.74934383946E+03  0.00000000000E+00 0.  1.
         -3    1    1    2    0  502 -0.18452272713E+02 -0.26202774769E+02 -0.24594378795E+03  0.24802302031E+03  0.00000000000E+00 0. -1.
<mgrwt>
<rscale>  1 0.30000000E+03</rscale>
<asrwt>0</asrwt>
<pdfrwt beam="1">  1       21 0.50335683E-02 0.30000000E+03</pdfrwt>
<pdfrwt beam="2">0</pdfrwt>
<totfact> 0.28477902E+04</totfact>
</mgrwt>
</event>
<event>
 6    1  0.1274196E-001  0.3000000E+03  0.7818608E-02  0.1093470E+00
         21   -1    0    0  501  502  0.00000000000E+00  0.00000000000E+00  0.12090416365E+01  0.12090416365E+01  0.00000000000E+00 0. -1.
         13   -1    0    0    0    0 -0.00000000000E+00 -0.00000000000E+00 -0.10000000000E+04  0.10000000000E+04  0.00000000000E+00 0.  1.
    9000005    2    1    2  501    0  0.10707084270E+02 -0.29678881696E+02 -0.70729007202E+03  0.70800562349E+03  0.41520171824E+01 0.  0.
         13    1    3    3    0    0  0.76415997756E+01 -0.20405749761E+02 -0.44377357635E+03  0.44430819904E+03  0.00000000000E+00 0.  1.
          1    1    3    3  501    0  0.30654844947E+01 -0.92731319348E+01 -0.26351649566E+03  0.26369742444E+03  0.00000000000E+00 0.  1.
         -3    1    1    2    0  502 -0.10707084270E+02  0.29678881696E+02 -0.29150088635E+03  0.29320341815E+03  0.00000000000E+00 0. -1.
<mgrwt>
<rscale>  1 0.30000000E+03</rscale>
<asrwt>0</asrwt>
<pdfrwt beam="1">  1       21 0.43965243E-02 0.30000000E+03</pdfrwt>
<pdfrwt beam="2">0</pdfrwt>
<totfact> 0.35844354E+04</totfact>
</mgrwt>
</event>
<event>
 6    1  0.1274196E-001  0.3000000E+03  0.7818608E-02  0.1093470E+00
         21   -1    0    0  501  502  0.00000000000E+00  0.00000000000E+00  0.45700958177E+01  0.45700958177E+01  0.00000000000E+00 0. -1.
         13   -1    0    0    0    0 -0.00000000000E+00 -0.00000000000E+00 -0.10000000000E+04  0.10000000000E+04  0.00000000000E+00 0.  1.
    9000005    2    1    2  501    0 -0.59298783708E+02 -0.29448608086E+02 -0.59815769748E+03  0.60181859366E+03  0.30695863157E+01 0.  0.
         13    1    3    3    0    0 -0.18298316810E+02 -0.95285877905E+01 -0.19899529949E+03  0.20006186944E+03  0.00000000000E+00 0.  1.
          1    1    3    3  501    0 -0.41000466898E+02 -0.19920020295E+02 -0.39916239798E+03  0.40175672422E+03  0.00000000000E+00 0.  1.
         -3    1    1    2    0  502  0.59298783708E+02  0.29448608086E+02 -0.39727220670E+03  0.40275150215E+03  0.00000000000E+00 0. -1.
<mgrwt>
<rscale>  1 0.30000000E+03</rscale>
<asrwt>0</asrwt>
<pdfrwt beam="1">  1       21 0.16618565E-01 0.30000000E+03</pdfrwt>
<pdfrwt beam="2">0</pdfrwt>
<totfact> 0.34029911E+03</totfact>
</mgrwt>
</event>
<event>
 6    1  0.1274196E-001  0.3000000E+03  0.7818608E-02  0.1093470E+00
         21   -1    0    0  501  502  0.00000000000E+00  0.00000000000E+00  0.19442388412E+01  0.19442388412E+01  0.00000000000E+00 0. -1.
         13   -1    0    0    0    0 -0.00000000000E+00 -0.00000000000E+00 -0.10000000000E+04  0.10000000000E+04  0.00000000000E+00 0.  1.
    9000005    2    1    2  501    0 -0.29986450449E+02  0.27862666659E+02 -0.68399366128E+03  0.68522588133E+03  0.34153141206E+01 0.  0.
         13    1    3    3    0    0 -0.74139208480E+01  0.80923557549E+01 -0.16339410542E+03  0.16376228544E+03  0.00000000000E+00 0.  1.
          3    1    3    3  501    0 -0.22572529601E+02  0.19770310904E+02 -0.52059955585E+03  0.52146359589E+03  0.00000000000E+00 0.  1.
         -1    1    1    2    0  502  0.29986450449E+02 -0.27862666659E+02 -0.31406209988E+03  0.31671835751E+03  0.00000000000E+00 0. -1.
<mgrwt>
<rscale>  1 0.30000000E+03</rscale>
<asrwt>0</asrwt>
<pdfrwt beam="1">  1       21 0.70699743E-02 0.30000000E+03</pdfrwt>
<pdfrwt beam="2">0</pdfrwt>
<totfact> 0.15858268E+04</totfact>
</mgrwt>
</event>
<event>
 6    1  0.1274196E-001  0.3000000E+03  0.7818608E-02  0.1093470E+00
         21   -1    0    0  501  502  0.00000000000E+00  0.00000000000E+00  0.10830039205E+01  0.10830039205E+01  0.00000000000E+00 0. -1.
         13   -1    0    0    0    0 -0.00000000000E+00 -0.00000000000E+00 -0.10000000000E+04  0.10000000000E+04  0.00000000000E+00 0.  1.
    9000005    2    1    2  501    0 -0.83249460054E+01 -0.29690960985E+02 -0.67168517366E+03  0.67240151145E+03  0.34586402372E+01 0.  0.
         13    1    3    3    0    0 -0.67675143475E+01 -0.26259414446E+02 -0.60865711612E+03  0.60926089740E+03  0.00000000000E+00 0.  1.
          3    1    3    3  501    0 -0.15574316580E+01 -0.34315465392E+01 -0.63028057534E+02  0.63140614041E+02  0.00000000000E+00 0.  1.
         -3    1    1    2    0  502  0.83249460054E+01  0.29690960985E+02 -0.32723182242E+03  0.32868149248E+03  0.00000000000E+00 0. -1.
<mgrwt>
<rscale>  1 0.30000000E+03</rscale>
<asrwt>0</asrwt>
<pdfrwt beam="1">  1       21 0.39382044E-02 0.30000000E+03</pdfrwt>
<pdfrwt beam="2">0</pdfrwt>
<totfact> 0.43163929E+04</totfact>
</mgrwt>
</event>
<event>
 6    1  0.1274196E-001  0.3000000E+03  0.7818608E-02  0.1093470E+00
         21   -1    0    0  501  502  0.00000000000E+00  0.00000000000E+00  0.18714959447E+01  0.18714959447E+01  0.00000000000E+00 0. -1.
         13   -1    0    0    0    0 -0.00000000000E+00 -0.00000000000E+00 -0.10000000000E+04  0.10000000000E+04  0.00000000000E+00 0.  1.
    9000005    2    1    2  501    0 -0.18499345090E+02 -0.38432609612E+02 -0.57961254057E+03  0.58118764441E+03  0.30148926957E+01 0.  0.
         13    1    3    3    0    0 -0.17398585689E+02 -0.36453127199E+02 -0.55669243231E+03  0.55815589709E+03  0.00000000000E+00 0.  1.
          1    1    3    3  501    0 -0.11007594007E+01 -0.19794824132E+01 -0.22920108263E+02  0.23031747321E+02  0.00000000000E+00 0.  1.
         -1    1    1    2    0  502  0.18499345090E+02  0.38432609612E+02 -0.41851596349E+03  0.42068385154E+03  0.00000000000E+00 0. -1.
<mgrwt>
<rscale>  1 0.30000000E+03</rscale>
<asrwt>0</asrwt>
<pdfrwt beam="1">  1       21 0.68054541E-02 0.30000000E+03</pdfrwt>
<pdfrwt beam="2">0</pdfrwt>
<totfact> 0.16945586E+04</totfact>
</mgrwt>
</event>
<event>
 6    1  0.1274196E-001  0.3000000E+03  0.7818608E-02  0.1093470E+00
         21   -1    0    0  501  502  0.00000000000E+00  0.00000000000E+00  0.29173389225E+01  0.29173389225E+01  0.00000000000E+00 0. -1.
         13   -1    0    0    0    0 -0.00000000000E+00 -0.00000000000E+00 -0.10000000000E+04  0.10000000000E+04  0.00000000000E+00 0.  1.
    9000005    2    1    2  501    0  0.46646068606E+02  0.26366092542E+02 -0.45600880332E+03  0.45919687204E+03  0.68346205913E+01 0.  0.
         13    1    3    3    0    0  0.13576916827E+02  0.11321455091E+02 -0.15290451033E+03  0.15392302392E+03  0.00000000000E+00 0.  1.
          3    1    3    3  501    0  0.33069151779E+02  0.15044637452E+02 -0.30310429299E+03  0.30527384812E+03  0.00000000000E+00 0.  1.
         -3    1    1    2    0  502 -0.46646068606E+02 -0.26366092542E+02 -0.54107385776E+03  0.54372046688E+03  0.00000000000E+00 0. -1.
<mgrwt>
<rscale>  1 0.30000000E+03</rscale>
<asrwt>0</asrwt>
<pdfrwt beam="1">  1       21 0.10608528E-01 0.30000000E+03</pdfrwt>
<pdfrwt beam="2">0</pdfrwt>
<totfact> 0.77398251E+03</totfact>
</mgrwt>
</event>
<event>
 6    1  0.1274196E-001  0.3000000E+03  0.7818608E-02  0.1093470E+00
         21   -1    0    0  501  502  0.00000000000E+00  0.00000000000E+00  0.22319176790E+01  0.22319176790E+01  0.00000000000E+00 0. -1.
         13   -1    0    0    0    0 -0.00000000000E+00 -0.00000000000E+00 -0.10000000000E+04  0.10000000000E+04  0.00000000000E+00 0.  1.
    9000005    2    1    2  501    0  0.34942264546E+02 -0.31521832022E+02 -0.46200705655E+03  0.46440809477E+03  0.31257713970E+01 0.  0.
         13    1    3    3    0    0  0.59059613093E+01 -0.66185495964E+01 -0.94668082259E+02  0.95082760668E+02  0.00000000000E+00 0.  1.
          3    1    3    3  501    0  0.29036303237E+02 -0.24903282425E+02 -0.36733897429E+03  0.36932533410E+03  0.00000000000E+00 0.  1.
         -3    1    1    2    0  502 -0.34942264546E+02  0.31521832022E+02 -0.53576102578E+03  0.53782382291E+03  0.00000000000E+00 0. -1.
<mgrwt>
<rscale>  1 0.30000000E+03</rscale>
<asrwt>0</asrwt>
<pdfrwt beam="1">  1       21 0.81160814E-02 0.30000000E+03</pdfrwt>
<pdfrwt beam="2">0</pdfrwt>
<totfact> 0.12454570E+04</totfact>
</mgrwt>
</event>
<event>
 6    1  0.1274196E-001  0.3000000E+03  0.7818608E-02  0.1093470E+00
         21   -1    0    0  501  502  0.00000000000E+00  0.00000000000E+00  0.17086867362E+01  0.17086867362E+01  0.00000000000E+00 0. -1.
         13   -1    0    0    0    0 -0.00000000000E+00 -0.00000000000E+00 -0.10000000000E+04  0.10000000000E+04  0.00000000000E+00 0.  1.
    9000005    2    1    2  501    0  0.33577449649E+02 -0.21570912220E+02 -0.62744402547E+03  0.62872013431E+03  0.32020004087E+01 0.  0.
         13    1    3    3    0    0  0.19974575565E+02 -0.12036679780E+02 -0.38860412377E+03  0.38930326269E+03  0.00000000000E+00 0.  1.
          3    1    3    3  501    0  0.13602874084E+02 -0.95342324399E+01 -0.23883990170E+03  0.23941687162E+03  0.00000000000E+00 0.  1.
         -1    1    1    2    0  502 -0.33577449649E+02  0.21570912220E+02 -0.37084728779E+03  0.37298855243E+03  0.00000000000E+00 0. -1.
<mgrwt>
<rscale>  1 0.30000000E+03</rscale>
<asrwt>0</asrwt>
<pdfrwt beam="1">  1       21 0.62134194E-02 0.30000000E+03</pdfrwt>
<pdfrwt beam="2">0</pdfrwt>
<totfact> 0.19838121E+04</totfact>
</mgrwt>
</event>
<event>
 6    1  0.1274196E-001  0.3000000E+03  0.7818608E-02  0.1093470E+00
         21   -1    0    0  501  502  0.00000000000E+00  0.00000000000E+00  0.17717059868E+01  0.17717059868E+01  0.00000000000E+00 0. -1.
         13   -1    0    0    0    0 -0.00000000000E+00 -0.00000000000E+00 -0.10000000000E+04  0.10000000000E+04  0.00000000000E+00 0.  1.
    9000005    2    1    2  501    0 -0.94870800116E+01 -0.35300621720E+02 -0.74663242392E+03  0.74753437507E+03  0.33951273715E+01 0.  0.
         13    1    3    3    0    0 -0.95816316124E+01 -0.31995137333E+02 -0.67587266660E+03  0.67669739022E+03  0.00000000000E+00 0.  1.
          1    1    3    3  501    0  0.94551600736E-01 -0.33054843868E+01 -0.70759757317E+02  0.70836984850E+02  0.00000000000E+00 0.  1.
         -3    1    1    2    0  502  0.94870800116E+01  0.35300621720E+02 -0.25159587010E+03  0.25423733092E+03  0.00000000000E+00 0. -1.
<mgrwt>
<rscale>  1 0.30000000E+03</rscale>
<asrwt>0</asrwt>
<pdfrwt beam="1">  1       21 0.64425808E-02 0.30000000E+03</pdfrwt>
<pdfrwt beam="2">0</pdfrwt>
<totfact> 0.18634052E+04</totfact>
</mgrwt>
</event>
<event>
 6    1  0.1274196E-001  0.3000000E+03  0.7818608E-02  0.1093470E+00
         21   -1    0    0  501  502  0.00000000000E+00  0.00000000000E+00  0.15658617719E+01  0.15658617719E+01  0.00000000000E+00 0. -1.
         13   -1    0    0    0    0 -0.00000000000E+00 -0.00000000000E+00 -0.10000000000E+04  0.10000000000E+04  0.00000000000E+00 0.  1.
    9000005    2    1    2  501    0 -0.29774992008E+02 -0.20751436105E+02 -0.30828059990E+03  0.31045872195E+03  0.55242654808E+01 0.  0.
         13    1    3    3    0    0 -0.24207218699E+01 -0.17966571635E+00 -0.16509655876E+02  0.16687148087E+02  0.00000000000E+00 0.  1.
          1    1    3    3  501    0 -0.27354270138E+02 -0.20571770389E+02 -0.29177094402E+03  0.29377157386E+03  0.00000000000E+00 0.  1.
         -3    1    1    2    0  502  0.29774992008E+02  0.20751436105E+02 -0.69015353833E+03  0.69110713982E+03  0.00000000000E+00 0. -1.
<mgrwt>
<rscale>  1 0.30000000E+03</rscale>
<asrwt>0</asrwt>
<pdfrwt beam="1">  1       21 0.56940548E-02 0.30000000E+03</pdfrwt>
<pdfrwt beam="2">0</pdfrwt>
<totfact> 0.23059600E+04</totfact>
</mgrwt>
</event>
<event>
 6    1  0.1274196E-001  0.3000000E+03  0.7818608E-02  0.1093470E+00
         21   -1    0    0  501  502  0.00000000000E+00  0.00000000000E+00  0.60592615766E+01  0.60592615766E+01  0.00000000000E+00 0. -1.
         13   -1    0    0    0    0 -0.00000000000E+00 -0.00000000000E+00 -0.10000000000E+04  0.10000000000E+04  0.00000000000E+00 0.  1.
    9000005    2    1    2  501    0 -0.49816349124E+02  0.26846141099E+02 -0.84225553159E+03  0.84416180668E+03  0.35201449191E+01 0.  0.
         13    1    3    3    0    0 -0.14854219717E+02  0.67094406965E+01 -0.25925782491E+03  0.25976967531E+03  0.00000000000E+00 0.  1.
          1    1    3    3  501    0 -0.34962129407E+02  0.20136700403E+02 -0.58299770669E+03  0.58439213136E+03  0.00000000000E+00 0.  1.
         -1    1    1    2    0  502  0.49816349124E+02 -0.26846141099E+02 -0.15168520683E+03  0.16189745490E+03  0.00000000000E+00 0. -1.
<mgrwt>
<rscale>  1 0.30000000E+03</rscale>
<asrwt>0</asrwt>
<pdfrwt beam="1">  1       21 0.22033725E-01 0.30000000E+03</pdfrwt>
<pdfrwt beam="2">0</pdfrwt>
<totfact> 0.19927071E+03</totfact>
</mgrwt>
</event>
<event>
 6    1  0.1274196E-001  0.3000000E+03  0.7818608E-02  0.1093470E+00
         21   -1    0    0  501  502  0.00000000000E+00  0.00000000000E+00  0.37365118016E+01  0.37365118016E+01  0.00000000000E+00 0. -1.
         13   -1    0    0    0    0 -0.00000000000E+00 -0.00000000000E+00 -0.10000000000E+04  0.10000000000E+04  0.00000000000E+00 0.  1.
    9000005    2    1    2  501    0  0.15919868568E+02  0.43562497363E+02 -0.82484126774E+03  0.82615072673E+03  0.32822129678E+01 0.  0.
         13    1    3    3    0    0  0.13143556171E+02  0.33759627741E+02 -0.62293894319E+03  0.62399150032E+03  0.00000000000E+00 0.  1.
          1    1    3    3  501    0  0.27763123969E+01  0.98028696226E+01 -0.20190232454E+03  0.20215922640E+03  0.00000000000E+00 0.  1.
         -3    1    1    2    0  502 -0.15919868568E+02 -0.43562497363E+02 -0.17142222046E+03  0.17758578507E+03  0.00000000000E+00 0. -1.
<mgrwt>
<rscale>  1 0.30000000E+03</rscale>
<asrwt>0</asrwt>
<pdfrwt beam="1">  1       21 0.13587344E-01 0.30000000E+03</pdfrwt>
<pdfrwt beam="2">0</pdfrwt>
<totfact> 0.49405849E+03</totfact>
</mgrwt>
</event>
<event>
 6    1  0.1274196E-001  0.3000000E+03  0.7818608E-02  0.1093470E+00
         21   -1    0    0  501  502  0.00000000000E+00  0.00000000000E+00  0.16788316252E+01  0.16788316252E+01  0.00000000000E+00 0. -1.
         13   -1    0    0    0    0 -0.00000000000E+00 -0.00000000000E+00 -0.10000000000E+04  0.10000000000E+04  0.00000000000E+00 0.  1.
    9000005    2    1    2  501    0  0.10118378842E+01  0.32425092491E+02 -0.80466990520E+03  0.80532908712E+03  0.29785540627E+01 0.  0.
         13    1    3    3    0    0  0.12707180972E+01  0.14330467799E+02 -0.38704388473E+03  0.38731117431E+03  0.00000000000E+00 0.  1.
          1    1    3    3  501    0 -0.25888021293E+00  0.18094624692E+02 -0.41762602047E+03  0.41801791281E+03  0.00000000000E+00 0.  1.
         -3    1    1    2    0  502 -0.10118378842E+01 -0.32425092491E+02 -0.19365126317E+03  0.19634974451E+03  0.00000000000E+00 0. -1.
<mgrwt>
<rscale>  1 0.30000000E+03</rscale>
<asrwt>0</asrwt>
<pdfrwt beam="1">  1       21 0.61048551E-02 0.30000000E+03</pdfrwt>
<pdfrwt beam="2">0</pdfrwt>
<totfact> 0.20451157E+04</totfact>
</mgrwt>
</event>
<event>
 6    1  0.1274196E-001  0.3000000E+03  0.7818608E-02  0.1093470E+00
         21   -1    0    0  501  502  0.00000000000E+00  0.00000000000E+00  0.12857333292E+01  0.12857333292E+01  0.00000000000E+00 0. -1.
         13   -1    0    0    0    0 -0.00000000000E+00 -0.00000000000E+00 -0.10000000000E+04  0.10000000000E+04  0.00000000000E+00 0.  1.
    9000005    2    1    2  501    0 -0.30225107149E+02 -0.23203963618E+01 -0.23457310997E+03  0.23654352271E+03  0.30582466955E+01 0.  0.
         13    1    3    3    0    0 -0.14928349060E+02 -0.23666537429E+00 -0.10578086515E+03  0.10682931737E+03  0.00000000000E+00 0.  1.
          3    1    3    3  501    0 -0.15296758089E+02 -0.20837309875E+01 -0.12879224482E+03  0.12971420534E+03  0.00000000000E+00 0.  1.
         -1    1    1    2    0  502  0.30225107149E+02  0.23203963618E+01 -0.76414115670E+03  0.76474221062E+03  0.00000000000E+00 0. -1.
<mgrwt>
<rscale>  1 0.30000000E+03</rscale>
<asrwt>0</asrwt>
<pdfrwt beam="1">  1       21 0.46754038E-02 0.30000000E+03</pdfrwt>
<pdfrwt beam="2">0</pdfrwt>
<totfact> 0.32291095E+04</totfact>
</mgrwt>
</event>
<event>
 6    1  0.1274196E-001  0.3000000E+03  0.7818608E-02  0.1093470E+00
         21   -1    0    0  501  502  0.00000000000E+00  0.00000000000E+00  0.27053574799E+01  0.27053574799E+01  0.00000000000E+00 0. -1.
         13   -1    0    0    0    0 -0.00000000000E+00 -0.00000000000E+00 -0.10000000000E+04  0.10000000000E+04  0.00000000000E+00 0.  1.
    9000005    2    1    2  501    0 -0.38953504521E+02 -0.14775265350E+02 -0.79860137398E+03  0.79969132116E+03  0.25240110559E+01 0.  0.
         13    1    3    3    0    0 -0.52184568142E+01 -0.19399925610E+01 -0.91313467891E+02  0.91483032749E+02  0.00000000000E+00 0.  1.
          1    1    3    3  501    0 -0.33735047706E+02 -0.12835272789E+02 -0.70728790609E+03  0.70820828841E+03  0.00000000000E+00 0.  1.
         -3    1    1    2    0  502  0.38953504521E+02  0.14775265350E+02 -0.19869326854E+03  0.20301403632E+03  0.00000000000E+00 0. -1.
<mgrwt>
<rscale>  1 0.30000000E+03</rscale>
<asrwt>0</asrwt>
<pdfrwt beam="1">  1       21 0.98376843E-02 0.30000000E+03</pdfrwt>
<pdfrwt beam="2">0</pdfrwt>
<totfact> 0.88583555E+03</totfact>
</mgrwt>
</event>
<event>
 6    1  0.1274196E-001  0.3000000E+03  0.7818608E-02  0.1093470E+00
         21   -1    0    0  501  502  0.00000000000E+00  0.00000000000E+00  0.43871047641E+01  0.43871047641E+01  0.00000000000E+00 0. -1.
         13   -1    0    0    0    0 -0.00000000000E+00 -0.00000000000E+00 -0.10000000000E+04  0.10000000000E+04  0.00000000000E+00 0.  1.
    9000005    2    1    2  501    0  0.29497605875E+02  0.45815651219E+02 -0.78095782891E+03  0.78292383433E+03  0.10267287285E+02 0.  0.
         13    1    3    3    0    0  0.11714316996E+02  0.27044929492E+02 -0.39029562463E+03  0.39140685742E+03  0.00000000000E+00 0.  1.
          3    1    3    3  501    0  0.17783288878E+02  0.18770721726E+02 -0.39066220428E+03  0.39151697691E+03  0.00000000000E+00 0.  1.
         -3    1    1    2    0  502 -0.29497605875E+02 -0.45815651219E+02 -0.21465506633E+03  0.22146327043E+03  0.00000000000E+00 0. -1.
<mgrwt>
<rscale>  1 0.30000000E+03</rscale>
<asrwt>0</asrwt>
<pdfrwt beam="1">  1       21 0.15953142E-01 0.30000000E+03</pdfrwt>
<pdfrwt beam="2">0</pdfrwt>
<totfact> 0.36726851E+03</totfact>
</mgrwt>
</event>
<event>
 6    1  0.1274196E-001  0.3000000E+03  0.7818608E-02  0.1093470E+00
         21   -1    0    0  501  502  0.00000000000E+00  0.00000000000E+00  0.20060680496E+01  0.20060680496E+01  0.00000000000E+00 0. -1.
         13   -1    0    0    0    0 -0.00000000000E+00 -0.00000000000E+00 -0.10000000000E+04  0.10000000000E+04  0.00000000000E+00 0.  1.
    9000005    2    1    2  501    0 -0.40045094183E+02 -0.19708273545E+02 -0.46575594525E+03  0.46789999234E+03  0.31267698065E+01 0.  0.
         13    1    3    3    0    0 -0.34113006553E+02 -0.15889689507E+02 -0.40026296914E+03  0.40202813821E+03  0.00000000000E+00 0.  1.
          1    1    3    3  501    0 -0.59320876305E+01 -0.38185840386E+01 -0.65492976108E+02  0.65871854135E+02  0.00000000000E+00 0.  1.
         -3    1    1    2    0  502  0.40045094183E+02  0.19708273545E+02 -0.53223798670E+03  0.53410607570E+03  0.00000000000E+00 0. -1.
<mgrwt>
<rscale>  1 0.30000000E+03</rscale>
<asrwt>0</asrwt>
<pdfrwt beam="1">  1       21 0.72948083E-02 0.30000000E+03</pdfrwt>
<pdfrwt beam="2">0</pdfrwt>
<totfact> 0.15015580E+04</totfact>
</mgrwt>
</event>
<event>
 6    1  0.1274196E-001  0.3000000E+03  0.7818608E-02  0.1093470E+00
         21   -1    0    0  501  502  0.00000000000E+00  0.00000000000E+00  0.49230305678E+01  0.49230305678E+01  0.00000000000E+00 0. -1.
         13   -1    0    0    0    0 -0.00000000000E+00 -0.00000000000E+00 -0.10000000000E+04  0.10000000000E+04  0.00000000000E+00 0.  1.
    9000005    2    1    2  501    0  0.49107875631E+02 -0.22748218121E+01 -0.85594052543E+03  0.85735708492E+03  0.31983962057E+01 0.  0.
         13    1    3    3    0    0  0.31609034077E+02  0.63179629101E-01 -0.55185803810E+03  0.55276254327E+03  0.00000000000E+00 0.  1.
          1    1    3    3  501    0  0.17498841554E+02 -0.23380014412E+01 -0.30408248733E+03  0.30459454166E+03  0.00000000000E+00 0.  1.
         -3    1    1    2    0  502 -0.49107875631E+02  0.22748218121E+01 -0.13913644401E+03  0.14756594564E+03  0.00000000000E+00 0. -1.
<mgrwt>
<rscale>  1 0.30000000E+03</rscale>
<asrwt>0</asrwt>
<pdfrwt beam="1">  1       21 0.17901967E-01 0.30000000E+03</pdfrwt>
<pdfrwt beam="2">0</pdfrwt>
<totfact> 0.29598311E+03</totfact>
</mgrwt>
</event>
<event>
 6    1  0.1274196E-001  0.3000000E+03  0.7818608E-02  0.1093470E+00
         21   -1    0    0  501  502  0.00000000000E+00  0.00000000000E+00  0.23263336564E+01  0.23263336564E+01  0.00000000000E+00 0. -1.
         13   -1    0    0    0    0 -0.00000000000E+00 -0.00000000000E+00 -0.10000000000E+04  0.10000000000E+04  0.00000000000E+00 0.  1.
    9000005    2    1    2  501    0 -0.23387007075E+02  0.25783214605E+02 -0.84546879979E+03  0.84619162369E+03  0.33236005961E+01 0.  0.
         13    1    3    3    0    0 -0.54771781107E+01  0.57696480082E+01 -0.16169807784E+03  0.16189365860E+03  0.00000000000E+00 0.  1.
          3    1    3    3  501    0 -0.17909828964E+02  0.20013566597E+02 -0.68377072195E+03  0.68429796509E+03  0.00000000000E+00 0.  1.
         -1    1    1    2    0  502  0.23387007075E+02 -0.25783214605E+02 -0.15220486655E+03  0.15613470997E+03  0.00000000000E+00 0. -1.
<mgrwt>
<rscale>  1 0.30000000E+03</rscale>
<asrwt>0</asrwt>
<pdfrwt beam="1">  1       21 0.84594130E-02 0.30000000E+03</pdfrwt>
<pdfrwt beam="2">0</pdfrwt>
<totfact> 0.11578559E+04</totfact>
</mgrwt>
</event>
<event>
 6    1  0.1274196E-001  0.3000000E+03  0.7818608E-02  0.1093470E+00
         21   -1    0    0  501  502  0.00000000000E+00  0.00000000000E+00  0.21381756021E+01  0.21381756021E+01  0.00000000000E+00 0. -1.
         13   -1    0    0    0    0 -0.00000000000E+00 -0.00000000000E+00 -0.10000000000E+04  0.10000000000E+04  0.00000000000E+00 0.  1.
    9000005    2    1    2  501    0  0.10842911511E+02 -0.36682607495E+02 -0.78003322215E+03  0.78097650989E+03  0.30494132961E+01 0.  0.
         13    1    3    3    0    0  0.69162399458E+01 -0.22155791642E+02 -0.44326529269E+03  0.44387254160E+03  0.00000000000E+00 0.  1.
          1    1    3    3  501    0  0.39266715657E+01 -0.14526815854E+02 -0.33676792946E+03  0.33710396829E+03  0.00000000000E+00 0.  1.
         -1    1    1    2    0  502 -0.10842911511E+02  0.36682607495E+02 -0.21782860225E+03  0.22116166571E+03  0.00000000000E+00 0. -1.
<mgrwt>
<rscale>  1 0.30000000E+03</rscale>
<asrwt>0</asrwt>
<pdfrwt beam="1">  1       21 0.77752004E-02 0.30000000E+03</pdfrwt>
<pdfrwt beam="2">0</pdfrwt>
<totfact> 0.13429124E+04</totfact>
</mgrwt>
</event>
<event>
 6    1  0.1274196E-001  0.3000000E+03  0.7818608E-02  0.1093470E+00
         21   -1    0    0  501  502  0.00000000000E+00  0.00000000000E+00  0.59354868421E+01  0.59354868421E+01  0.00000000000E+00 0. -1.
         13   -1    0    0    0    0 -0.00000000000E+00 -0.00000000000E+00 -0.10000000000E+04  0.10000000000E+04  0.00000000000E+00 0.  1.
    9000005    2    1    2  501    0  0.63886091232E+02  0.28356491627E+02 -0.70816152192E+03  0.71161246078E+03  0.37456564487E+01 0.  0.
         13    1    3    3    0    0  0.52524181346E+01  0.26329055057E+01 -0.70522492973E+02  0.70766814983E+02  0.00000000000E+00 0.  1.
          1    1    3    3  501    0  0.58633673097E+02  0.25723586121E+02 -0.63763902895E+03  0.64084564580E+03  0.00000000000E+00 0.  1.
         -1    1    1    2    0  502 -0.63886091232E+02 -0.28356491627E+02 -0.28590299124E+03  0.29432302606E+03  0.00000000000E+00 0. -1.
<mgrwt>
<rscale>  1 0.30000000E+03</rscale>
<asrwt>0</asrwt>
<pdfrwt beam="1">  1       21 0.21583634E-01 0.30000000E+03</pdfrwt>
<pdfrwt beam="2">0</pdfrwt>
<totfact> 0.20734143E+03</totfact>
</mgrwt>
</event>
<event>
 6    1  0.1274196E-001  0.3000000E+03  0.7818608E-02  0.1093470E+00
         21   -1    0    0  501  502  0.00000000000E+00  0.00000000000E+00  0.12257497196E+01  0.12257497196E+01  0.00000000000E+00 0. -1.
         13   -1    0    0    0    0 -0.00000000000E+00 -0.00000000000E+00 -0.10000000000E+04  0.10000000000E+04  0.00000000000E+00 0.  1.
    9000005    2    1    2  501    0  0.30596821438E+02  0.90294431739E+01 -0.70376455436E+03  0.70449621459E+03  0.35597870913E+01 0.  0.
         13    1    3    3    0    0  0.10096628438E+01  0.29739670210E+00 -0.12732015964E+02  0.12775448891E+02  0.00000000000E+00 0.  1.
          3    1    3    3  501    0  0.29587158594E+02  0.87320464718E+01 -0.69103253839E+03  0.69172076570E+03  0.00000000000E+00 0.  1.
         -1    1    1    2    0  502 -0.30596821438E+02 -0.90294431739E+01 -0.29500969592E+03  0.29672953512E+03  0.00000000000E+00 0. -1.
<mgrwt>
<rscale>  1 0.30000000E+03</rscale>
<asrwt>0</asrwt>
<pdfrwt beam="1">  1       21 0.44572811E-02 0.30000000E+03</pdfrwt>
<pdfrwt beam="2">0</pdfrwt>
<totfact> 0.35020246E+04</totfact>
</mgrwt>
</event>
<event>
 6    1  0.1274196E-001  0.3000000E+03  0.7818608E-02  0.1093470E+00
         21   -1    0    0  501  502  0.00000000000E+00  0.00000000000E+00  0.13878460870E+01  0.13878460870E+01  0.00000000000E+00 0. -1.
         13   -1    0    0    0    0 -0.00000000000E+00 -0.00000000000E+00 -0.10000000000E+04  0.10000000000E+04  0.00000000000E+00 0.  1.
    9000005    2    1    2  501    0  0.34243981119E+02  0.11384966225E+02 -0.62203533499E+03  0.62308589229E+03  0.24090437718E+01 0.  0.
         13    1    3    3    0    0 -0.32815717741E-01 -0.24257313467E-01 -0.84652524810E+00  0.84750827976E+00  0.00000000000E+00 0.  1.
          1    1    3    3  501    0  0.34276796837E+02  0.11409223538E+02 -0.62118880975E+03  0.62223838401E+03  0.00000000000E+00 0.  1.
         -3    1    1    2    0  502 -0.34243981119E+02 -0.11384966225E+02 -0.37657681892E+03  0.37830195380E+03  0.00000000000E+00 0. -1.
<mgrwt>
<rscale>  1 0.30000000E+03</rscale>
<asrwt>0</asrwt>
<pdfrwt beam="1">  1       21 0.50467237E-02 0.30000000E+03</pdfrwt>
<pdfrwt beam="2">0</pdfrwt>
<totfact> 0.28351419E+04</totfact>
</mgrwt>
</event>
<event>
 6    1  0.1274196E-001  0.3000000E+03  0.7818608E-02  0.1093470E+00
         21   -1    0    0  501  502  0.00000000000E+00  0.00000000000E+00  0.11843330252E+01  0.11843330252E+01  0.00000000000E+00 0. -1.
         13   -1    0    0    0    0 -0.00000000000E+00 -0.00000000000E+00 -0.10000000000E+04  0.10000000000E+04  0.00000000000E+00 0.  1.
    9000005    2    1    2  501    0  0.14619091971E+02 -0.30219455291E+02 -0.39639449266E+03  0.39782854695E+03  0.34677988271E+01 0.  0.
         13    1    3    3    0    0  0.95363801038E+01 -0.17534176116E+02 -0.25170220550E+03  0.25249235658E+03  0.00000000000E+00 0.  1.
          1    1    3    3  501    0  0.50827118668E+01 -0.12685279175E+02 -0.14469228716E+03  0.14533619037E+03  0.00000000000E+00 0.  1.
         -1    1    1    2    0  502 -0.14619091971E+02  0.30219455291E+02 -0.60242117432E+03  0.60335578608E+03  0.00000000000E+00 0. -1.
<mgrwt>
<rscale>  1 0.30000000E+03</rscale>
<asrwt>0</asrwt>
<pdfrwt beam="1">  1       21 0.43066746E-02 0.30000000E+03</pdfrwt>
<pdfrwt beam="2">0</pdfrwt>
<totfact> 0.37119242E+04</totfact>
</mgrwt>
</event>
<event>
 6    1  0.1274196E-001  0.3000000E+03  0.7818608E-02  0.1093470E+00
         21   -1    0    0  501  502  0.00000000000E+00  0.00000000000E+00  0.21981286592E+01  0.21981286592E+01  0.00000000000E+00 0. -1.
         13   -1    0    0    0    0 -0.00000000000E+00 -0.00000000000E+00 -0.10000000000E+04  0.10000000000E+04  0.00000000000E+00 0.  1.
    9000005    2    1    2  501    0  0.31232065078E+02 -0.33014413783E+02 -0.37897603470E+03  0.38170573588E+03  0.33227274818E+01 0.  0.
         13    1    3    3    0    0  0.21645653409E+02 -0.24109869383E+02 -0.25923984661E+03  0.26125680505E+03  0.00000000000E+00 0.  1.
          3    1    3    3  501    0  0.95864116686E+01 -0.89045444004E+01 -0.11973618810E+03  0.12044893083E+03  0.00000000000E+00 0.  1.
         -3    1    1    2    0  502 -0.31232065078E+02  0.33014413783E+02 -0.61882583664E+03  0.62049239278E+03  0.00000000000E+00 0. -1.
<mgrwt>
<rscale>  1 0.30000000E+03</rscale>
<asrwt>0</asrwt>
<pdfrwt beam="1">  1       21 0.79932120E-02 0.30000000E+03</pdfrwt>
<pdfrwt beam="2">0</pdfrwt>
<totfact> 0.12792928E+04</totfact>
</mgrwt>
</event>
<event>
 6    1  0.1274196E-001  0.3000000E+03  0.7818608E-02  0.1093470E+00
         21   -1    0    0  501  502  0.00000000000E+00  0.00000000000E+00  0.64579456373E+01  0.64579456373E+01  0.00000000000E+00 0. -1.
         13   -1    0    0    0    0 -0.00000000000E+00 -0.00000000000E+00 -0.10000000000E+04  0.10000000000E+04  0.00000000000E+00 0.  1.
    9000005    2    1    2  501    0 -0.39946523830E+02 -0.46895522174E+02 -0.81945622843E+03  0.82179395468E+03  0.64713883835E+01 0.  0.
         13    1    3    3    0    0 -0.33817826374E+02 -0.41586241805E+02 -0.68538898655E+03  0.68748172614E+03  0.00000000000E+00 0.  1.
          1    1    3    3  501    0 -0.61286974553E+01 -0.53092803685E+01 -0.13406724188E+03  0.13431222854E+03  0.00000000000E+00 0.  1.
         -3    1    1    2    0  502  0.39946523830E+02  0.46895522174E+02 -0.17408582593E+03  0.18466399095E+03  0.00000000000E+00 0. -1.
<mgrwt>
<rscale>  1 0.30000000E+03</rscale>
<asrwt>0</asrwt>
<pdfrwt beam="1">  1       21 0.23483488E-01 0.30000000E+03</pdfrwt>
<pdfrwt beam="2">0</pdfrwt>
<totfact> 0.17618196E+03</totfact>
</mgrwt>
</event>
<event>
 6    1  0.1274196E-001  0.3000000E+03  0.7818608E-02  0.1093470E+00
         21   -1    0    0  501  502  0.00000000000E+00  0.00000000000E+00  0.14558120245E+01  0.14558120245E+01  0.00000000000E+00 0. -1.
         13   -1    0    0    0    0 -0.00000000000E+00 -0.00000000000E+00 -0.10000000000E+04  0.10000000000E+04  0.00000000000E+00 0.  1.
    9000005    2    1    2  501    0  0.32107681512E+02 -0.95466622547E+01 -0.73779406146E+03  0.73856292423E+03  0.36157927352E+01 0.  0.
         13    1    3    3    0    0  0.65176061889E+01 -0.16975771056E+01 -0.11933861501E+03  0.11952851539E+03  0.00000000000E+00 0.  1.
          3    1    3    3  501    0  0.25590075323E+02 -0.78490851491E+01 -0.61845544645E+03  0.61903440884E+03  0.00000000000E+00 0.  1.
         -1    1    1    2    0  502 -0.32107681512E+02  0.95466622547E+01 -0.26075012652E+03  0.26289288779E+03  0.00000000000E+00 0. -1.
<mgrwt>
<rscale>  1 0.30000000E+03</rscale>
<asrwt>0</asrwt>
<pdfrwt beam="1">  1       21 0.52938731E-02 0.30000000E+03</pdfrwt>
<pdfrwt beam="2">0</pdfrwt>
<totfact> 0.26128502E+04</totfact>
</mgrwt>
</event>
<event>
 6    1  0.1274196E-001  0.3000000E+03  0.7818608E-02  0.1093470E+00
         21   -1    0    0  501  502  0.00000000000E+00  0.00000000000E+00  0.98849249723E+00  0.98849249723E+00  0.00000000000E+00 0. -1.
         13   -1    0    0    0    0 -0.00000000000E+00 -0.00000000000E+00 -0.10000000000E+04  0.10000000000E+04  0.00000000000E+00 0.  1.
    9000005    2    1    2  501    0  0.24257134311E+02 -0.19829385544E+02 -0.50137199299E+03  0.50236368415E+03  0.37125059877E+01 0.  0.
         13    1    3    3    0    0  0.40098780534E+01 -0.18916216860E+01 -0.60035032096E+02  0.60198525176E+02  0.00000000000E+00 0.  1.
          1    1    3    3  501    0  0.20247256257E+02 -0.17937763858E+02 -0.44133696089E+03  0.44216515897E+03  0.00000000000E+00 0.  1.
         -1    1    1    2    0  502 -0.24257134311E+02  0.19829385544E+02 -0.49763951452E+03  0.49862480835E+03  0.00000000000E+00 0. -1.
<mgrwt>
<rscale>  1 0.30000000E+03</rscale>
<asrwt>0</asrwt>
<pdfrwt beam="1">  1       21 0.35945258E-02 0.30000000E+03</pdfrwt>
<pdfrwt beam="2">0</pdfrwt>
<totfact> 0.50318555E+04</totfact>
</mgrwt>
</event>
<event>
 6    1  0.1274196E-001  0.3000000E+03  0.7818608E-02  0.1093470E+00
         21   -1    0    0  501  502  0.00000000000E+00  0.00000000000E+00  0.24347933389E+01  0.24347933389E+01  0.00000000000E+00 0. -1.
         13   -1    0    0    0    0 -0.00000000000E+00 -0.00000000000E+00 -0.10000000000E+04  0.10000000000E+04  0.00000000000E+00 0.  1.
    9000005    2    1    2  501    0 -0.39152855888E+02  0.26898975959E+02 -0.36366515875E+03  0.36675738161E+03  0.14588523349E+01 0.  0.
         13    1    3    3    0    0 -0.78878675813E+01  0.47734082496E+01 -0.68855859860E+02  0.69470377272E+02  0.00000000000E+00 0.  1.
          1    1    3    3  501    0 -0.31264988306E+02  0.22125567709E+02 -0.29480929889E+03  0.29728700434E+03  0.00000000000E+00 0.  1.
         -3    1    1    2    0  502  0.39152855888E+02 -0.26898975959E+02 -0.63390004792E+03  0.63567741173E+03  0.00000000000E+00 0. -1.
<mgrwt>
<rscale>  1 0.30000000E+03</rscale>
<asrwt>0</asrwt>
<pdfrwt beam="1">  1       21 0.88538126E-02 0.30000000E+03</pdfrwt>
<pdfrwt beam="2">0</pdfrwt>
<totfact> 0.10683377E+04</totfact>
</mgrwt>
</event>
<event>
 6    1  0.1274196E-001  0.3000000E+03  0.7818608E-02  0.1093470E+00
         21   -1    0    0  501  502  0.00000000000E+00  0.00000000000E+00  0.41115609639E+01  0.41115609639E+01  0.00000000000E+00 0. -1.
         13   -1    0    0    0    0 -0.00000000000E+00 -0.00000000000E+00 -0.10000000000E+04  0.10000000000E+04  0.00000000000E+00 0.  1.
    9000005    2    1    2  501    0 -0.35777940631E+00 -0.37729683969E+02 -0.90381479912E+03  0.90460672578E+03  0.29120698772E+01 0.  0.
         13    1    3    3    0    0 -0.15358183223E+00 -0.33840512148E+02 -0.78759090744E+03  0.78831760182E+03  0.00000000000E+00 0.  1.
          1    1    3    3  501    0 -0.20419757407E+00 -0.38891718207E+01 -0.11622389168E+03  0.11628912396E+03  0.00000000000E+00 0.  1.
         -1    1    1    2    0  502  0.35777940631E+00  0.37729683969E+02 -0.92073639916E+02  0.99504835189E+02  0.00000000000E+00 0. -1.
<mgrwt>
<rscale>  1 0.30000000E+03</rscale>
<asrwt>0</asrwt>
<pdfrwt beam="1">  1       21 0.14951162E-01 0.30000000E+03</pdfrwt>
<pdfrwt beam="2">0</pdfrwt>
<totfact> 0.41429630E+03</totfact>
</mgrwt>
</event>
<event>
 6    1  0.1274196E-001  0.3000000E+03  0.7818608E-02  0.1093470E+00
         21   -1    0    0  501  502  0.00000000000E+00  0.00000000000E+00  0.51349935488E+01  0.51349935488E+01  0.00000000000E+00 0. -1.
         13   -1    0    0    0    0 -0.00000000000E+00 -0.00000000000E+00 -0.10000000000E+04  0.10000000000E+04  0.00000000000E+00 0.  1.
    9000005    2    1    2  501    0 -0.19215542030E+01 -0.57359010035E+02 -0.79830227582E+03  0.80036523144E+03  0.20571117040E+01 0.  0.
         13    1    3    3    0    0 -0.23056966123E+01 -0.42722271117E+02 -0.59197251753E+03  0.59351661324E+03  0.00000000000E+00 0.  1.
          1    1    3    3  501    0  0.38414240936E+00 -0.14636738918E+02 -0.20632975829E+03  0.20684861820E+03  0.00000000000E+00 0.  1.
         -3    1    1    2    0  502  0.19215542030E+01  0.57359010035E+02 -0.19656273063E+03  0.20476976211E+03  0.00000000000E+00 0. -1.
<mgrwt>
<rscale>  1 0.30000000E+03</rscale>
<asrwt>0</asrwt>
<pdfrwt beam="1">  1       21 0.18672743E-01 0.30000000E+03</pdfrwt>
<pdfrwt beam="2">0</pdfrwt>
<totfact> 0.27335457E+03</totfact>
</mgrwt>
</event>
<event>
 6    1  0.1274196E-001  0.3000000E+03  0.7818608E-02  0.1093470E+00
         21   -1    0    0  501  502  0.00000000000E+00  0.00000000000E+00  0.21586009940E+01  0.21586009940E+01  0.00000000000E+00 0. -1.
         13   -1    0    0    0    0 -0.00000000000E+00 -0.00000000000E+00 -0.10000000000E+04  0.10000000000E+04  0.00000000000E+00 0.  1.
    9000005    2    1    2  501    0  0.39001347483E+02 -0.24851765725E+02 -0.48475142070E+03  0.48698868611E+03  0.59434974450E+01 0.  0.
         13    1    3    3    0    0  0.30697434000E+02 -0.18380483206E+02 -0.34882405703E+03  0.35065424192E+03  0.00000000000E+00 0.  1.
          3    1    3    3  501    0  0.83039134835E+01 -0.64712825191E+01 -0.13592736367E+03  0.13633444418E+03  0.00000000000E+00 0.  1.
         -1    1    1    2    0  502 -0.39001347483E+02  0.24851765725E+02 -0.51308997831E+03  0.51516991488E+03  0.00000000000E+00 0. -1.
<mgrwt>
<rscale>  1 0.30000000E+03</rscale>
<asrwt>0</asrwt>
<pdfrwt beam="1">  1       21 0.78494747E-02 0.30000000E+03</pdfrwt>
<pdfrwt beam="2">0</pdfrwt>
<totfact> 0.13207012E+04</totfact>
</mgrwt>
</event>
<event>
 6    1  0.1274196E-001  0.3000000E+03  0.7818608E-02  0.1093470E+00
         21   -1    0    0  501  502  0.00000000000E+00  0.00000000000E+00  0.99354165782E+00  0.99354165782E+00  0.00000000000E+00 0. -1.
         13   -1    0    0    0    0 -0.00000000000E+00 -0.00000000000E+00 -0.10000000000E+04  0.10000000000E+04  0.00000000000E+00 0.  1.
    9000005    2    1    2  501    0  0.21889105776E+02 -0.20977885039E+02 -0.60317238784E+03  0.60400007070E+03  0.89415513926E+01 0.  0.
         13    1    3    3    0    0  0.10166436526E+02 -0.72859471670E+01 -0.17377796628E+03  0.17422750363E+03  0.00000000000E+00 0.  1.
          1    1    3    3  501    0  0.11722669250E+02 -0.13691937872E+02 -0.42939442156E+03  0.42977256707E+03  0.00000000000E+00 0.  1.
         -1    1    1    2    0  502 -0.21889105776E+02  0.20977885039E+02 -0.39583407050E+03  0.39699347096E+03  0.00000000000E+00 0. -1.
<mgrwt>
<rscale>  1 0.30000000E+03</rscale>
<asrwt>0</asrwt>
<pdfrwt beam="1">  1       21 0.36128864E-02 0.30000000E+03</pdfrwt>
<pdfrwt beam="2">0</pdfrwt>
<totfact> 0.49890453E+04</totfact>
</mgrwt>
</event>
<event>
 6    1  0.1274196E-001  0.3000000E+03  0.7818608E-02  0.1093470E+00
         21   -1    0    0  501  502  0.00000000000E+00  0.00000000000E+00  0.20936478950E+01  0.20936478950E+01  0.00000000000E+00 0. -1.
         13   -1    0    0    0    0 -0.00000000000E+00 -0.00000000000E+00 -0.10000000000E+04  0.10000000000E+04  0.00000000000E+00 0.  1.
    9000005    2    1    2  501    0 -0.28319553960E+02 -0.12012374422E+02 -0.86961848034E+03  0.87016915314E+03  0.34292043863E+01 0.  0.
         13    1    3    3    0    0 -0.15464063649E+02 -0.83770797620E+01 -0.50234987951E+03  0.50265765107E+03  0.00000000000E+00 0.  1.
          3    1    3    3  501    0 -0.12855490311E+02 -0.36352946597E+01 -0.36726860083E+03  0.36751150207E+03  0.00000000000E+00 0.  1.
         -1    1    1    2    0  502  0.28319553960E+02  0.12012374422E+02 -0.12828787176E+03  0.13192449476E+03  0.00000000000E+00 0. -1.
<mgrwt>
<rscale>  1 0.30000000E+03</rscale>
<asrwt>0</asrwt>
<pdfrwt beam="1">  1       21 0.76132811E-02 0.30000000E+03</pdfrwt>
<pdfrwt beam="2">0</pdfrwt>
<totfact> 0.13933770E+04</totfact>
</mgrwt>
</event>
<event>
 6    1  0.1274196E-001  0.3000000E+03  0.7818608E-02  0.1093470E+00
         21   -1    0    0  501  502  0.00000000000E+00  0.00000000000E+00  0.19499222942E+01  0.19499222942E+01  0.00000000000E+00 0. -1.
         13   -1    0    0    0    0 -0.00000000000E+00 -0.00000000000E+00 -0.10000000000E+04  0.10000000000E+04  0.00000000000E+00 0.  1.
    9000005    2    1    2  501    0 -0.46450113719E+01  0.41526812014E+02 -0.65923419090E+03  0.66056706186E+03  0.36155933485E+01 0.  0.
         13    1    3    3    0    0 -0.38490241718E+01  0.39209176182E+02 -0.62977780425E+03  0.63100892007E+03  0.00000000000E+00 0.  1.
          3    1    3    3  501    0 -0.79598720018E+00  0.23176358324E+01 -0.29456386644E+02  0.29558141782E+02  0.00000000000E+00 0.  1.
         -1    1    1    2    0  502  0.46450113719E+01 -0.41526812014E+02 -0.33881588681E+03  0.34138286044E+03  0.00000000000E+00 0. -1.
<mgrwt>
<rscale>  1 0.30000000E+03</rscale>
<asrwt>0</asrwt>
<pdfrwt beam="1">  1       21 0.70906415E-02 0.30000000E+03</pdfrwt>
<pdfrwt beam="2">0</pdfrwt>
<totfact> 0.15777837E+04</totfact>
</mgrwt>
</event>
<event>
 6    1  0.1274196E-001  0.3000000E+03  0.7818608E-02  0.1093470E+00
         21   -1    0    0  501  502  0.00000000000E+00  0.00000000000E+00  0.91452628204E+01  0.91452628204E+01  0.00000000000E+00 0. -1.
         13   -1    0    0    0    0 -0.00000000000E+00 -0.00000000000E+00 -0.10000000000E+04  0.10000000000E+04  0.00000000000E+00 0.  1.
    9000005    2    1    2  501    0  0.41327031423E+02  0.47826129779E+02 -0.87401841236E+03  0.87630705667E+03  0.32573317223E+01 0.  0.
         13    1    3    3    0    0  0.21326841122E+00 -0.10887902243E-01 -0.26399719506E+01  0.26485946956E+01  0.00000000000E+00 0.  1.
          1    1    3    3  501    0  0.41113763011E+02  0.47837017681E+02 -0.87137844041E+03  0.87365846197E+03  0.00000000000E+00 0.  1.
         -3    1    1    2    0  502 -0.41327031423E+02 -0.47826129779E+02 -0.11683632482E+03  0.13283820615E+03  0.00000000000E+00 0. -1.
<mgrwt>
<rscale>  1 0.30000000E+03</rscale>
<asrwt>0</asrwt>
<pdfrwt beam="1">  1       21 0.33255571E-01 0.30000000E+03</pdfrwt>
<pdfrwt beam="2">0</pdfrwt>
<totfact> 0.88325469E+02</totfact>
</mgrwt>
</event>
<event>
 6    1  0.1274196E-001  0.3000000E+03  0.7818608E-02  0.1093470E+00
         21   -1    0    0  501  502  0.00000000000E+00  0.00000000000E+00  0.15543802543E+01  0.15543802543E+01  0.00000000000E+00 0. -1.
         13   -1    0    0    0    0 -0.00000000000E+00 -0.00000000000E+00 -0.10000000000E+04  0.10000000000E+04  0.00000000000E+00 0.  1.
    9000005    2    1    2  501    0 -0.38991810530E+02  0.25100481724E-02 -0.42901044726E+03  0.43078579584E+03  0.24651047556E+01 0.  0.
         13    1    3    3    0    0 -0.19282872119E+02 -0.46181798131E+00 -0.19957650047E+03  0.20050641379E+03  0.00000000000E+00 0.  1.
          3    1    3    3  501    0 -0.19708938411E+02  0.46432802948E+00 -0.22943394680E+03  0.23027938205E+03  0.00000000000E+00 0.  1.
         -3    1    1    2    0  502  0.38991810530E+02 -0.25100481724E-02 -0.56943517248E+03  0.57076858441E+03  0.00000000000E+00 0. -1.
<mgrwt>
<rscale>  1 0.30000000E+03</rscale>
<asrwt>0</asrwt>
<pdfrwt beam="1">  1       21 0.56523038E-02 0.30000000E+03</pdfrwt>
<pdfrwt beam="2">0</pdfrwt>
<totfact> 0.23353151E+04</totfact>
</mgrwt>
</event>
<event>
 6    1  0.1274196E-001  0.3000000E+03  0.7818608E-02  0.1093470E+00
         21   -1    0    0  501  502  0.00000000000E+00  0.00000000000E+00  0.38383208652E+01  0.38383208652E+01  0.00000000000E+00 0. -1.
         13   -1    0    0    0    0 -0.00000000000E+00 -0.00000000000E+00 -0.10000000000E+04  0.10000000000E+04  0.00000000000E+00 0.  1.
    9000005    2    1    2  501    0 -0.13739679360E+02 -0.40785907741E+02 -0.85896344162E+03  0.86004810758E+03  0.35048901757E+01 0.  0.
         13    1    3    3    0    0 -0.36523675305E+01 -0.94761827805E+01 -0.23236813378E+03  0.23258995555E+03  0.00000000000E+00 0.  1.
          3    1    3    3  501    0 -0.10087311829E+02 -0.31309724961E+02 -0.62659530784E+03  0.62745815202E+03  0.00000000000E+00 0.  1.
         -3    1    1    2    0  502  0.13739679360E+02  0.40785907741E+02 -0.13719823752E+03  0.14379021329E+03  0.00000000000E+00 0. -1.
<mgrwt>
<rscale>  1 0.30000000E+03</rscale>
<asrwt>0</asrwt>
<pdfrwt beam="1">  1       21 0.13957560E-01 0.30000000E+03</pdfrwt>
<pdfrwt beam="2">0</pdfrwt>
<totfact> 0.47028337E+03</totfact>
</mgrwt>
</event>
<event>
 6    1  0.1274196E-001  0.3000000E+03  0.7818608E-02  0.1093470E+00
         21   -1    0    0  501  502  0.00000000000E+00  0.00000000000E+00  0.37807298339E+01  0.37807298339E+01  0.00000000000E+00 0. -1.
         13   -1    0    0    0    0 -0.00000000000E+00 -0.00000000000E+00 -0.10000000000E+04  0.10000000000E+04  0.00000000000E+00 0.  1.
    9000005    2    1    2  501    0 -0.51075332137E+02  0.86548713386E+01 -0.76818302687E+03  0.76993436017E+03  0.31874504767E+01 0.  0.
         13    1    3    3    0    0 -0.76789104730E+01  0.24160646455E+01 -0.12438801708E+03  0.12464823235E+03  0.00000000000E+00 0.  1.
          1    1    3    3  501    0 -0.43396421664E+02  0.62388066931E+01 -0.64379500979E+03  0.64528612782E+03  0.00000000000E+00 0.  1.
         -1    1    1    2    0  502  0.51075332137E+02 -0.86548713386E+01 -0.22803624329E+03  0.23384636967E+03  0.00000000000E+00 0. -1.
<mgrwt>
<rscale>  1 0.30000000E+03</rscale>
<asrwt>0</asrwt>
<pdfrwt beam="1">  1       21 0.13748137E-01 0.30000000E+03</pdfrwt>
<pdfrwt beam="2">0</pdfrwt>
<totfact> 0.48351636E+03</totfact>
</mgrwt>
</event>
<event>
 6    1  0.1274196E-001  0.3000000E+03  0.7818608E-02  0.1093470E+00
         21   -1    0    0  501  502  0.00000000000E+00  0.00000000000E+00  0.19222358481E+01  0.19222358481E+01  0.00000000000E+00 0. -1.
         13   -1    0    0    0    0 -0.00000000000E+00 -0.00000000000E+00 -0.10000000000E+04  0.10000000000E+04  0.00000000000E+00 0.  1.
    9000005    2    1    2  501    0 -0.39524750942E+02  0.10646904306E+02 -0.67699814350E+03  0.67824386878E+03  0.35632471475E+01 0.  0.
         13    1    3    3    0    0 -0.34421792868E+01  0.20116827299E+01 -0.65375937251E+02  0.65497394124E+02  0.00000000000E+00 0.  1.
          3    1    3    3  501    0 -0.36082571655E+02  0.86352215763E+01 -0.61162220625E+03  0.61274647466E+03  0.00000000000E+00 0.  1.
         -3    1    1    2    0  502  0.39524750942E+02 -0.10646904306E+02 -0.32107962065E+03  0.32367836706E+03  0.00000000000E+00 0. -1.
<mgrwt>
<rscale>  1 0.30000000E+03</rscale>
<asrwt>0</asrwt>
<pdfrwt beam="1">  1       21 0.69899633E-02 0.30000000E+03</pdfrwt>
<pdfrwt beam="2">0</pdfrwt>
<totfact> 0.16175626E+04</totfact>
</mgrwt>
</event>
<event>
 6    1  0.1274196E-001  0.3000000E+03  0.7818608E-02  0.1093470E+00
         21   -1    0    0  501  502  0.00000000000E+00  0.00000000000E+00  0.27741110448E+01  0.27741110448E+01  0.00000000000E+00 0. -1.
         13   -1    0    0    0    0 -0.00000000000E+00 -0.00000000000E+00 -0.10000000000E+04  0.10000000000E+04  0.00000000000E+00 0.  1.
    9000005    2    1    2  501    0  0.80774118095E+01 -0.34113359540E+02 -0.87263162358E+03  0.87334190159E+03  0.33407657344E+01 0.  0.
         13    1    3    3    0    0  0.45460381357E+01 -0.24763818445E+02 -0.60460990799E+03  0.60513391411E+03  0.00000000000E+00 0.  1.
          3    1    3    3  501    0  0.35313736738E+01 -0.93495410949E+01 -0.26802171559E+03  0.26820798747E+03  0.00000000000E+00 0.  1.
         -1    1    1    2    0  502 -0.80774118095E+01  0.34113359540E+02 -0.12459426538E+03  0.12943220946E+03  0.00000000000E+00 0. -1.
<mgrwt>
<rscale>  1 0.30000000E+03</rscale>
<asrwt>0</asrwt>
<pdfrwt beam="1">  1       21 0.10087698E-01 0.30000000E+03</pdfrwt>
<pdfrwt beam="2">0</pdfrwt>
<totfact> 0.84699788E+03</totfact>
</mgrwt>
</event>
<event>
 6    1  0.1274196E-001  0.3000000E+03  0.7818608E-02  0.1093470E+00
         21   -1    0    0  501  502  0.00000000000E+00  0.00000000000E+00  0.33807913704E+01  0.33807913704E+01  0.00000000000E+00 0. -1.
         13   -1    0    0    0    0 -0.00000000000E+00 -0.00000000000E+00 -0.10000000000E+04  0.10000000000E+04  0.00000000000E+00 0.  1.
    9000005    2    1    2  501    0  0.33259305427E+02  0.27722116780E+01 -0.90902472329E+03  0.90964360336E+03  0.34162870467E+01 0.  0.
         13    1    3    3    0    0  0.21390772871E+00  0.30950981654E+00 -0.66276483138E+01  0.66383186888E+01  0.00000000000E+00 0.  1.
          3    1    3    3  501    0  0.33045397699E+02  0.24627018614E+01 -0.90239707498E+03  0.90300528467E+03  0.00000000000E+00 0.  1.
         -3    1    1    2    0  502 -0.33259305427E+02 -0.27722116780E+01 -0.87594485337E+02  0.93737188013E+02  0.00000000000E+00 0. -1.
<mgrwt>
<rscale>  1 0.30000000E+03</rscale>
<asrwt>0</asrwt>
<pdfrwt beam="1">  1       21 0.12293813E-01 0.30000000E+03</pdfrwt>
<pdfrwt beam="2">0</pdfrwt>
<totfact> 0.59305739E+03</totfact>
</mgrwt>
</event>
<event>
 6    1  0.1274196E-001  0.3000000E+03  0.7818608E-02  0.1093470E+00
         21   -1    0    0  501  502  0.00000000000E+00  0.00000000000E+00  0.10427221532E+01  0.10427221532E+01  0.00000000000E+00 0. -1.
         13   -1    0    0    0    0 -0.00000000000E+00 -0.00000000000E+00 -0.10000000000E+04  0.10000000000E+04  0.00000000000E+00 0.  1.
    9000005    2    1    2  501    0 -0.10367227686E+01 -0.31957985672E+02 -0.44655051710E+03  0.44771134136E+03  0.39614675852E+01 0.  0.
         13    1    3    3    0    0 -0.13729052100E+01 -0.31798333400E+02 -0.44279977306E+03  0.44394217856E+03  0.00000000000E+00 0.  1.
          3    1    3    3  501    0  0.33618244141E+00 -0.15965227174E+00 -0.37507440314E+01  0.37691628077E+01  0.00000000000E+00 0.  1.
         -3    1    1    2    0  502  0.10367227686E+01  0.31957985672E+02 -0.55240676075E+03  0.55333138079E+03  0.00000000000E+00 0. -1.
<mgrwt>
<rscale>  1 0.30000000E+03</rscale>
<asrwt>0</asrwt>
<pdfrwt beam="1">  1       21 0.37917249E-02 0.30000000E+03</pdfrwt>
<pdfrwt beam="2">0</pdfrwt>
<totfact> 0.46004268E+04</totfact>
</mgrwt>
</event>
<event>
 6    1  0.1274196E-001  0.3000000E+03  0.7818608E-02  0.1093470E+00
         21   -1    0    0  501  502  0.00000000000E+00  0.00000000000E+00  0.52598674815E+01  0.52598674815E+01  0.00000000000E+00 0. -1.
         13   -1    0    0    0    0 -0.00000000000E+00 -0.00000000000E+00 -0.10000000000E+04  0.10000000000E+04  0.00000000000E+00 0.  1.
    9000005    2    1    2  501    0 -0.33119688949E+02  0.10234535612E+02 -0.93882806462E+03  0.93947370745E+03  0.33245380573E+01 0.  0.
         13    1    3    3    0    0 -0.25191930152E+02  0.92065739810E+01 -0.71448018767E+03  0.71498344941E+03  0.00000000000E+00 0.  1.
          1    1    3    3  501    0 -0.79277587969E+01  0.10279616313E+01 -0.22434787694E+03  0.22449025804E+03  0.00000000000E+00 0.  1.
         -1    1    1    2    0  502  0.33119688949E+02 -0.10234535612E+02 -0.55912067902E+02  0.65786160036E+02  0.00000000000E+00 0. -1.
<mgrwt>
<rscale>  1 0.30000000E+03</rscale>
<asrwt>0</asrwt>
<pdfrwt beam="1">  1       21 0.19126831E-01 0.30000000E+03</pdfrwt>
<pdfrwt beam="2">0</pdfrwt>
<totfact> 0.26119286E+03</totfact>
</mgrwt>
</event>
<event>
 6    1  0.1274196E-001  0.3000000E+03  0.7818608E-02  0.1093470E+00
         21   -1    0    0  501  502  0.00000000000E+00  0.00000000000E+00  0.16684278505E+01  0.16684278505E+01  0.00000000000E+00 0. -1.
         13   -1    0    0    0    0 -0.00000000000E+00 -0.00000000000E+00 -0.10000000000E+04  0.10000000000E+04  0.00000000000E+00 0.  1.
    9000005    2    1    2  501    0  0.36998332977E+02 -0.14168683923E+01 -0.70910156630E+03  0.71007816662E+03  0.38842278869E+01 0.  0.
         13    1    3    3    0    0  0.33930531065E+02 -0.98284509846E+00 -0.66667618593E+03  0.66753979942E+03  0.00000000000E+00 0.  1.
          3    1    3    3  501    0  0.30678019119E+01 -0.43402329383E+00 -0.42425380366E+02  0.42538367199E+02  0.00000000000E+00 0.  1.
         -3    1    1    2    0  502 -0.36998332977E+02  0.14168683923E+01 -0.28923000585E+03  0.29159026123E+03  0.00000000000E+00 0. -1.
<mgrwt>
<rscale>  1 0.30000000E+03</rscale>
<asrwt>0</asrwt>
<pdfrwt beam="1">  1       21 0.60670232E-02 0.30000000E+03</pdfrwt>
<pdfrwt beam="2">0</pdfrwt>
<totfact> 0.20671721E+04</totfact>
</mgrwt>
</event>
<event>
 6    1  0.1274196E-001  0.3000000E+03  0.7818608E-02  0.1093470E+00
         21   -1    0    0  501  502  0.00000000000E+00  0.00000000000E+00  0.11845725303E+01  0.11845725303E+01  0.00000000000E+00 0. -1.
         13   -1    0    0    0    0 -0.00000000000E+00 -0.00000000000E+00 -0.10000000000E+04  0.10000000000E+04  0.00000000000E+00 0.  1.
    9000005    2    1    2  501    0  0.33820969287E+02  0.44039389887E+01 -0.55969222481E+03  0.56073884403E+03  0.30679058765E+01 0.  0.
         13    1    3    3    0    0  0.26218475564E+02  0.34397762190E+01 -0.45369870743E+03  0.45446865419E+03  0.00000000000E+00 0.  1.
          1    1    3    3  501    0  0.76024937237E+01  0.96416276974E+00 -0.10599351738E+03  0.10627018983E+03  0.00000000000E+00 0.  1.
         -1    1    1    2    0  502 -0.33820969287E+02 -0.44039389887E+01 -0.43912320266E+03  0.44044572850E+03  0.00000000000E+00 0. -1.
<mgrwt>
<rscale>  1 0.30000000E+03</rscale>
<asrwt>0</asrwt>
<pdfrwt beam="1">  1       21 0.43075456E-02 0.30000000E+03</pdfrwt>
<pdfrwt beam="2">0</pdfrwt>
<totfact> 0.37106549E+04</totfact>
</mgrwt>
</event>
<event>
 6    1  0.1274196E-001  0.3000000E+03  0.7818608E-02  0.1093470E+00
         21   -1    0    0  501  502  0.00000000000E+00  0.00000000000E+00  0.12336526036E+01  0.12336526036E+01  0.00000000000E+00 0. -1.
         13   -1    0    0    0    0 -0.00000000000E+00 -0.00000000000E+00 -0.10000000000E+04  0.10000000000E+04  0.00000000000E+00 0.  1.
    9000005    2    1    2  501    0  0.29789584338E+02 -0.10611973047E+02 -0.71438767900E+03  0.71510210882E+03  0.46083435247E+01 0.  0.
         13    1    3    3    0    0  0.17236471222E+01  0.47542271059E-01 -0.23932329272E+02  0.23994366090E+02  0.00000000000E+00 0.  1.
          1    1    3    3  501    0  0.28065937216E+02 -0.10659515318E+02 -0.69045534973E+03  0.69110774273E+03  0.00000000000E+00 0.  1.
         -3    1    1    2    0  502 -0.29789584338E+02  0.10611973047E+02 -0.28437866840E+03  0.28613154378E+03  0.00000000000E+00 0. -1.
<mgrwt>
<rscale>  1 0.30000000E+03</rscale>
<asrwt>0</asrwt>
<pdfrwt beam="1">  1       21 0.44860189E-02 0.30000000E+03</pdfrwt>
<pdfrwt beam="2">0</pdfrwt>
<totfact> 0.34640598E+04</totfact>
</mgrwt>
</event>
<event>
 6    1  0.1274196E-001  0.3000000E+03  0.7818608E-02  0.1093470E+00
         21   -1    0    0  501  502  0.00000000000E+00  0.00000000000E+00  0.10400237485E+01  0.10400237485E+01  0.00000000000E+00 0. -1.
         13   -1    0    0    0    0 -0.00000000000E+00 -0.00000000000E+00 -0.10000000000E+04  0.10000000000E+04  0.00000000000E+00 0.  1.
    9000005    2    1    2  501    0  0.13525107522E+01 -0.32135978595E+02 -0.51230368753E+03  0.51332197635E+03  0.31357203201E+01 0.  0.
         13    1    3    3    0    0  0.11881780309E+01 -0.15293581696E+02 -0.22095613591E+03  0.22148796672E+03  0.00000000000E+00 0.  1.
          3    1    3    3  501    0  0.16433272124E+00 -0.16842396899E+02 -0.29134755162E+03  0.29183400962E+03  0.00000000000E+00 0.  1.
         -1    1    1    2    0  502 -0.13525107522E+01  0.32135978595E+02 -0.48665628873E+03  0.48771804740E+03  0.00000000000E+00 0. -1.
<mgrwt>
<rscale>  1 0.30000000E+03</rscale>
<asrwt>0</asrwt>
<pdfrwt beam="1">  1       21 0.37819125E-02 0.30000000E+03</pdfrwt>
<pdfrwt beam="2">0</pdfrwt>
<totfact> 0.46204960E+04</totfact>
</mgrwt>
</event>
<event>
 6    1  0.1274196E-001  0.3000000E+03  0.7818608E-02  0.1093470E+00
         21   -1    0    0  501  502  0.00000000000E+00  0.00000000000E+00  0.89506757910E+01  0.89506757910E+01  0.00000000000E+00 0. -1.
         13   -1    0    0    0    0 -0.00000000000E+00 -0.00000000000E+00 -0.10000000000E+04  0.10000000000E+04  0.00000000000E+00 0.  1.
    9000005    2    1    2  501    0 -0.76792298512E+02  0.35132383136E+01 -0.78946441419E+03  0.79320574329E+03  0.34481813836E+01 0.  0.
         13    1    3    3    0    0 -0.15539554051E+02  0.20406633080E+01 -0.16500274087E+03  0.16574542691E+03  0.00000000000E+00 0.  1.
          1    1    3    3  501    0 -0.61252744461E+02  0.14725750055E+01 -0.62446167332E+03  0.62746031637E+03  0.00000000000E+00 0.  1.
         -1    1    1    2    0  502  0.76792298512E+02 -0.35132383136E+01 -0.20158491002E+03  0.21574493250E+03  0.00000000000E+00 0. -1.
<mgrwt>
<rscale>  1 0.30000000E+03</rscale>
<asrwt>0</asrwt>
<pdfrwt beam="1">  1       21 0.32547981E-01 0.30000000E+03</pdfrwt>
<pdfrwt beam="2">0</pdfrwt>
<totfact> 0.92269777E+02</totfact>
</mgrwt>
</event>
<event>
 6    1  0.1274196E-001  0.3000000E+03  0.7818608E-02  0.1093470E+00
         21   -1    0    0  501  502  0.00000000000E+00  0.00000000000E+00  0.11247124629E+01  0.11247124629E+01  0.00000000000E+00 0. -1.
         13   -1    0    0    0    0 -0.00000000000E+00 -0.00000000000E+00 -0.10000000000E+04  0.10000000000E+04  0.00000000000E+00 0.  1.
    9000005    2    1    2  501    0  0.30933631733E+02  0.11617426777E+02 -0.57896520712E+03  0.57991653376E+03  0.32589701248E+01 0.  0.
         13    1    3    3    0    0  0.27406406806E+02  0.11249374273E+02 -0.52449027882E+03  0.52532629111E+03  0.00000000000E+00 0.  1.
          3    1    3    3  501    0  0.35272249272E+01  0.36805250449E+00 -0.54474928307E+02  0.54590242648E+02  0.00000000000E+00 0.  1.
         -3    1    1    2    0  502 -0.30933631733E+02 -0.11617426777E+02 -0.41991008041E+03  0.42120817871E+03  0.00000000000E+00 0. -1.
<mgrwt>
<rscale>  1 0.30000000E+03</rscale>
<asrwt>0</asrwt>
<pdfrwt beam="1">  1       21 0.40898721E-02 0.30000000E+03</pdfrwt>
<pdfrwt beam="2">0</pdfrwt>
<totfact> 0.40502188E+04</totfact>
</mgrwt>
</event>
<event>
 6    1  0.1274196E-001  0.3000000E+03  0.7818608E-02  0.1093470E+00
         21   -1    0    0  501  502  0.00000000000E+00  0.00000000000E+00  0.92021442283E+00  0.92021442283E+00  0.00000000000E+00 0. -1.
         13   -1    0    0    0    0 -0.00000000000E+00 -0.00000000000E+00 -0.10000000000E+04  0.10000000000E+04  0.00000000000E+00 0.  1.
    9000005    2    1    2  501    0  0.28418441714E+02 -0.99171876907E+01 -0.46528975433E+03  0.46628224729E+03  0.43151143780E+01 0.  0.
         13    1    3    3    0    0  0.18437066397E+02 -0.80293207355E+01 -0.28739697504E+03  0.28809966448E+03  0.00000000000E+00 0.  1.
          3    1    3    3  501    0  0.99813753177E+01 -0.18878669552E+01 -0.17789277929E+03  0.17818258281E+03  0.00000000000E+00 0.  1.
         -3    1    1    2    0  502 -0.28418441714E+02  0.99171876907E+01 -0.53379003125E+03  0.53463796713E+03  0.00000000000E+00 0. -1.
<mgrwt>
<rscale>  1 0.30000000E+03</rscale>
<asrwt>0</asrwt>
<pdfrwt beam="1">  1       21 0.33462413E-02 0.30000000E+03</pdfrwt>
<pdfrwt beam="2">0</pdfrwt>
<totfact> 0.56721015E+04</totfact>
</mgrwt>
</event>
<event>
 6    1  0.1274196E-001  0.3000000E+03  0.7818608E-02  0.1093470E+00
         21   -1    0    0  501  502  0.00000000000E+00  0.00000000000E+00  0.11740577431E+01  0.11740577431E+01  0.00000000000E+00 0. -1.
         13   -1    0    0    0    0 -0.00000000000E+00 -0.00000000000E+00 -0.10000000000E+04  0.10000000000E+04  0.00000000000E+00 0.  1.
    9000005    2    1    2  501    0  0.30496519487E+02  0.14857577655E+01 -0.72562735339E+03  0.72627459588E+03  0.27363200657E+01 0.  0.
         13    1    3    3    0    0  0.10525012873E+02  0.17711310011E+01 -0.24461172396E+03  0.24484445736E+03  0.00000000000E+00 0.  1.
          1    1    3    3  501    0  0.19971506614E+02 -0.28537323568E+00 -0.48101562943E+03  0.48143013852E+03  0.00000000000E+00 0.  1.
         -1    1    1    2    0  502 -0.30496519487E+02 -0.14857577655E+01 -0.27319858886E+03  0.27489946187E+03  0.00000000000E+00 0. -1.
<mgrwt>
<rscale>  1 0.30000000E+03</rscale>
<asrwt>0</asrwt>
<pdfrwt beam="1">  1       21 0.42693099E-02 0.30000000E+03</pdfrwt>
<pdfrwt beam="2">0</pdfrwt>
<totfact> 0.37670214E+04</totfact>
</mgrwt>
</event>
<event>
 6    1  0.1274196E-001  0.3000000E+03  0.7818608E-02  0.1093470E+00
         21   -1    0    0  501  502  0.00000000000E+00  0.00000000000E+00  0.16846067765E+02  0.16846067765E+02  0.00000000000E+00 0. -1.
         13   -1    0    0    0    0 -0.00000000000E+00 -0.00000000000E+00 -0.10000000000E+04  0.10000000000E+04  0.00000000000E+00 0.  1.
    9000005    2    1    2  501    0 -0.28034215040E+02 -0.12014989799E+03 -0.64927364191E+03  0.66089949387E+03  0.31565354313E+01 0.  0.
         13    1    3    3    0    0 -0.24320325507E+02 -0.98991102659E+02 -0.53687309810E+03  0.54646449116E+03  0.00000000000E+00 0.  1.
          1    1    3    3  501    0 -0.37138895324E+01 -0.21158795336E+02 -0.11240054381E+03  0.11443500270E+03  0.00000000000E+00 0.  1.
         -3    1    1    2    0  502  0.28034215040E+02  0.12014989799E+03 -0.33388029033E+03  0.35594657390E+03  0.00000000000E+00 0. -1.
<mgrwt>
<rscale>  1 0.30000000E+03</rscale>
<asrwt>0</asrwt>
<pdfrwt beam="1">  1       21 0.61258557E-01 0.30000000E+03</pdfrwt>
<pdfrwt beam="2">0</pdfrwt>
<totfact> 0.23963772E+02</totfact>
</mgrwt>
</event>
<event>
 6    1  0.1274196E-001  0.3000000E+03  0.7818608E-02  0.1093470E+00
         21   -1    0    0  501  502  0.00000000000E+00  0.00000000000E+00  0.20384918451E+01  0.20384918451E+01  0.00000000000E+00 0. -1.
         13   -1    0    0    0    0 -0.00000000000E+00 -0.00000000000E+00 -0.10000000000E+04  0.10000000000E+04  0.00000000000E+00 0.  1.
    9000005    2    1    2  501    0 -0.16471452747E+02 -0.27320384552E+02 -0.14779334984E+03  0.15127200827E+03  0.47575267209E+01 0.  0.
         13    1    3    3    0    0 -0.18182131919E+01 -0.22658509995E+01 -0.20933274043E+02  0.21133905037E+02  0.00000000000E+00 0.  1.
          3    1    3    3  501    0 -0.14653239555E+02 -0.25054533552E+02 -0.12686007580E+03  0.13013810323E+03  0.00000000000E+00 0.  1.
         -3    1    1    2    0  502  0.16471452747E+02  0.27320384552E+02 -0.85016815831E+03  0.85076648358E+03  0.00000000000E+00 0. -1.
<mgrwt>
<rscale>  1 0.30000000E+03</rscale>
<asrwt>0</asrwt>
<pdfrwt beam="1">  1       21 0.74127132E-02 0.30000000E+03</pdfrwt>
<pdfrwt beam="2">0</pdfrwt>
<totfact> 0.14600581E+04</totfact>
</mgrwt>
</event>
<event>
 6    1  0.1274196E-001  0.3000000E+03  0.7818608E-02  0.1093470E+00
         21   -1    0    0  501  502  0.00000000000E+00  0.00000000000E+00  0.29915986500E+01  0.29915986500E+01  0.00000000000E+00 0. -1.
         13   -1    0    0    0    0 -0.00000000000E+00 -0.00000000000E+00 -0.10000000000E+04  0.10000000000E+04  0.00000000000E+00 0.  1.
    9000005    2    1    2  501    0  0.36615593751E+02 -0.80121905234E+01 -0.86357127662E+03  0.86439014427E+03  0.31740807144E+01 0.  0.
         13    1    3    3    0    0  0.18344334289E+02 -0.24223738939E+01 -0.43213365945E+03  0.43252963150E+03  0.00000000000E+00 0.  1.
          3    1    3    3  501    0  0.18271259462E+02 -0.55898166295E+01 -0.43143761717E+03  0.43186051276E+03  0.00000000000E+00 0.  1.
         -1    1    1    2    0  502 -0.36615593751E+02  0.80121905234E+01 -0.13343712473E+03  0.13860145438E+03  0.00000000000E+00 0. -1.
<mgrwt>
<rscale>  1 0.30000000E+03</rscale>
<asrwt>0</asrwt>
<pdfrwt beam="1">  1       21 0.10878563E-01 0.30000000E+03</pdfrwt>
<pdfrwt beam="2">0</pdfrwt>
<totfact> 0.73982491E+03</totfact>
</mgrwt>
</event>
<event>
 6    1  0.1274196E-001  0.3000000E+03  0.7818608E-02  0.1093470E+00
         21   -1    0    0  501  502  0.00000000000E+00  0.00000000000E+00  0.10995921452E+01  0.10995921452E+01  0.00000000000E+00 0. -1.
         13   -1    0    0    0    0 -0.00000000000E+00 -0.00000000000E+00 -0.10000000000E+04  0.10000000000E+04  0.00000000000E+00 0.  1.
    9000005    2    1    2  501    0  0.31336977606E+02 -0.88553872391E+01 -0.42337852710E+03  0.42465717587E+03  0.48903745928E+01 0.  0.
         13    1    3    3    0    0  0.17062500808E+02 -0.54102673383E+01 -0.20162272720E+03  0.20241572086E+03  0.00000000000E+00 0.  1.
          1    1    3    3  501    0  0.14274476798E+02 -0.34451199008E+01 -0.22175579989E+03  0.22224145501E+03  0.00000000000E+00 0.  1.
         -3    1    1    2    0  502 -0.31336977606E+02  0.88553872391E+01 -0.57552188076E+03  0.57644241628E+03  0.00000000000E+00 0. -1.
<mgrwt>
<rscale>  1 0.30000000E+03</rscale>
<asrwt>0</asrwt>
<pdfrwt beam="1">  1       21 0.39985253E-02 0.30000000E+03</pdfrwt>
<pdfrwt beam="2">0</pdfrwt>
<totfact> 0.42073441E+04</totfact>
</mgrwt>
</event>
<event>
 6    1  0.1274196E-001  0.3000000E+03  0.7818608E-02  0.1093470E+00
         21   -1    0    0  501  502  0.00000000000E+00  0.00000000000E+00  0.10718366589E+02  0.10718366589E+02  0.00000000000E+00 0. -1.
         13   -1    0    0    0    0 -0.00000000000E+00 -0.00000000000E+00 -0.10000000000E+04  0.10000000000E+04  0.00000000000E+00 0.  1.
    9000005    2    1    2  501    0 -0.10175610873E+03 -0.18421974795E+02 -0.51577134553E+03  0.52604768711E+03  0.35232685164E+01 0.  0.
         13    1    3    3    0    0 -0.21517346239E+01 -0.17222014436E+00 -0.13330138179E+02  0.13503784860E+02  0.00000000000E+00 0.  1.
          1    1    3    3  501    0 -0.99604374108E+02 -0.18249754650E+02 -0.50244120735E+03  0.51254390225E+03  0.00000000000E+00 0.  1.
         -3    1    1    2    0  502  0.10175610873E+03  0.18421974795E+02 -0.47351028788E+03  0.48467067948E+03  0.00000000000E+00 0. -1.
<mgrwt>
<rscale>  1 0.30000000E+03</rscale>
<asrwt>0</asrwt>
<pdfrwt beam="1">  1       21 0.38975961E-01 0.30000000E+03</pdfrwt>
<pdfrwt beam="2">0</pdfrwt>
<totfact> 0.63754293E+02</totfact>
</mgrwt>
</event>
<event>
 6    1  0.1274196E-001  0.3000000E+03  0.7818608E-02  0.1093470E+00
         21   -1    0    0  501  502  0.00000000000E+00  0.00000000000E+00  0.65724964365E+01  0.65724964365E+01  0.00000000000E+00 0. -1.
         13   -1    0    0    0    0 -0.00000000000E+00 -0.00000000000E+00 -0.10000000000E+04  0.10000000000E+04  0.00000000000E+00 0.  1.
    9000005    2    1    2  501    0 -0.27452175266E+02  0.33497687759E+02 -0.92213038345E+03  0.92315189737E+03  0.30437680105E+01 0.  0.
         13    1    3    3    0    0 -0.19344629004E+01  0.13156894327E+01 -0.53213472669E+02  0.53264874532E+02  0.00000000000E+00 0.  1.
          3    1    3    3  501    0 -0.25517712366E+02  0.32181998327E+02 -0.86891691079E+03  0.86988702284E+03  0.00000000000E+00 0.  1.
         -1    1    1    2    0  502  0.27452175266E+02 -0.33497687759E+02 -0.71297120109E+02  0.83420599062E+02  0.00000000000E+00 0. -1.
<mgrwt>
<rscale>  1 0.30000000E+03</rscale>
<asrwt>0</asrwt>
<pdfrwt beam="1">  1       21 0.23900037E-01 0.30000000E+03</pdfrwt>
<pdfrwt beam="2">0</pdfrwt>
<totfact> 0.17026737E+03</totfact>
</mgrwt>
</event>
<event>
 6    1  0.1274196E-001  0.3000000E+03  0.7818608E-02  0.1093470E+00
         21   -1    0    0  501  502  0.00000000000E+00  0.00000000000E+00  0.17360125898E+01  0.17360125898E+01  0.00000000000E+00 0. -1.
         13   -1    0    0    0    0 -0.00000000000E+00 -0.00000000000E+00 -0.10000000000E+04  0.10000000000E+04  0.00000000000E+00 0.  1.
    9000005    2    1    2  501    0 -0.33871679487E+02 -0.63609223344E+01 -0.22382241875E+03  0.22652797904E+03  0.55405911873E+01 0.  0.
         13    1    3    3    0    0 -0.12387282335E+02 -0.21111414442E+01 -0.99629253496E+02  0.10041857315E+03  0.00000000000E+00 0.  1.
          3    1    3    3  501    0 -0.21484397152E+02 -0.42497808902E+01 -0.12419316525E+03  0.12610940589E+03  0.00000000000E+00 0.  1.
         -1    1    1    2    0  502  0.33871679487E+02  0.63609223344E+01 -0.77444156866E+03  0.77520803355E+03  0.00000000000E+00 0. -1.
<mgrwt>
<rscale>  1 0.30000000E+03</rscale>
<asrwt>0</asrwt>
<pdfrwt beam="1">  1       21 0.63127864E-02 0.30000000E+03</pdfrwt>
<pdfrwt beam="2">0</pdfrwt>
<totfact> 0.19301648E+04</totfact>
</mgrwt>
</event>
<event>
 6    1  0.1274196E-001  0.3000000E+03  0.7818608E-02  0.1093470E+00
         21   -1    0    0  501  502  0.00000000000E+00  0.00000000000E+00  0.26516564264E+01  0.26516564264E+01  0.00000000000E+00 0. -1.
         13   -1    0    0    0    0 -0.00000000000E+00 -0.00000000000E+00 -0.10000000000E+04  0.10000000000E+04  0.00000000000E+00 0.  1.
    9000005    2    1    2  501    0 -0.36537193896E+02 -0.17672826184E+01 -0.85049350903E+03  0.85130955305E+03  0.71173299550E+01 0.  0.
         13    1    3    3    0    0 -0.20826425511E+02 -0.26163948061E+01 -0.55596909569E+03  0.55636518662E+03  0.00000000000E+00 0.  1.
          1    1    3    3  501    0 -0.15710768385E+02  0.84911218766E+00 -0.29452441334E+03  0.29494436643E+03  0.00000000000E+00 0.  1.
         -1    1    1    2    0  502  0.36537193896E+02  0.17672826184E+01 -0.14685483454E+03  0.15134210337E+03  0.00000000000E+00 0. -1.
<mgrwt>
<rscale>  1 0.30000000E+03</rscale>
<asrwt>0</asrwt>
<pdfrwt beam="1">  1       21 0.96424073E-02 0.30000000E+03</pdfrwt>
<pdfrwt beam="2">0</pdfrwt>
<totfact> 0.91809730E+03</totfact>
</mgrwt>
</event>
<event>
 6    1  0.1274196E-001  0.3000000E+03  0.7818608E-02  0.1093470E+00
         21   -1    0    0  501  502  0.00000000000E+00  0.00000000000E+00  0.12776190299E+01  0.12776190299E+01  0.00000000000E+00 0. -1.
         13   -1    0    0    0    0 -0.00000000000E+00 -0.00000000000E+00 -0.10000000000E+04  0.10000000000E+04  0.00000000000E+00 0.  1.
    9000005    2    1    2  501    0  0.19118093381E+02 -0.29635744782E+02 -0.42586738946E+03  0.42733805761E+03  0.33171093313E+01 0.  0.
         13    1    3    3    0    0  0.16742109146E+02 -0.23625312806E+02 -0.34570422707E+03  0.34691478239E+03  0.00000000000E+00 0.  1.
          1    1    3    3  501    0  0.23759842350E+01 -0.60104319757E+01 -0.80163162382E+02  0.80423275218E+02  0.00000000000E+00 0.  1.
         -1    1    1    2    0  502 -0.19118093381E+02  0.29635744782E+02 -0.57285499151E+03  0.57393956142E+03  0.00000000000E+00 0. -1.
<mgrwt>
<rscale>  1 0.30000000E+03</rscale>
<asrwt>0</asrwt>
<pdfrwt beam="1">  1       21 0.46458972E-02 0.30000000E+03</pdfrwt>
<pdfrwt beam="2">0</pdfrwt>
<totfact> 0.32640454E+04</totfact>
</mgrwt>
</event>
<event>
 6    1  0.1274196E-001  0.3000000E+03  0.7818608E-02  0.1093470E+00
         21   -1    0    0  501  502  0.00000000000E+00  0.00000000000E+00  0.19991520686E+01  0.19991520686E+01  0.00000000000E+00 0. -1.
         13   -1    0    0    0    0 -0.00000000000E+00 -0.00000000000E+00 -0.10000000000E+04  0.10000000000E+04  0.00000000000E+00 0.  1.
    9000005    2    1    2  501    0 -0.21177596848E+02 -0.30137768721E+02 -0.78256176650E+03  0.78343389060E+03  0.29944690740E+01 0.  0.
         13    1    3    3    0    0 -0.17388254764E+01 -0.37143504439E+01 -0.74808161606E+02  0.74920497570E+02  0.00000000000E+00 0.  1.
          3    1    3    3  501    0 -0.19438771372E+02 -0.26423418277E+02 -0.70775360490E+03  0.70851339303E+03  0.00000000000E+00 0.  1.
         -1    1    1    2    0  502  0.21177596848E+02  0.30137768721E+02 -0.21543908143E+03  0.21856526146E+03  0.00000000000E+00 0. -1.
<mgrwt>
<rscale>  1 0.30000000E+03</rscale>
<asrwt>0</asrwt>
<pdfrwt beam="1">  1       21 0.72696592E-02 0.30000000E+03</pdfrwt>
<pdfrwt beam="2">0</pdfrwt>
<totfact> 0.15106414E+04</totfact>
</mgrwt>
</event>
<event>
 6    1  0.1274196E-001  0.3000000E+03  0.7818608E-02  0.1093470E+00
         21   -1    0    0  501  502  0.00000000000E+00  0.00000000000E+00  0.50001671336E+01  0.50001671336E+01  0.00000000000E+00 0. -1.
         13   -1    0    0    0    0 -0.00000000000E+00 -0.00000000000E+00 -0.10000000000E+04  0.10000000000E+04  0.00000000000E+00 0.  1.
    9000005    2    1    2  501    0 -0.10597482672E+02  0.46606782715E+02 -0.86771485080E+03  0.86903706371E+03  0.34433939517E+01 0.  0.
         13    1    3    3    0    0 -0.37044134127E+01  0.20297823700E+02 -0.40094395020E+03  0.40147450171E+03  0.00000000000E+00 0.  1.
          3    1    3    3  501    0 -0.68930692590E+01  0.26308959014E+02 -0.46677090060E+03  0.46756256200E+03  0.00000000000E+00 0.  1.
         -1    1    1    2    0  502  0.10597482672E+02 -0.46606782715E+02 -0.12728498206E+03  0.13596310343E+03  0.00000000000E+00 0. -1.
<mgrwt>
<rscale>  1 0.30000000E+03</rscale>
<asrwt>0</asrwt>
<pdfrwt beam="1">  1       21 0.18182464E-01 0.30000000E+03</pdfrwt>
<pdfrwt beam="2">0</pdfrwt>
<totfact> 0.28743982E+03</totfact>
</mgrwt>
</event>
<event>
 6    1  0.1274196E-001  0.3000000E+03  0.7818608E-02  0.1093470E+00
         21   -1    0    0  501  502  0.00000000000E+00  0.00000000000E+00  0.29625936004E+01  0.29625936004E+01  0.00000000000E+00 0. -1.
         13   -1    0    0    0    0 -0.00000000000E+00 -0.00000000000E+00 -0.10000000000E+04  0.10000000000E+04  0.00000000000E+00 0.  1.
    9000005    2    1    2  501    0 -0.13333415012E+02  0.28188074995E+02 -0.90945943307E+03  0.90999889671E+03  0.30305243461E+01 0.  0.
         13    1    3    3    0    0 -0.29842712038E+01  0.78868559023E+01 -0.21326992650E+03  0.21343657119E+03  0.00000000000E+00 0.  1.
          3    1    3    3  501    0 -0.10349143809E+02  0.20301219092E+02 -0.69618950657E+03  0.69656232551E+03  0.00000000000E+00 0.  1.
         -3    1    1    2    0  502  0.13333415012E+02 -0.28188074995E+02 -0.87577973329E+02  0.92963696894E+02  0.00000000000E+00 0. -1.
<mgrwt>
<rscale>  1 0.30000000E+03</rscale>
<asrwt>0</asrwt>
<pdfrwt beam="1">  1       21 0.10773090E-01 0.30000000E+03</pdfrwt>
<pdfrwt beam="2">0</pdfrwt>
<totfact> 0.75288982E+03</totfact>
</mgrwt>
</event>
<event>
 6    1  0.1274196E-001  0.3000000E+03  0.7818608E-02  0.1093470E+00
         21   -1    0    0  501  502  0.00000000000E+00  0.00000000000E+00  0.50897554871E+01  0.50897554871E+01  0.00000000000E+00 0. -1.
         13   -1    0    0    0    0 -0.00000000000E+00 -0.00000000000E+00 -0.10000000000E+04  0.10000000000E+04  0.00000000000E+00 0.  1.
    9000005    2    1    2  501    0 -0.26419075872E+02 -0.19383901172E+02 -0.94361058528E+03  0.94421810173E+03  0.85547514677E+01 0.  0.
         13    1    3    3    0    0 -0.62805580119E+01 -0.64031417695E+01 -0.16984794546E+03  0.17008459721E+03  0.00000000000E+00 0.  1.
          1    1    3    3  501    0 -0.20138517860E+02 -0.12980759403E+02 -0.77376263983E+03  0.77413350451E+03  0.00000000000E+00 0.  1.
         -3    1    1    2    0  502  0.26419075872E+02  0.19383901172E+02 -0.51299659229E+02  0.60871653761E+02  0.00000000000E+00 0. -1.
<mgrwt>
<rscale>  1 0.30000000E+03</rscale>
<asrwt>0</asrwt>
<pdfrwt beam="1">  1       21 0.18508241E-01 0.30000000E+03</pdfrwt>
<pdfrwt beam="2">0</pdfrwt>
<totfact> 0.27796540E+03</totfact>
</mgrwt>
</event>
<event>
 6    1  0.1274196E-001  0.3000000E+03  0.7818608E-02  0.1093470E+00
         21   -1    0    0  501  502  0.00000000000E+00  0.00000000000E+00  0.27661163681E+01  0.27661163681E+01  0.00000000000E+00 0. -1.
         13   -1    0    0    0    0 -0.00000000000E+00 -0.00000000000E+00 -0.10000000000E+04  0.10000000000E+04  0.00000000000E+00 0.  1.
    9000005    2    1    2  501    0 -0.31889825457E+02  0.29065210416E+02 -0.78483853657E+03  0.78603233756E+03  0.36823600598E+01 0.  0.
         13    1    3    3    0    0 -0.11123262804E+02  0.11707960593E+02 -0.31824699666E+03  0.31865648307E+03  0.00000000000E+00 0.  1.
          1    1    3    3  501    0 -0.20766562654E+02  0.17357249823E+02 -0.46659153991E+03  0.46737585449E+03  0.00000000000E+00 0.  1.
         -1    1    1    2    0  502  0.31889825457E+02 -0.29065210416E+02 -0.21239534706E+03  0.21673377881E+03  0.00000000000E+00 0. -1.
<mgrwt>
<rscale>  1 0.30000000E+03</rscale>
<asrwt>0</asrwt>
<pdfrwt beam="1">  1       21 0.10058626E-01 0.30000000E+03</pdfrwt>
<pdfrwt beam="2">0</pdfrwt>
<totfact> 0.85137898E+03</totfact>
</mgrwt>
</event>
<event>
 6    1  0.1274196E-001  0.3000000E+03  0.7818608E-02  0.1093470E+00
         21   -1    0    0  501  502  0.00000000000E+00  0.00000000000E+00  0.28207969796E+01  0.28207969796E+01  0.00000000000E+00 0. -1.
         13   -1    0    0    0    0 -0.00000000000E+00 -0.00000000000E+00 -0.10000000000E+04  0.10000000000E+04  0.00000000000E+00 0.  1.
    9000005    2    1    2  501    0  0.10978972964E+02  0.41361516624E+02 -0.79524358300E+03  0.79640057623E+03  0.31950897542E+01 0.  0.
         13    1    3    3    0    0  0.40298463488E+00  0.28310064249E+00 -0.82632264512E+01  0.82778894638E+01  0.00000000000E+00 0.  1.
          3    1    3    3  501    0  0.10575988329E+02  0.41078415982E+02 -0.78698035655E+03  0.78812268676E+03  0.00000000000E+00 0.  1.
         -3    1    1    2    0  502 -0.10978972964E+02 -0.41361516624E+02 -0.20193562002E+03  0.20642022075E+03  0.00000000000E+00 0. -1.
<mgrwt>
<rscale>  1 0.30000000E+03</rscale>
<asrwt>0</asrwt>
<pdfrwt beam="1">  1       21 0.10257465E-01 0.30000000E+03</pdfrwt>
<pdfrwt beam="2">0</pdfrwt>
<totfact> 0.82208685E+03</totfact>
</mgrwt>
</event>
<event>
 6    1  0.1274196E-001  0.3000000E+03  0.7818608E-02  0.1093470E+00
         21   -1    0    0  501  502  0.00000000000E+00  0.00000000000E+00  0.40810308410E+01  0.40810308410E+01  0.00000000000E+00 0. -1.
         13   -1    0    0    0    0 -0.00000000000E+00 -0.00000000000E+00 -0.10000000000E+04  0.10000000000E+04  0.00000000000E+00 0.  1.
    9000005    2    1    2  501    0  0.65718608017E+01 -0.54169748176E+02 -0.75727414077E+03  0.75927722146E+03  0.77603977692E+01 0.  0.
         13    1    3    3    0    0  0.44451173373E+00 -0.31711944190E+02 -0.41148986845E+03  0.41271025773E+03  0.00000000000E+00 0.  1.
          1    1    3    3  501    0  0.61273490680E+01 -0.22457803986E+02 -0.34578427232E+03  0.34656696373E+03  0.00000000000E+00 0.  1.
         -1    1    1    2    0  502 -0.65718608017E+01  0.54169748176E+02 -0.23864482839E+03  0.24480380938E+03  0.00000000000E+00 0. -1.
<mgrwt>
<rscale>  1 0.30000000E+03</rscale>
<asrwt>0</asrwt>
<pdfrwt beam="1">  1       21 0.14840143E-01 0.30000000E+03</pdfrwt>
<pdfrwt beam="2">0</pdfrwt>
<totfact> 0.42004631E+03</totfact>
</mgrwt>
</event>
<event>
 6    1  0.1274196E-001  0.3000000E+03  0.7818608E-02  0.1093470E+00
         21   -1    0    0  501  502  0.00000000000E+00  0.00000000000E+00  0.12387227077E+01  0.12387227077E+01  0.00000000000E+00 0. -1.
         13   -1    0    0    0    0 -0.00000000000E+00 -0.00000000000E+00 -0.10000000000E+04  0.10000000000E+04  0.00000000000E+00 0.  1.
    9000005    2    1    2  501    0  0.16901206798E+02 -0.29658536840E+02 -0.61140911820E+03  0.61238531235E+03  0.54204572462E+01 0.  0.
         13    1    3    3    0    0  0.42158064805E+01 -0.71749487330E+01 -0.19425874263E+03  0.19443691009E+03  0.00000000000E+00 0.  1.
          1    1    3    3  501    0  0.12685400318E+02 -0.22483588107E+02 -0.41715037557E+03  0.41794840226E+03  0.00000000000E+00 0.  1.
         -3    1    1    2    0  502 -0.16901206798E+02  0.29658536840E+02 -0.38735215909E+03  0.38885341036E+03  0.00000000000E+00 0. -1.
<mgrwt>
<rscale>  1 0.30000000E+03</rscale>
<asrwt>0</asrwt>
<pdfrwt beam="1">  1       21 0.45044557E-02 0.30000000E+03</pdfrwt>
<pdfrwt beam="2">0</pdfrwt>
<totfact> 0.34400367E+04</totfact>
</mgrwt>
</event>
<event>
 6    1  0.1274196E-001  0.3000000E+03  0.7818608E-02  0.1093470E+00
         21   -1    0    0  501  502  0.00000000000E+00  0.00000000000E+00  0.33131490692E+01  0.33131490692E+01  0.00000000000E+00 0. -1.
         13   -1    0    0    0    0 -0.00000000000E+00 -0.00000000000E+00 -0.10000000000E+04  0.10000000000E+04  0.00000000000E+00 0.  1.
    9000005    2    1    2  501    0 -0.27177387627E+02 -0.16622412893E+02 -0.91608389484E+03  0.91664278770E+03  0.30631448665E+01 0.  0.
         13    1    3    3    0    0 -0.56592800408E+01 -0.34979142040E+01 -0.22948546980E+03  0.22958188889E+03  0.00000000000E+00 0.  1.
          1    1    3    3  501    0 -0.21518107586E+02 -0.13124498689E+02 -0.68659842503E+03  0.68706089881E+03  0.00000000000E+00 0.  1.
         -1    1    1    2    0  502  0.27177387627E+02  0.16622412893E+02 -0.80602956096E+02  0.86670361370E+02  0.00000000000E+00 0. -1.
<mgrwt>
<rscale>  1 0.30000000E+03</rscale>
<asrwt>0</asrwt>
<pdfrwt beam="1">  1       21 0.12047840E-01 0.30000000E+03</pdfrwt>
<pdfrwt beam="2">0</pdfrwt>
<totfact> 0.61525205E+03</totfact>
</mgrwt>
</event>
<event>
 6    1  0.1274196E-001  0.3000000E+03  0.7818608E-02  0.1093470E+00
         21   -1    0    0  501  502  0.00000000000E+00  0.00000000000E+00  0.16375600634E+01  0.16375600634E+01  0.00000000000E+00 0. -1.
         13   -1    0    0    0    0 -0.00000000000E+00 -0.00000000000E+00 -0.10000000000E+04  0.10000000000E+04  0.00000000000E+00 0.  1.
    9000005    2    1    2  501    0  0.17321522798E+01  0.39958150997E+02 -0.42819202982E+03  0.43006608530E+03  0.29612746179E+01 0.  0.
         13    1    3    3    0    0  0.27254335546E+00  0.32775116306E+00 -0.62453590443E+01  0.62598890004E+01  0.00000000000E+00 0.  1.
          1    1    3    3  501    0  0.14596089243E+01  0.39630399834E+02 -0.42194667077E+03  0.42380619630E+03  0.00000000000E+00 0.  1.
         -1    1    1    2    0  502 -0.17321522798E+01 -0.39958150997E+02 -0.57017041012E+03  0.57157147476E+03  0.00000000000E+00 0. -1.
<mgrwt>
<rscale>  1 0.30000000E+03</rscale>
<asrwt>0</asrwt>
<pdfrwt beam="1">  1       21 0.59547764E-02 0.30000000E+03</pdfrwt>
<pdfrwt beam="2">0</pdfrwt>
<totfact> 0.21348375E+04</totfact>
</mgrwt>
</event>
<event>
 6    1  0.1274196E-001  0.3000000E+03  0.7818608E-02  0.1093470E+00
         21   -1    0    0  501  502  0.00000000000E+00  0.00000000000E+00  0.25064461135E+01  0.25064461135E+01  0.00000000000E+00 0. -1.
         13   -1    0    0    0    0 -0.00000000000E+00 -0.00000000000E+00 -0.10000000000E+04  0.10000000000E+04  0.00000000000E+00 0.  1.
    9000005    2    1    2  501    0 -0.34129655396E+02 -0.53541071281E+01 -0.86100310991E+03  0.86171176888E+03  0.52266155211E+01 0.  0.
         13    1    3    3    0    0 -0.18522037219E+01 -0.12237874229E+01 -0.80517126580E+02  0.80547724902E+02  0.00000000000E+00 0.  1.
          3    1    3    3  501    0 -0.32277451674E+02 -0.41303197052E+01 -0.78048598333E+03  0.78116404398E+03  0.00000000000E+00 0.  1.
         -3    1    1    2    0  502  0.34129655396E+02  0.53541071281E+01 -0.13649044398E+03  0.14079467723E+03  0.00000000000E+00 0. -1.
<mgrwt>
<rscale>  1 0.30000000E+03</rscale>
<asrwt>0</asrwt>
<pdfrwt beam="1">  1       21 0.91143687E-02 0.30000000E+03</pdfrwt>
<pdfrwt beam="2">0</pdfrwt>
<totfact> 0.10148358E+04</totfact>
</mgrwt>
</event>
<event>
 6    1  0.1274196E-001  0.3000000E+03  0.7818608E-02  0.1093470E+00
         21   -1    0    0  501  502  0.00000000000E+00  0.00000000000E+00  0.26641524687E+01  0.26641524687E+01  0.00000000000E+00 0. -1.
         13   -1    0    0    0    0 -0.00000000000E+00 -0.00000000000E+00 -0.10000000000E+04  0.10000000000E+04  0.00000000000E+00 0.  1.
    9000005    2    1    2  501    0  0.36245505944E+02 -0.31964340467E+02 -0.67339805114E+03  0.67514140258E+03  0.39398525663E+01 0.  0.
         13    1    3    3    0    0  0.14652354387E+01 -0.57797155930E+00 -0.28904363594E+02  0.28947248587E+02  0.00000000000E+00 0.  1.
          1    1    3    3  501    0  0.34780270505E+02 -0.31386368908E+02 -0.64449368755E+03  0.64619415400E+03  0.00000000000E+00 0.  1.
         -3    1    1    2    0  502 -0.36245505944E+02  0.31964340467E+02 -0.32393779639E+03  0.32752274988E+03  0.00000000000E+00 0. -1.
<mgrwt>
<rscale>  1 0.30000000E+03</rscale>
<asrwt>0</asrwt>
<pdfrwt beam="1">  1       21 0.96878476E-02 0.30000000E+03</pdfrwt>
<pdfrwt beam="2">0</pdfrwt>
<totfact> 0.91043136E+03</totfact>
</mgrwt>
</event>
<event>
 6    1  0.1274196E-001  0.3000000E+03  0.7818608E-02  0.1093470E+00
         21   -1    0    0  501  502  0.00000000000E+00  0.00000000000E+00  0.22661019680E+01  0.22661019680E+01  0.00000000000E+00 0. -1.
         13   -1    0    0    0    0 -0.00000000000E+00 -0.00000000000E+00 -0.10000000000E+04  0.10000000000E+04  0.00000000000E+00 0.  1.
    9000005    2    1    2  501    0 -0.34308675058E+02  0.31150886973E+02 -0.38693916404E+03  0.38971596523E+03  0.30255487011E+01 0.  0.
         13    1    3    3    0    0 -0.86069419759E+00  0.13646377585E+01 -0.10853610151E+02  0.10972870364E+02  0.00000000000E+00 0.  1.
          3    1    3    3  501    0 -0.33447980860E+02  0.29786249215E+02 -0.37608555389E+03  0.37874309487E+03  0.00000000000E+00 0.  1.
         -1    1    1    2    0  502  0.34308675058E+02 -0.31150886973E+02 -0.61079473399E+03  0.61255013674E+03  0.00000000000E+00 0. -1.
<mgrwt>
<rscale>  1 0.30000000E+03</rscale>
<asrwt>0</asrwt>
<pdfrwt beam="1">  1       21 0.82403882E-02 0.30000000E+03</pdfrwt>
<pdfrwt beam="2">0</pdfrwt>
<totfact> 0.12126029E+04</totfact>
</mgrwt>
</event>
<event>
 6    1  0.1274196E-001  0.3000000E+03  0.7818608E-02  0.1093470E+00
         21   -1    0    0  501  502  0.00000000000E+00  0.00000000000E+00  0.17849755207E+01  0.17849755207E+01  0.00000000000E+00 0. -1.
         13   -1    0    0    0    0 -0.00000000000E+00 -0.00000000000E+00 -0.10000000000E+04  0.10000000000E+04  0.00000000000E+00 0.  1.
    9000005    2    1    2  501    0 -0.40335375261E+02 -0.12109435608E+02 -0.47860961050E+03  0.48047569384E+03  0.40189776495E+01 0.  0.
         13    1    3    3    0    0 -0.29399552766E+02 -0.96488398979E+01 -0.33243198829E+03  0.33386892735E+03  0.00000000000E+00 0.  1.
          1    1    3    3  501    0 -0.10935822495E+02 -0.24605957099E+01 -0.14617762222E+03  0.14660676649E+03  0.00000000000E+00 0.  1.
         -3    1    1    2    0  502  0.40335375261E+02  0.12109435608E+02 -0.51960541398E+03  0.52130928168E+03  0.00000000000E+00 0. -1.
<mgrwt>
<rscale>  1 0.30000000E+03</rscale>
<asrwt>0</asrwt>
<pdfrwt beam="1">  1       21 0.64908338E-02 0.30000000E+03</pdfrwt>
<pdfrwt beam="2">0</pdfrwt>
<totfact> 0.18394933E+04</totfact>
</mgrwt>
</event>
<event>
 6    1  0.1274196E-001  0.3000000E+03  0.7818608E-02  0.1093470E+00
         21   -1    0    0  501  502  0.00000000000E+00  0.00000000000E+00  0.11408092392E+01  0.11408092392E+01  0.00000000000E+00 0. -1.
         13   -1    0    0    0    0 -0.00000000000E+00 -0.00000000000E+00 -0.10000000000E+04  0.10000000000E+04  0.00000000000E+00 0.  1.
    9000005    2    1    2  501    0 -0.27824371163E+02  0.12744888948E+02 -0.71080644342E+03  0.71146683203E+03  0.16202587518E+01 0.  0.
         13    1    3    3    0    0 -0.19741135268E+02  0.88282581167E+01 -0.51835402143E+03  0.51880491719E+03  0.00000000000E+00 0.  1.
          3    1    3    3  501    0 -0.80832358944E+01  0.39166308317E+01 -0.19245242199E+03  0.19266191484E+03  0.00000000000E+00 0.  1.
         -3    1    1    2    0  502  0.27824371163E+02 -0.12744888948E+02 -0.28805274734E+03  0.28967397721E+03  0.00000000000E+00 0. -1.
<mgrwt>
<rscale>  1 0.30000000E+03</rscale>
<asrwt>0</asrwt>
<pdfrwt beam="1">  1       21 0.41484060E-02 0.30000000E+03</pdfrwt>
<pdfrwt beam="2">0</pdfrwt>
<totfact> 0.39542948E+04</totfact>
</mgrwt>
</event>
<event>
 6    1  0.1274196E-001  0.3000000E+03  0.7818608E-02  0.1093470E+00
         21   -1    0    0  501  502  0.00000000000E+00  0.00000000000E+00  0.12096784015E+01  0.12096784015E+01  0.00000000000E+00 0. -1.
         13   -1    0    0    0    0 -0.00000000000E+00 -0.00000000000E+00 -0.10000000000E+04  0.10000000000E+04  0.00000000000E+00 0.  1.
    9000005    2    1    2  501    0  0.60811377697E+01  0.29534331909E+02 -0.74796255651E+03  0.74857590248E+03  0.29391890716E+01 0.  0.
         13    1    3    3    0    0  0.61327737796E+01  0.26747871109E+02 -0.66308021595E+03  0.66364782249E+03  0.00000000000E+00 0.  1.
          1    1    3    3  501    0 -0.51636009912E-01  0.27864608000E+01 -0.84882340563E+02  0.84928079983E+02  0.00000000000E+00 0.  1.
         -3    1    1    2    0  502 -0.60811377697E+01 -0.29534331909E+02 -0.25082776509E+03  0.25263377592E+03  0.00000000000E+00 0. -1.
<mgrwt>
<rscale>  1 0.30000000E+03</rscale>
<asrwt>0</asrwt>
<pdfrwt beam="1">  1       21 0.43988398E-02 0.30000000E+03</pdfrwt>
<pdfrwt beam="2">0</pdfrwt>
<totfact> 0.35812399E+04</totfact>
</mgrwt>
</event>
<event>
 6    1  0.1274196E-001  0.3000000E+03  0.7818608E-02  0.1093470E+00
         21   -1    0    0  501  502  0.00000000000E+00  0.00000000000E+00  0.48104127438E+01  0.48104127438E+01  0.00000000000E+00 0. -1.
         13   -1    0    0    0    0 -0.00000000000E+00 -0.00000000000E+00 -0.10000000000E+04  0.10000000000E+04  0.00000000000E+00 0.  1.
    9000005    2    1    2  501    0  0.37694494554E+02  0.14463465198E+02 -0.90603059895E+03  0.90693604459E+03  0.33876250096E+01 0.  0.
         13    1    3    3    0    0  0.14534591905E+02  0.53609775330E+01 -0.38496132980E+03  0.38527291611E+03  0.00000000000E+00 0.  1.
          1    1    3    3  501    0  0.23159902649E+02  0.91024876652E+01 -0.52106926914E+03  0.52166312848E+03  0.00000000000E+00 0.  1.
         -1    1    1    2    0  502 -0.37694494554E+02 -0.14463465198E+02 -0.89158988311E+02  0.97874368155E+02  0.00000000000E+00 0. -1.
<mgrwt>
<rscale>  1 0.30000000E+03</rscale>
<asrwt>0</asrwt>
<pdfrwt beam="1">  1       21 0.17492447E-01 0.30000000E+03</pdfrwt>
<pdfrwt beam="2">0</pdfrwt>
<totfact> 0.30914498E+03</totfact>
</mgrwt>
</event>
<event>
 6    1  0.1274196E-001  0.3000000E+03  0.7818608E-02  0.1093470E+00
         21   -1    0    0  501  502  0.00000000000E+00  0.00000000000E+00  0.14375148786E+01  0.14375148786E+01  0.00000000000E+00 0. -1.
         13   -1    0    0    0    0 -0.00000000000E+00 -0.00000000000E+00 -0.10000000000E+04  0.10000000000E+04  0.00000000000E+00 0.  1.
    9000005    2    1    2  501    0  0.28808900242E+02  0.87373473573E+01 -0.80299433568E+03  0.80356585181E+03  0.34468941634E+01 0.  0.
         13    1    3    3    0    0  0.26222100210E+02  0.70402059911E+01 -0.73460984224E+03  0.73511140880E+03  0.00000000000E+00 0.  1.
          3    1    3    3  501    0  0.25868000320E+01  0.16971413662E+01 -0.68384493445E+02  0.68454443004E+02  0.00000000000E+00 0.  1.
         -1    1    1    2    0  502 -0.28808900242E+02 -0.87373473573E+01 -0.19556814944E+03  0.19787166307E+03  0.00000000000E+00 0. -1.
<mgrwt>
<rscale>  1 0.30000000E+03</rscale>
<asrwt>0</asrwt>
<pdfrwt beam="1">  1       21 0.52273379E-02 0.30000000E+03</pdfrwt>
<pdfrwt beam="2">0</pdfrwt>
<totfact> 0.26699605E+04</totfact>
</mgrwt>
</event>
<event>
 6    1  0.1274196E-001  0.3000000E+03  0.7818608E-02  0.1093470E+00
         21   -1    0    0  501  502  0.00000000000E+00  0.00000000000E+00  0.38479842555E+01  0.38479842555E+01  0.00000000000E+00 0. -1.
         13   -1    0    0    0    0 -0.00000000000E+00 -0.00000000000E+00 -0.10000000000E+04  0.10000000000E+04  0.00000000000E+00 0.  1.
    9000005    2    1    2  501    0  0.27906683177E+02 -0.32182986417E+02 -0.86280469137E+03  0.86386214034E+03  0.33666705970E+01 0.  0.
         13    1    3    3    0    0  0.23080771961E+02 -0.25337140320E+02 -0.67130205402E+03  0.67217642063E+03  0.00000000000E+00 0.  1.
          3    1    3    3  501    0  0.48259112156E+01 -0.68458460973E+01 -0.19150263735E+03  0.19168571971E+03  0.00000000000E+00 0.  1.
         -3    1    1    2    0  502 -0.27906683177E+02  0.32182986417E+02 -0.13334732437E+03  0.13998584392E+03  0.00000000000E+00 0. -1.
<mgrwt>
<rscale>  1 0.30000000E+03</rscale>
<asrwt>0</asrwt>
<pdfrwt beam="1">  1       21 0.13992700E-01 0.30000000E+03</pdfrwt>
<pdfrwt beam="2">0</pdfrwt>
<totfact> 0.46811609E+03</totfact>
</mgrwt>
</event>
<event>
 6    1  0.1274196E-001  0.3000000E+03  0.7818608E-02  0.1093470E+00
         21   -1    0    0  501  502  0.00000000000E+00  0.00000000000E+00  0.10668616265E+01  0.10668616265E+01  0.00000000000E+00 0. -1.
         13   -1    0    0    0    0 -0.00000000000E+00 -0.00000000000E+00 -0.10000000000E+04  0.10000000000E+04  0.00000000000E+00 0.  1.
    9000005    2    1    2  501    0 -0.55020701403E+01 -0.32022745100E+02 -0.45862582703E+03  0.45978346112E+03  0.27300027657E+01 0.  0.
         13    1    3    3    0    0 -0.20637085303E-01 -0.13409254752E+00 -0.64606942433E+01  0.64621186004E+01  0.00000000000E+00 0.  1.
          3    1    3    3  501    0 -0.54814330550E+01 -0.31888652553E+02 -0.45216513279E+03  0.45332134251E+03  0.00000000000E+00 0.  1.
         -1    1    1    2    0  502  0.55020701403E+01  0.32022745100E+02 -0.54030731134E+03  0.54128340051E+03  0.00000000000E+00 0. -1.
<mgrwt>
<rscale>  1 0.30000000E+03</rscale>
<asrwt>0</asrwt>
<pdfrwt beam="1">  1       21 0.38795050E-02 0.30000000E+03</pdfrwt>
<pdfrwt beam="2">0</pdfrwt>
<totfact> 0.44268212E+04</totfact>
</mgrwt>
</event>
<event>
 6    1  0.1274196E-001  0.3000000E+03  0.7818608E-02  0.1093470E+00
         21   -1    0    0  501  502  0.00000000000E+00  0.00000000000E+00  0.15871525882E+01  0.15871525882E+01  0.00000000000E+00 0. -1.
         13   -1    0    0    0    0 -0.00000000000E+00 -0.00000000000E+00 -0.10000000000E+04  0.10000000000E+04  0.00000000000E+00 0.  1.
    9000005    2    1    2  501    0 -0.32951077275E+02 -0.19781734433E+02 -0.62783926882E+03  0.62902592586E+03  0.37917569713E+01 0.  0.
         13    1    3    3    0    0 -0.14596664956E+02 -0.68453596690E+01 -0.24798309058E+03  0.24850660915E+03  0.00000000000E+00 0.  1.
          3    1    3    3  501    0 -0.18354412320E+02 -0.12936374764E+02 -0.37985617824E+03  0.38051931671E+03  0.00000000000E+00 0.  1.
         -1    1    1    2    0  502  0.32951077275E+02  0.19781734433E+02 -0.37057357859E+03  0.37256122672E+03  0.00000000000E+00 0. -1.
<mgrwt>
<rscale>  1 0.30000000E+03</rscale>
<asrwt>0</asrwt>
<pdfrwt beam="1">  1       21 0.57714761E-02 0.30000000E+03</pdfrwt>
<pdfrwt beam="2">0</pdfrwt>
<totfact> 0.22530007E+04</totfact>
</mgrwt>
</event>
<event>
 6    1  0.1274196E-001  0.3000000E+03  0.7818608E-02  0.1093470E+00
         21   -1    0    0  501  502  0.00000000000E+00  0.00000000000E+00  0.16998624152E+01  0.16998624152E+01  0.00000000000E+00 0. -1.
         13   -1    0    0    0    0 -0.00000000000E+00 -0.00000000000E+00 -0.10000000000E+04  0.10000000000E+04  0.00000000000E+00 0.  1.
    9000005    2    1    2  501    0 -0.32769209512E+02  0.15789685622E+02 -0.73399755207E+03  0.73490594949E+03  0.33485649283E+01 0.  0.
         13    1    3    3    0    0 -0.65652329351E+01  0.32882272406E+01 -0.12297910146E+03  0.12319810923E+03  0.00000000000E+00 0.  1.
          3    1    3    3  501    0 -0.26203976577E+02  0.12501458381E+02 -0.61101845061E+03  0.61170784026E+03  0.00000000000E+00 0.  1.
         -3    1    1    2    0  502  0.32769209512E+02 -0.15789685622E+02 -0.26430258551E+03  0.26679391292E+03  0.00000000000E+00 0. -1.
<mgrwt>
<rscale>  1 0.30000000E+03</rscale>
<asrwt>0</asrwt>
<pdfrwt beam="1">  1       21 0.61813309E-02 0.30000000E+03</pdfrwt>
<pdfrwt beam="2">0</pdfrwt>
<totfact> 0.20016314E+04</totfact>
</mgrwt>
</event>
<event>
 6    1  0.1274196E-001  0.3000000E+03  0.7818608E-02  0.1093470E+00
         21   -1    0    0  501  502  0.00000000000E+00  0.00000000000E+00  0.99043988234E+00  0.99043988234E+00  0.00000000000E+00 0. -1.
         13   -1    0    0    0    0 -0.00000000000E+00 -0.00000000000E+00 -0.10000000000E+04  0.10000000000E+04  0.00000000000E+00 0.  1.
    9000005    2    1    2  501    0  0.13137359281E+02 -0.28304927321E+02 -0.44707726905E+03  0.44817671625E+03  0.32442815372E+01 0.  0.
         13    1    3    3    0    0  0.35629662752E+01 -0.10313724012E+02 -0.14087977911E+03  0.14130173316E+03  0.00000000000E+00 0.  1.
          3    1    3    3  501    0  0.95743930054E+01 -0.17991203309E+02 -0.30619748994E+03  0.30687498308E+03  0.00000000000E+00 0.  1.
         -3    1    1    2    0  502 -0.13137359281E+02  0.28304927321E+02 -0.55193229106E+03  0.55281372364E+03  0.00000000000E+00 0. -1.
<mgrwt>
<rscale>  1 0.30000000E+03</rscale>
<asrwt>0</asrwt>
<pdfrwt beam="1">  1       21 0.36016072E-02 0.30000000E+03</pdfrwt>
<pdfrwt beam="2">0</pdfrwt>
<totfact> 0.50152759E+04</totfact>
</mgrwt>
</event>
<event>
 6    1  0.1274196E-001  0.3000000E+03  0.7818608E-02  0.1093470E+00
         21   -1    0    0  501  502  0.00000000000E+00  0.00000000000E+00  0.11929877284E+01  0.11929877284E+01  0.00000000000E+00 0. -1.
         13   -1    0    0    0    0 -0.00000000000E+00 -0.00000000000E+00 -0.10000000000E+04  0.10000000000E+04  0.00000000000E+00 0.  1.
    9000005    2    1    2  501    0 -0.27745599170E+02  0.12981543082E+02 -0.72956761165E+03  0.73021661683E+03  0.30114453247E+01 0.  0.
         13    1    3    3    0    0 -0.21459535693E+02  0.10860347516E+02 -0.59413480583E+03  0.59462141428E+03  0.00000000000E+00 0.  1.
          3    1    3    3  501    0 -0.62860634768E+01  0.21211955663E+01 -0.13543280582E+03  0.13559520256E+03  0.00000000000E+00 0.  1.
         -1    1    1    2    0  502  0.27745599170E+02 -0.12981543082E+02 -0.26923940062E+03  0.27097637089E+03  0.00000000000E+00 0. -1.
<mgrwt>
<rscale>  1 0.30000000E+03</rscale>
<asrwt>0</asrwt>
<pdfrwt beam="1">  1       21 0.43381463E-02 0.30000000E+03</pdfrwt>
<pdfrwt beam="2">0</pdfrwt>
<totfact> 0.36664804E+04</totfact>
</mgrwt>
</event>
<event>
 6    1  0.1274196E-001  0.3000000E+03  0.7818608E-02  0.1093470E+00
         21   -1    0    0  501  502  0.00000000000E+00  0.00000000000E+00  0.10393832439E+01  0.10393832439E+01  0.00000000000E+00 0. -1.
         13   -1    0    0    0    0 -0.00000000000E+00 -0.00000000000E+00 -0.10000000000E+04  0.10000000000E+04  0.00000000000E+00 0.  1.
    9000005    2    1    2  501    0 -0.29882863227E+02 -0.10802210107E+02 -0.42267963977E+03  0.42388304594E+03  0.30142160841E+01 0.  0.
         13    1    3    3    0    0 -0.13373709704E+02 -0.64310454126E+01 -0.19749799801E+03  0.19805472394E+03  0.00000000000E+00 0.  1.
          3    1    3    3  501    0 -0.16509153523E+02 -0.43711646941E+01 -0.22518164176E+03  0.22582832199E+03  0.00000000000E+00 0.  1.
         -1    1    1    2    0  502  0.29882863227E+02  0.10802210107E+02 -0.57628097699E+03  0.57715633731E+03  0.00000000000E+00 0. -1.
<mgrwt>
<rscale>  1 0.30000000E+03</rscale>
<asrwt>0</asrwt>
<pdfrwt beam="1">  1       21 0.37795834E-02 0.30000000E+03</pdfrwt>
<pdfrwt beam="2">0</pdfrwt>
<totfact> 0.46252799E+04</totfact>
</mgrwt>
</event>
<event>
 6    1  0.1274196E-001  0.3000000E+03  0.7818608E-02  0.1093470E+00
         21   -1    0    0  501  502  0.00000000000E+00  0.00000000000E+00  0.45075952418E+01  0.45075952418E+01  0.00000000000E+00 0. -1.
         13   -1    0    0    0    0 -0.00000000000E+00 -0.00000000000E+00 -0.10000000000E+04  0.10000000000E+04  0.00000000000E+00 0.  1.
    9000005    2    1    2  501    0 -0.64678444947E+02  0.16290007274E+02 -0.50957910061E+03  0.51403801950E+03  0.10749890115E+02 0.  0.
         13    1    3    3    0    0 -0.52046269316E+02  0.16573937984E+02 -0.43144947028E+03  0.43489326848E+03  0.00000000000E+00 0.  1.
          1    1    3    3  501    0 -0.12632175632E+02 -0.28393070978E+00 -0.78129630329E+02  0.79144751014E+02  0.00000000000E+00 0.  1.
         -1    1    1    2    0  502  0.64678444947E+02 -0.16290007274E+02 -0.48591330415E+03  0.49046957574E+03  0.00000000000E+00 0. -1.
<mgrwt>
<rscale>  1 0.30000000E+03</rscale>
<asrwt>0</asrwt>
<pdfrwt beam="1">  1       21 0.16391290E-01 0.30000000E+03</pdfrwt>
<pdfrwt beam="2">0</pdfrwt>
<totfact> 0.34916766E+03</totfact>
</mgrwt>
</event>
<event>
 6    1  0.1274196E-001  0.3000000E+03  0.7818608E-02  0.1093470E+00
         21   -1    0    0  501  502  0.00000000000E+00  0.00000000000E+00  0.22691454558E+01  0.22691454558E+01  0.00000000000E+00 0. -1.
         13   -1    0    0    0    0 -0.00000000000E+00 -0.00000000000E+00 -0.10000000000E+04  0.10000000000E+04  0.00000000000E+00 0.  1.
    9000005    2    1    2  501    0  0.34526163636E+02 -0.25007301816E+02 -0.27758652998E+03  0.28086407941E+03  0.35956021678E+01 0.  0.
         13    1    3    3    0    0  0.23205104090E+02 -0.15022009934E+02 -0.17336334600E+03  0.17555337471E+03  0.00000000000E+00 0.  1.
          1    1    3    3  501    0  0.11321059547E+02 -0.99852918822E+01 -0.10422318398E+03  0.10531070469E+03  0.00000000000E+00 0.  1.
         -3    1    1    2    0  502 -0.34526163636E+02  0.25007301816E+02 -0.72014432456E+03  0.72140506605E+03  0.00000000000E+00 0. -1.
<mgrwt>
<rscale>  1 0.30000000E+03</rscale>
<asrwt>0</asrwt>
<pdfrwt beam="1">  1       21 0.82514554E-02 0.30000000E+03</pdfrwt>
<pdfrwt beam="2">0</pdfrwt>
<totfact> 0.12097424E+04</totfact>
</mgrwt>
</event>
<event>
 6    1  0.1274196E-001  0.3000000E+03  0.7818608E-02  0.1093470E+00
         21   -1    0    0  501  502  0.00000000000E+00  0.00000000000E+00  0.21200991664E+01  0.21200991664E+01  0.00000000000E+00 0. -1.
         13   -1    0    0    0    0 -0.00000000000E+00 -0.00000000000E+00 -0.10000000000E+04  0.10000000000E+04  0.00000000000E+00 0.  1.
    9000005    2    1    2  501    0  0.27569934393E+02  0.16425592207E+02 -0.85795604607E+03  0.85856318887E+03  0.35029892871E+01 0.  0.
         13    1    3    3    0    0  0.15309492182E+02  0.10495953338E+02 -0.46080895169E+03  0.46118264879E+03  0.00000000000E+00 0.  1.
          3    1    3    3  501    0  0.12260442211E+02  0.59296388695E+01 -0.39714709437E+03  0.39738054007E+03  0.00000000000E+00 0.  1.
         -1    1    1    2    0  502 -0.27569934393E+02 -0.16425592207E+02 -0.13992385477E+03  0.14355691030E+03  0.00000000000E+00 0. -1.
<mgrwt>
<rscale>  1 0.30000000E+03</rscale>
<asrwt>0</asrwt>
<pdfrwt beam="1">  1       21 0.77094678E-02 0.30000000E+03</pdfrwt>
<pdfrwt beam="2">0</pdfrwt>
<totfact> 0.13630535E+04</totfact>
</mgrwt>
</event>
<event>
 6    1  0.1274196E-001  0.3000000E+03  0.7818608E-02  0.1093470E+00
         21   -1    0    0  501  502  0.00000000000E+00  0.00000000000E+00  0.19952659984E+01  0.19952659984E+01  0.00000000000E+00 0. -1.
         13   -1    0    0    0    0 -0.00000000000E+00 -0.00000000000E+00 -0.10000000000E+04  0.10000000000E+04  0.00000000000E+00 0.  1.
    9000005    2    1    2  501    0 -0.79255658314E+01 -0.31910666678E+02 -0.83778435974E+03  0.83843587749E+03  0.33139087963E+01 0.  0.
         13    1    3    3    0    0 -0.43778199695E+01 -0.16936591062E+02 -0.48717772683E+03  0.48749169320E+03  0.00000000000E+00 0.  1.
          3    1    3    3  501    0 -0.35477458620E+01 -0.14974075615E+02 -0.35060663291E+03  0.35094418429E+03  0.00000000000E+00 0.  1.
         -3    1    1    2    0  502  0.79255658314E+01  0.31910666678E+02 -0.16022037426E+03  0.16355938851E+03  0.00000000000E+00 0. -1.
<mgrwt>
<rscale>  1 0.30000000E+03</rscale>
<asrwt>0</asrwt>
<pdfrwt beam="1">  1       21 0.72555280E-02 0.30000000E+03</pdfrwt>
<pdfrwt beam="2">0</pdfrwt>
<totfact> 0.15157819E+04</totfact>
</mgrwt>
</event>
<event>
 6    1  0.1274196E-001  0.3000000E+03  0.7818608E-02  0.1093470E+00
         21   -1    0    0  501  502  0.00000000000E+00  0.00000000000E+00  0.13878148018E+01  0.13878148018E+01  0.00000000000E+00 0. -1.
         13   -1    0    0    0    0 -0.00000000000E+00 -0.00000000000E+00 -0.10000000000E+04  0.10000000000E+04  0.00000000000E+00 0.  1.
    9000005    2    1    2  501    0  0.93666899461E+01 -0.34658367002E+02 -0.62895240301E+03  0.62998871430E+03  0.39645445482E+01 0.  0.
         13    1    3    3    0    0  0.78220943654E+01 -0.23560204597E+02 -0.41216251762E+03  0.41290944447E+03  0.00000000000E+00 0.  1.
          1    1    3    3  501    0  0.15445955807E+01 -0.11098162405E+02 -0.21678988538E+03  0.21707926983E+03  0.00000000000E+00 0.  1.
         -1    1    1    2    0  502 -0.93666899461E+01  0.34658367002E+02 -0.36965978219E+03  0.37139910050E+03  0.00000000000E+00 0. -1.
<mgrwt>
<rscale>  1 0.30000000E+03</rscale>
<asrwt>0</asrwt>
<pdfrwt beam="1">  1       21 0.50466099E-02 0.30000000E+03</pdfrwt>
<pdfrwt beam="2">0</pdfrwt>
<totfact> 0.28352510E+04</totfact>
</mgrwt>
</event>
<event>
 6    1  0.1274196E-001  0.3000000E+03  0.7818608E-02  0.1093470E+00
         21   -1    0    0  501  502  0.00000000000E+00  0.00000000000E+00  0.36766770465E+01  0.36766770465E+01  0.00000000000E+00 0. -1.
         13   -1    0    0    0    0 -0.00000000000E+00 -0.00000000000E+00 -0.10000000000E+04  0.10000000000E+04  0.00000000000E+00 0.  1.
    9000005    2    1    2  501    0 -0.43273267119E+02 -0.17357630547E+02 -0.81881084036E+03  0.82014318021E+03  0.31274214213E+01 0.  0.
         13    1    3    3    0    0 -0.32179881096E+02 -0.12732405824E+02 -0.58301331445E+03  0.58403953952E+03  0.00000000000E+00 0.  1.
          1    1    3    3  501    0 -0.11093386023E+02 -0.46252247233E+01 -0.23579752592E+03  0.23610364069E+03  0.00000000000E+00 0.  1.
         -1    1    1    2    0  502  0.43273267119E+02  0.17357630547E+02 -0.17751248259E+03  0.18353349684E+03  0.00000000000E+00 0. -1.
<mgrwt>
<rscale>  1 0.30000000E+03</rscale>
<asrwt>0</asrwt>
<pdfrwt beam="1">  1       21 0.13369763E-01 0.30000000E+03</pdfrwt>
<pdfrwt beam="2">0</pdfrwt>
<totfact> 0.50888168E+03</totfact>
</mgrwt>
</event>
<event>
 6    1  0.1274196E-001  0.3000000E+03  0.7818608E-02  0.1093470E+00
         21   -1    0    0  501  502  0.00000000000E+00  0.00000000000E+00  0.20058750019E+01  0.20058750019E+01  0.00000000000E+00 0. -1.
         13   -1    0    0    0    0 -0.00000000000E+00 -0.00000000000E+00 -0.10000000000E+04  0.10000000000E+04  0.00000000000E+00 0.  1.
    9000005    2    1    2  501    0 -0.17477638016E+02 -0.24990704534E+02 -0.86567257268E+03  0.86621560896E+03  0.32365062522E+01 0.  0.
         13    1    3    3    0    0 -0.79309862369E+01 -0.11695934155E+02 -0.44667321412E+03  0.44689669458E+03  0.00000000000E+00 0.  1.
          1    1    3    3  501    0 -0.95466517787E+01 -0.13294770379E+02 -0.41899935857E+03  0.41931891438E+03  0.00000000000E+00 0.  1.
         -1    1    1    2    0  502  0.17477638016E+02  0.24990704534E+02 -0.13232155232E+03  0.13579026604E+03  0.00000000000E+00 0. -1.
<mgrwt>
<rscale>  1 0.30000000E+03</rscale>
<asrwt>0</asrwt>
<pdfrwt beam="1">  1       21 0.72941063E-02 0.30000000E+03</pdfrwt>
<pdfrwt beam="2">0</pdfrwt>
<totfact> 0.15018104E+04</totfact>
</mgrwt>
</event>
<event>
 6    1  0.1274196E-001  0.3000000E+03  0.7818608E-02  0.1093470E+00
         21   -1    0    0  501  502  0.00000000000E+00  0.00000000000E+00  0.36532372447E+01  0.36532372447E+01  0.00000000000E+00 0. -1.
         13   -1    0    0    0    0 -0.00000000000E+00 -0.00000000000E+00 -0.10000000000E+04  0.10000000000E+04  0.00000000000E+00 0.  1.
    9000005    2    1    2  501    0 -0.13623646736E+02 -0.38728344476E+02 -0.86631140843E+03  0.86729091917E+03  0.35487578274E+01 0.  0.
         13    1    3    3    0    0 -0.23819413079E+01 -0.64957194258E+01 -0.17608348289E+03  0.17621935468E+03  0.00000000000E+00 0.  1.
          3    1    3    3  501    0 -0.11241705428E+02 -0.32232625050E+02 -0.69022792554E+03  0.69107156449E+03  0.00000000000E+00 0.  1.
         -3    1    1    2    0  502  0.13623646736E+02  0.38728344476E+02 -0.13003535433E+03  0.13636231808E+03  0.00000000000E+00 0. -1.
<mgrwt>
<rscale>  1 0.30000000E+03</rscale>
<asrwt>0</asrwt>
<pdfrwt beam="1">  1       21 0.13284527E-01 0.30000000E+03</pdfrwt>
<pdfrwt beam="2">0</pdfrwt>
<totfact> 0.51487121E+03</totfact>
</mgrwt>
</event>
<event>
 6    1  0.1274196E-001  0.3000000E+03  0.7818608E-02  0.1093470E+00
         21   -1    0    0  501  502  0.00000000000E+00  0.00000000000E+00  0.10349672250E+01  0.10349672250E+01  0.00000000000E+00 0. -1.
         13   -1    0    0    0    0 -0.00000000000E+00 -0.00000000000E+00 -0.10000000000E+04  0.10000000000E+04  0.00000000000E+00 0.  1.
    9000005    2    1    2  501    0  0.31276642474E+02  0.53466993079E+01 -0.57444190702E+03  0.57532767358E+03  0.34076228423E+01 0.  0.
         13    1    3    3    0    0  0.15627182894E+02  0.43314256917E+01 -0.28347609519E+03  0.28393954750E+03  0.00000000000E+00 0.  1.
          3    1    3    3  501    0  0.15649459581E+02  0.10152736162E+01 -0.29096581183E+03  0.29138812608E+03  0.00000000000E+00 0.  1.
         -3    1    1    2    0  502 -0.31276642474E+02 -0.53466993079E+01 -0.42452312576E+03  0.42570729364E+03  0.00000000000E+00 0. -1.
<mgrwt>
<rscale>  1 0.30000000E+03</rscale>
<asrwt>0</asrwt>
<pdfrwt beam="1">  1       21 0.37635251E-02 0.30000000E+03</pdfrwt>
<pdfrwt beam="2">0</pdfrwt>
<totfact> 0.46584761E+04</totfact>
</mgrwt>
</event>
<event>
 6    1  0.1274196E-001  0.3000000E+03  0.7818608E-02  0.1093470E+00
         21   -1    0    0  501  502  0.00000000000E+00  0.00000000000E+00  0.28606402094E+01  0.28606402094E+01  0.00000000000E+00 0. -1.
         13   -1    0    0    0    0 -0.00000000000E+00 -0.00000000000E+00 -0.10000000000E+04  0.10000000000E+04  0.00000000000E+00 0.  1.
    9000005    2    1    2  501    0 -0.20591957906E+02 -0.28017639783E+02 -0.87937608540E+03  0.88007136680E+03  0.37807693659E+01 0.  0.
         13    1    3    3    0    0 -0.63965400364E+01 -0.11725940218E+02 -0.34629864441E+03  0.34655614916E+03  0.00000000000E+00 0.  1.
          3    1    3    3  501    0 -0.14195417869E+02 -0.16291699565E+02 -0.53307744099E+03  0.53351521764E+03  0.00000000000E+00 0.  1.
         -1    1    1    2    0  502  0.20591957906E+02  0.28017639783E+02 -0.11776327439E+03  0.12278927341E+03  0.00000000000E+00 0. -1.
<mgrwt>
<rscale>  1 0.30000000E+03</rscale>
<asrwt>0</asrwt>
<pdfrwt beam="1">  1       21 0.10402350E-01 0.30000000E+03</pdfrwt>
<pdfrwt beam="2">0</pdfrwt>
<totfact> 0.80169818E+03</totfact>
</mgrwt>
</event>
<event>
 6    1  0.1274196E-001  0.3000000E+03  0.7818608E-02  0.1093470E+00
         21   -1    0    0  501  502  0.00000000000E+00  0.00000000000E+00  0.17661810972E+01  0.17661810972E+01  0.00000000000E+00 0. -1.
         13   -1    0    0    0    0 -0.00000000000E+00 -0.00000000000E+00 -0.10000000000E+04  0.10000000000E+04  0.00000000000E+00 0.  1.
    9000005    2    1    2  501    0  0.38665555810E+02  0.16230812874E+02 -0.51378725787E+03  0.51550808606E+03  0.35743462454E+01 0.  0.
         13    1    3    3    0    0  0.38300966471E+02  0.16369394988E+02 -0.51080917698E+03  0.51250457209E+03  0.00000000000E+00 0.  1.
          3    1    3    3  501    0  0.36458933840E+00 -0.13858211387E+00 -0.29780808817E+01  0.30035139630E+01  0.00000000000E+00 0.  1.
         -3    1    1    2    0  502 -0.38665555810E+02 -0.16230812874E+02 -0.48444656104E+03  0.48625809504E+03  0.00000000000E+00 0. -1.
<mgrwt>
<rscale>  1 0.30000000E+03</rscale>
<asrwt>0</asrwt>
<pdfrwt beam="1">  1       21 0.64224903E-02 0.30000000E+03</pdfrwt>
<pdfrwt beam="2">0</pdfrwt>
<totfact> 0.18735030E+04</totfact>
</mgrwt>
</event>
<event>
 6    1  0.1274196E-001  0.3000000E+03  0.7818608E-02  0.1093470E+00
         21   -1    0    0  501  502  0.00000000000E+00  0.00000000000E+00  0.20056808885E+01  0.20056808885E+01  0.00000000000E+00 0. -1.
         13   -1    0    0    0    0 -0.00000000000E+00 -0.00000000000E+00 -0.10000000000E+04  0.10000000000E+04  0.00000000000E+00 0.  1.
    9000005    2    1    2  501    0  0.38896528208E+02 -0.21692502555E+02 -0.45541670723E+03  0.45760328423E+03  0.35894204335E+01 0.  0.
         13    1    3    3    0    0  0.15392115966E+02 -0.68507707739E+01 -0.18072520913E+03  0.18150881937E+03  0.00000000000E+00 0.  1.
          3    1    3    3  501    0  0.23504412242E+02 -0.14841731781E+02 -0.27469149810E+03  0.27609446486E+03  0.00000000000E+00 0.  1.
         -3    1    1    2    0  502 -0.38896528208E+02  0.21692502555E+02 -0.54257761188E+03  0.54440239666E+03  0.00000000000E+00 0. -1.
<mgrwt>
<rscale>  1 0.30000000E+03</rscale>
<asrwt>0</asrwt>
<pdfrwt beam="1">  1       21 0.72934004E-02 0.30000000E+03</pdfrwt>
<pdfrwt beam="2">0</pdfrwt>
<totfact> 0.15020643E+04</totfact>
</mgrwt>
</event>
<event>
 6    1  0.1274196E-001  0.3000000E+03  0.7818608E-02  0.1093470E+00
         21   -1    0    0  501  502  0.00000000000E+00  0.00000000000E+00  0.84774969734E+01  0.84774969734E+01  0.00000000000E+00 0. -1.
         13   -1    0    0    0    0 -0.00000000000E+00 -0.00000000000E+00 -0.10000000000E+04  0.10000000000E+04  0.00000000000E+00 0.  1.
    9000005    2    1    2  501    0  0.66082782574E+02 -0.64215956952E+01 -0.84493594483E+03  0.84755580767E+03  0.50916801223E+01 0.  0.
         13    1    3    3    0    0  0.38825622775E+02 -0.25570600556E+01 -0.52247047814E+03  0.52391732943E+03  0.00000000000E+00 0.  1.
          3    1    3    3  501    0  0.27257159799E+02 -0.38645356396E+01 -0.32246546669E+03  0.32363847825E+03  0.00000000000E+00 0.  1.
         -1    1    1    2    0  502 -0.66082782574E+02  0.64215956952E+01 -0.14658655819E+03  0.16092168930E+03  0.00000000000E+00 0. -1.
<mgrwt>
<rscale>  1 0.30000000E+03</rscale>
<asrwt>0</asrwt>
<pdfrwt beam="1">  1       21 0.30827327E-01 0.30000000E+03</pdfrwt>
<pdfrwt beam="2">0</pdfrwt>
<totfact> 0.10295765E+03</totfact>
</mgrwt>
</event>
<event>
 6    1  0.1274196E-001  0.3000000E+03  0.7818608E-02  0.1093470E+00
         21   -1    0    0  501  502  0.00000000000E+00  0.00000000000E+00  0.32856798469E+01  0.32856798469E+01  0.00000000000E+00 0. -1.
         13   -1    0    0    0    0 -0.00000000000E+00 -0.00000000000E+00 -0.10000000000E+04  0.10000000000E+04  0.00000000000E+00 0.  1.
    9000005    2    1    2  501    0  0.33369903992E+02  0.15367558460E+02 -0.88325811704E+03  0.88402955895E+03  0.36942446018E+01 0.  0.
         13    1    3    3    0    0  0.23679685926E+01  0.22162219366E+01 -0.81518007671E+02  0.81582501124E+02  0.00000000000E+00 0.  1.
          1    1    3    3  501    0  0.31001935399E+02  0.13151336523E+02 -0.80174010937E+03  0.80244705783E+03  0.00000000000E+00 0.  1.
         -1    1    1    2    0  502 -0.33369903992E+02 -0.15367558460E+02 -0.11345620311E+03  0.11925612089E+03  0.00000000000E+00 0. -1.
<mgrwt>
<rscale>  1 0.30000000E+03</rscale>
<asrwt>0</asrwt>
<pdfrwt beam="1">  1       21 0.11947952E-01 0.30000000E+03</pdfrwt>
<pdfrwt beam="2">0</pdfrwt>
<totfact> 0.62461903E+03</totfact>
</mgrwt>
</event>
<event>
 6    1  0.1274196E-001  0.3000000E+03  0.7818608E-02  0.1093470E+00
         21   -1    0    0  501  502  0.00000000000E+00  0.00000000000E+00  0.15859555067E+01  0.15859555067E+01  0.00000000000E+00 0. -1.
         13   -1    0    0    0    0 -0.00000000000E+00 -0.00000000000E+00 -0.10000000000E+04  0.10000000000E+04  0.00000000000E+00 0.  1.
    9000005    2    1    2  501    0  0.37227716753E+02  0.13717366303E+02 -0.53083368475E+03  0.53232540757E+03  0.34452352033E+01 0.  0.
         13    1    3    3    0    0  0.13761798128E+02  0.41498341510E+01 -0.21140032144E+03  0.21188842374E+03  0.00000000000E+00 0.  1.
          1    1    3    3  501    0  0.23465918624E+02  0.95675321516E+01 -0.31943336332E+03  0.32043698383E+03  0.00000000000E+00 0.  1.
         -1    1    1    2    0  502 -0.37227716753E+02 -0.13717366303E+02 -0.46758035974E+03  0.46926054793E+03  0.00000000000E+00 0. -1.
<mgrwt>
<rscale>  1 0.30000000E+03</rscale>
<asrwt>0</asrwt>
<pdfrwt beam="1">  1       21 0.57671231E-02 0.30000000E+03</pdfrwt>
<pdfrwt beam="2">0</pdfrwt>
<totfact> 0.22559287E+04</totfact>
</mgrwt>
</event>
<event>
 6    1  0.1274196E-001  0.3000000E+03  0.7818608E-02  0.1093470E+00
         21   -1    0    0  501  502  0.00000000000E+00  0.00000000000E+00  0.23041556686E+01  0.23041556686E+01  0.00000000000E+00 0. -1.
         13   -1    0    0    0    0 -0.00000000000E+00 -0.00000000000E+00 -0.10000000000E+04  0.10000000000E+04  0.00000000000E+00 0.  1.
    9000005    2    1    2  501    0 -0.31808277730E+02 -0.17700425787E+01 -0.87355774189E+03  0.87414344382E+03  0.29550602094E+01 0.  0.
         13    1    3    3    0    0 -0.28607886677E+02 -0.10208931003E+01 -0.76282050474E+03  0.76335743650E+03  0.00000000000E+00 0.  1.
          1    1    3    3  501    0 -0.32003910531E+01 -0.74914947845E+00 -0.11073723715E+03  0.11078600733E+03  0.00000000000E+00 0.  1.
         -1    1    1    2    0  502  0.31808277730E+02  0.17700425787E+01 -0.12413810244E+03  0.12816071185E+03  0.00000000000E+00 0. -1.
<mgrwt>
<rscale>  1 0.30000000E+03</rscale>
<asrwt>0</asrwt>
<pdfrwt beam="1">  1       21 0.83787656E-02 0.30000000E+03</pdfrwt>
<pdfrwt beam="2">0</pdfrwt>
<totfact> 0.11775664E+04</totfact>
</mgrwt>
</event>
<event>
 6    1  0.1274196E-001  0.3000000E+03  0.7818608E-02  0.1093470E+00
         21   -1    0    0  501  502  0.00000000000E+00  0.00000000000E+00  0.18742424979E+01  0.18742424979E+01  0.00000000000E+00 0. -1.
         13   -1    0    0    0    0 -0.00000000000E+00 -0.00000000000E+00 -0.10000000000E+04  0.10000000000E+04  0.00000000000E+00 0.  1.
    9000005    2    1    2  501    0 -0.57302946446E+01  0.31796231830E+02 -0.83209786105E+03  0.83273199752E+03  0.34485790460E+01 0.  0.
         13    1    3    3    0    0 -0.24123595234E+01  0.59731562166E+01 -0.17527509296E+03  0.17539343285E+03  0.00000000000E+00 0.  1.
          1    1    3    3  501    0 -0.33179351212E+01  0.25823075613E+02 -0.65682276809E+03  0.65733856467E+03  0.00000000000E+00 0.  1.
         -1    1    1    2    0  502  0.57302946446E+01 -0.31796231830E+02 -0.16602789645E+03  0.16914224498E+03  0.00000000000E+00 0. -1.
<mgrwt>
<rscale>  1 0.30000000E+03</rscale>
<asrwt>0</asrwt>
<pdfrwt beam="1">  1       21 0.68154416E-02 0.30000000E+03</pdfrwt>
<pdfrwt beam="2">0</pdfrwt>
<totfact> 0.16902484E+04</totfact>
</mgrwt>
</event>
<event>
 6    1  0.1274196E-001  0.3000000E+03  0.7818608E-02  0.1093470E+00
         21   -1    0    0  501  502  0.00000000000E+00  0.00000000000E+00  0.16651287483E+01  0.16651287483E+01  0.00000000000E+00 0. -1.
         13   -1    0    0    0    0 -0.00000000000E+00 -0.00000000000E+00 -0.10000000000E+04  0.10000000000E+04  0.00000000000E+00 0.  1.
    9000005    2    1    2  501    0 -0.82174144714E+01  0.39309491600E+02 -0.58239019467E+03  0.58378627549E+03  0.39133825683E+01 0.  0.
         13    1    3    3    0    0 -0.56365470103E+01  0.33543583286E+02 -0.49739712492E+03  0.49855876537E+03  0.00000000000E+00 0.  1.
          1    1    3    3  501    0 -0.25808674612E+01  0.57659083142E+01 -0.84993069752E+02  0.85227510121E+02  0.00000000000E+00 0.  1.
         -1    1    1    2    0  502  0.82174144714E+01 -0.39309491600E+02 -0.41594467658E+03  0.41787885326E+03  0.00000000000E+00 0. -1.
<mgrwt>
<rscale>  1 0.30000000E+03</rscale>
<asrwt>0</asrwt>
<pdfrwt beam="1">  1       21 0.60550264E-02 0.30000000E+03</pdfrwt>
<pdfrwt beam="2">0</pdfrwt>
<totfact> 0.20742436E+04</totfact>
</mgrwt>
</event>
<event>
 6    1  0.1274196E-001  0.3000000E+03  0.7818608E-02  0.1093470E+00
         21   -1    0    0  501  502  0.00000000000E+00  0.00000000000E+00  0.19191109032E+01  0.19191109032E+01  0.00000000000E+00 0. -1.
         13   -1    0    0    0    0 -0.00000000000E+00 -0.00000000000E+00 -0.10000000000E+04  0.10000000000E+04  0.00000000000E+00 0.  1.
    9000005    2    1    2  501    0 -0.17610609406E+01  0.43261120784E+02 -0.56645935667E+03  0.56813140572E+03  0.47397793025E+01 0.  0.
         13    1    3    3    0    0 -0.71259310676E+00  0.43290706298E+01 -0.77088262509E+02  0.77213009643E+02  0.00000000000E+00 0.  1.
          3    1    3    3  501    0 -0.10484678339E+01  0.38932050155E+02 -0.48937109416E+03  0.49091839608E+03  0.00000000000E+00 0.  1.
         -1    1    1    2    0  502  0.17610609406E+01 -0.43261120784E+02 -0.43162153243E+03  0.43378770518E+03  0.00000000000E+00 0. -1.
<mgrwt>
<rscale>  1 0.30000000E+03</rscale>
<asrwt>0</asrwt>
<pdfrwt beam="1">  1       21 0.69785998E-02 0.30000000E+03</pdfrwt>
<pdfrwt beam="2">0</pdfrwt>
<totfact> 0.16221485E+04</totfact>
</mgrwt>
</event>
<event>
 6    1  0.1274196E-001  0.3000000E+03  0.7818608E-02  0.1093470E+00
         21   -1    0    0  501  502  0.00000000000E+00  0.00000000000E+00  0.30024418986E+01  0.30024418986E+01  0.00000000000E+00 0. -1.
         13   -1    0    0    0    0 -0.00000000000E+00 -0.00000000000E+00 -0.10000000000E+04  0.10000000000E+04  0.00000000000E+00 0.  1.
    9000005    2    1    2  501    0 -0.90817804147E+01 -0.31304940130E+02 -0.90151444011E+03  0.90210891469E+03  0.31193295758E+01 0.  0.
         13    1    3    3    0    0 -0.86958836178E+01 -0.25875716873E+02 -0.75672244242E+03  0.75721464987E+03  0.00000000000E+00 0.  1.
          3    1    3    3  501    0 -0.38589679693E+00 -0.54292232571E+01 -0.14479199770E+03  0.14489426482E+03  0.00000000000E+00 0.  1.
         -1    1    1    2    0  502  0.90817804147E+01  0.31304940130E+02 -0.95483117988E+02  0.10089352721E+03  0.00000000000E+00 0. -1.
<mgrwt>
<rscale>  1 0.30000000E+03</rscale>
<asrwt>0</asrwt>
<pdfrwt beam="1">  1       21 0.10917994E-01 0.30000000E+03</pdfrwt>
<pdfrwt beam="2">0</pdfrwt>
<totfact> 0.73502856E+03</totfact>
</mgrwt>
</event>
<event>
 6    1  0.1274196E-001  0.3000000E+03  0.7818608E-02  0.1093470E+00
         21   -1    0    0  501  502  0.00000000000E+00  0.00000000000E+00  0.13295091078E+01  0.13295091078E+01  0.00000000000E+00 0. -1.
         13   -1    0    0    0    0 -0.00000000000E+00 -0.00000000000E+00 -0.10000000000E+04  0.10000000000E+04  0.00000000000E+00 0.  1.
    9000005    2    1    2  501    0 -0.34533935732E+02  0.75035667534E+01 -0.62004743215E+03  0.62106076618E+03  0.29598901912E+01 0.  0.
         13    1    3    3    0    0 -0.28537191890E+02  0.69934331818E+01 -0.49993316292E+03  0.50079581349E+03  0.00000000000E+00 0.  1.
          3    1    3    3  501    0 -0.59967438424E+01  0.51013357160E+00 -0.12011426923E+03  0.12026495269E+03  0.00000000000E+00 0.  1.
         -1    1    1    2    0  502  0.34533935732E+02 -0.75035667534E+01 -0.37862305875E+03  0.38026874292E+03  0.00000000000E+00 0. -1.
<mgrwt>
<rscale>  1 0.30000000E+03</rscale>
<asrwt>0</asrwt>
<pdfrwt beam="1">  1       21 0.48345888E-02 0.30000000E+03</pdfrwt>
<pdfrwt beam="2">0</pdfrwt>
<totfact> 0.30503515E+04</totfact>
</mgrwt>
</event>
<event>
 6    1  0.1274196E-001  0.3000000E+03  0.7818608E-02  0.1093470E+00
         21   -1    0    0  501  502  0.00000000000E+00  0.00000000000E+00  0.13321364851E+01  0.13321364851E+01  0.00000000000E+00 0. -1.
         13   -1    0    0    0    0 -0.00000000000E+00 -0.00000000000E+00 -0.10000000000E+04  0.10000000000E+04  0.00000000000E+00 0.  1.
    9000005    2    1    2  501    0  0.31162586958E+02  0.70243145732E+01 -0.74060023304E+03  0.74129492815E+03  0.30029147130E+01 0.  0.
         13    1    3    3    0    0  0.15505477633E+02  0.38822665363E+01 -0.40404457960E+03  0.40436062387E+03  0.00000000000E+00 0.  1.
          1    1    3    3  501    0  0.15657109325E+02  0.31420480369E+01 -0.33655565344E+03  0.33693430428E+03  0.00000000000E+00 0.  1.
         -1    1    1    2    0  502 -0.31162586958E+02 -0.70243145732E+01 -0.25806763048E+03  0.26003720834E+03  0.00000000000E+00 0. -1.
<mgrwt>
<rscale>  1 0.30000000E+03</rscale>
<asrwt>0</asrwt>
<pdfrwt beam="1">  1       21 0.48441429E-02 0.30000000E+03</pdfrwt>
<pdfrwt beam="2">0</pdfrwt>
<totfact> 0.30401179E+04</totfact>
</mgrwt>
</event>
<event>
 6    1  0.1274196E-001  0.3000000E+03  0.7818608E-02  0.1093470E+00
         21   -1    0    0  501  502  0.00000000000E+00  0.00000000000E+00  0.63522081281E+01  0.63522081281E+01  0.00000000000E+00 0. -1.
         13   -1    0    0    0    0 -0.00000000000E+00 -0.00000000000E+00 -0.10000000000E+04  0.10000000000E+04  0.00000000000E+00 0.  1.
    9000005    2    1    2  501    0 -0.51433132680E+01  0.35915023310E+02 -0.94481758498E+03  0.94551856878E+03  0.29584553331E+01 0.  0.
         13    1    3    3    0    0 -0.10194120445E+01  0.37331811465E+01 -0.82221831689E+02  0.82312851054E+02  0.00000000000E+00 0.  1.
          1    1    3    3  501    0 -0.41239012235E+01  0.32181842164E+02 -0.86259575329E+03  0.86320571773E+03  0.00000000000E+00 0.  1.
         -1    1    1    2    0  502  0.51433132680E+01 -0.35915023310E+02 -0.48830206895E+02  0.60833639346E+02  0.00000000000E+00 0. -1.
<mgrwt>
<rscale>  1 0.30000000E+03</rscale>
<asrwt>0</asrwt>
<pdfrwt beam="1">  1       21 0.23098987E-01 0.30000000E+03</pdfrwt>
<pdfrwt beam="2">0</pdfrwt>
<totfact> 0.18190949E+03</totfact>
</mgrwt>
</event>
<event>
 6    1  0.1274196E-001  0.3000000E+03  0.7818608E-02  0.1093470E+00
         21   -1    0    0  501  502  0.00000000000E+00  0.00000000000E+00  0.53194274961E+01  0.53194274961E+01  0.00000000000E+00 0. -1.
         13   -1    0    0    0    0 -0.00000000000E+00 -0.00000000000E+00 -0.10000000000E+04  0.10000000000E+04  0.00000000000E+00 0.  1.
    9000005    2    1    2  501    0 -0.84497657723E+01  0.32698693277E+02 -0.94279854030E+03  0.94341346373E+03  0.43900890372E+01 0.  0.
         13    1    3    3    0    0 -0.18418355941E+00  0.37737958287E+01 -0.14149587703E+03  0.14154631282E+03  0.00000000000E+00 0.  1.
          1    1    3    3  501    0 -0.82655822129E+01  0.28924897448E+02 -0.80130266327E+03  0.80186715091E+03  0.00000000000E+00 0.  1.
         -1    1    1    2    0  502  0.84497657723E+01 -0.32698693277E+02 -0.51882032207E+02  0.61905963764E+02  0.00000000000E+00 0. -1.
<mgrwt>
<rscale>  1 0.30000000E+03</rscale>
<asrwt>0</asrwt>
<pdfrwt beam="1">  1       21 0.19343414E-01 0.30000000E+03</pdfrwt>
<pdfrwt beam="2">0</pdfrwt>
<totfact> 0.25566878E+03</totfact>
</mgrwt>
</event>
<event>
 6    1  0.1274196E-001  0.3000000E+03  0.7818608E-02  0.1093470E+00
         21   -1    0    0  501  502  0.00000000000E+00  0.00000000000E+00  0.28242322422E+01  0.28242322422E+01  0.00000000000E+00 0. -1.
         13   -1    0    0    0    0 -0.00000000000E+00 -0.00000000000E+00 -0.10000000000E+04  0.10000000000E+04  0.00000000000E+00 0.  1.
    9000005    2    1    2  501    0  0.25962318230E+02 -0.18741209740E+02 -0.89863837030E+03  0.89921490057E+03  0.33528993185E+01 0.  0.
         13    1    3    3    0    0  0.23859452204E+02 -0.16026273866E+02 -0.81178592689E+03  0.81229459312E+03  0.00000000000E+00 0.  1.
          3    1    3    3  501    0  0.21028660256E+01 -0.27149358746E+01 -0.86852443409E+02  0.86920307457E+02  0.00000000000E+00 0.  1.
         -1    1    1    2    0  502 -0.25962318230E+02  0.18741209740E+02 -0.98537397462E+02  0.10360933167E+03  0.00000000000E+00 0. -1.
<mgrwt>
<rscale>  1 0.30000000E+03</rscale>
<asrwt>0</asrwt>
<pdfrwt beam="1">  1       21 0.10269957E-01 0.30000000E+03</pdfrwt>
<pdfrwt beam="2">0</pdfrwt>
<totfact> 0.82029805E+03</totfact>
</mgrwt>
</event>
<event>
 6    1  0.1274196E-001  0.3000000E+03  0.7818608E-02  0.1093470E+00
         21   -1    0    0  501  502  0.00000000000E+00  0.00000000000E+00  0.13581127941E+01  0.13581127941E+01  0.00000000000E+00 0. -1.
         13   -1    0    0    0    0 -0.00000000000E+00 -0.00000000000E+00 -0.10000000000E+04  0.10000000000E+04  0.00000000000E+00 0.  1.
    9000005    2    1    2  501    0 -0.73613537152E+01 -0.35702048119E+02 -0.56689863504E+03  0.56807868614E+03  0.32412144712E+01 0.  0.
         13    1    3    3    0    0 -0.66876093032E+01 -0.28531515253E+02 -0.47008093309E+03  0.47099347675E+03  0.00000000000E+00 0.  1.
          3    1    3    3  501    0 -0.67374441201E+00 -0.71705328661E+01 -0.96817701946E+02  0.97085209395E+02  0.00000000000E+00 0.  1.
         -3    1    1    2    0  502  0.73613537152E+01  0.35702048119E+02 -0.43174325217E+03  0.43327942665E+03  0.00000000000E+00 0. -1.
<mgrwt>
<rscale>  1 0.30000000E+03</rscale>
<asrwt>0</asrwt>
<pdfrwt beam="1">  1       21 0.49386024E-02 0.30000000E+03</pdfrwt>
<pdfrwt beam="2">0</pdfrwt>
<totfact> 0.29417611E+04</totfact>
</mgrwt>
</event>
<event>
 6    1  0.1274196E-001  0.3000000E+03  0.7818608E-02  0.1093470E+00
         21   -1    0    0  501  502  0.00000000000E+00  0.00000000000E+00  0.16431087276E+01  0.16431087276E+01  0.00000000000E+00 0. -1.
         13   -1    0    0    0    0 -0.00000000000E+00 -0.00000000000E+00 -0.10000000000E+04  0.10000000000E+04  0.00000000000E+00 0.  1.
    9000005    2    1    2  501    0 -0.21524882781E+02 -0.27629900815E+02 -0.74967006277E+03  0.75050197178E+03  0.46124430956E+01 0.  0.
         13    1    3    3    0    0 -0.11591408131E+02 -0.11526767396E+02 -0.36930073175E+03  0.36966235618E+03  0.00000000000E+00 0.  1.
          1    1    3    3  501    0 -0.99334746508E+01 -0.16103133418E+02 -0.38036933102E+03  0.38083961560E+03  0.00000000000E+00 0.  1.
         -3    1    1    2    0  502  0.21524882781E+02  0.27629900815E+02 -0.24868682850E+03  0.25114113695E+03  0.00000000000E+00 0. -1.
<mgrwt>
<rscale>  1 0.30000000E+03</rscale>
<asrwt>0</asrwt>
<pdfrwt beam="1">  1       21 0.59749534E-02 0.30000000E+03</pdfrwt>
<pdfrwt beam="2">0</pdfrwt>
<totfact> 0.21224223E+04</totfact>
</mgrwt>
</event>
<event>
 6    1  0.1274196E-001  0.3000000E+03  0.7818608E-02  0.1093470E+00
         21   -1    0    0  501  502  0.00000000000E+00  0.00000000000E+00  0.27784995790E+01  0.27784995790E+01  0.00000000000E+00 0. -1.
         13   -1    0    0    0    0 -0.00000000000E+00 -0.00000000000E+00 -0.10000000000E+04  0.10000000000E+04  0.00000000000E+00 0.  1.
    9000005    2    1    2  501    0 -0.73358879411E+01 -0.43494831459E+02 -0.77279700347E+03  0.77406039700E+03  0.29451683134E+01 0.  0.
         13    1    3    3    0    0 -0.27455852470E+00 -0.37364715695E+01 -0.53730383183E+02  0.53860845511E+02  0.00000000000E+00 0.  1.
          1    1    3    3  501    0 -0.70613294164E+01 -0.39758359889E+02 -0.71906662029E+03  0.72019955149E+03  0.00000000000E+00 0.  1.
         -1    1    1    2    0  502  0.73358879411E+01  0.43494831459E+02 -0.22442449695E+03  0.22871810257E+03  0.00000000000E+00 0. -1.
<mgrwt>
<rscale>  1 0.30000000E+03</rscale>
<asrwt>0</asrwt>
<pdfrwt beam="1">  1       21 0.10103656E-01 0.30000000E+03</pdfrwt>
<pdfrwt beam="2">0</pdfrwt>
<totfact> 0.84460756E+03</totfact>
</mgrwt>
</event>
<event>
 6    1  0.1274196E-001  0.3000000E+03  0.7818608E-02  0.1093470E+00
         21   -1    0    0  501  502  0.00000000000E+00  0.00000000000E+00  0.14326238241E+01  0.14326238241E+01  0.00000000000E+00 0. -1.
         13   -1    0    0    0    0 -0.00000000000E+00 -0.00000000000E+00 -0.10000000000E+04  0.10000000000E+04  0.00000000000E+00 0.  1.
    9000005    2    1    2  501    0 -0.16386850073E+02  0.29046786052E+02 -0.73515391811E+03  0.73591634462E+03  0.30558669163E+01 0.  0.
         13    1    3    3    0    0 -0.14475201179E+02  0.23271834627E+02 -0.60321000961E+03  0.60383228253E+03  0.00000000000E+00 0.  1.
          3    1    3    3  501    0 -0.19116488947E+01  0.57749514248E+01 -0.13194390850E+03  0.13208406208E+03  0.00000000000E+00 0.  1.
         -1    1    1    2    0  502  0.16386850073E+02 -0.29046786052E+02 -0.26341345806E+03  0.26551627921E+03  0.00000000000E+00 0. -1.
<mgrwt>
<rscale>  1 0.30000000E+03</rscale>
<asrwt>0</asrwt>
<pdfrwt beam="1">  1       21 0.52095522E-02 0.30000000E+03</pdfrwt>
<pdfrwt beam="2">0</pdfrwt>
<totfact> 0.26855548E+04</totfact>
</mgrwt>
</event>
<event>
 6    1  0.1274196E-001  0.3000000E+03  0.7818608E-02  0.1093470E+00
         21   -1    0    0  501  502  0.00000000000E+00  0.00000000000E+00  0.20055769540E+01  0.20055769540E+01  0.00000000000E+00 0. -1.
         13   -1    0    0    0    0 -0.00000000000E+00 -0.00000000000E+00 -0.10000000000E+04  0.10000000000E+04  0.00000000000E+00 0.  1.
    9000005    2    1    2  501    0  0.13412965512E+02  0.42493607164E+02 -0.54292473379E+03  0.54475943277E+03  0.31557463378E+01 0.  0.
         13    1    3    3    0    0  0.24127387440E+01  0.67984445123E+01 -0.74897658618E+02  0.75244265048E+02  0.00000000000E+00 0.  1.
          1    1    3    3  501    0  0.11000226768E+02  0.35695162651E+02 -0.46802707518E+03  0.46951516772E+03  0.00000000000E+00 0.  1.
         -3    1    1    2    0  502 -0.13412965512E+02 -0.42493607164E+02 -0.45506968925E+03  0.45724614418E+03  0.00000000000E+00 0. -1.
<mgrwt>
<rscale>  1 0.30000000E+03</rscale>
<asrwt>0</asrwt>
<pdfrwt beam="1">  1       21 0.72930225E-02 0.30000000E+03</pdfrwt>
<pdfrwt beam="2">0</pdfrwt>
<totfact> 0.15022003E+04</totfact>
</mgrwt>
</event>
<event>
 6    1  0.1274196E-001  0.3000000E+03  0.7818608E-02  0.1093470E+00
         21   -1    0    0  501  502  0.00000000000E+00  0.00000000000E+00  0.20826648905E+01  0.20826648905E+01  0.00000000000E+00 0. -1.
         13   -1    0    0    0    0 -0.00000000000E+00 -0.00000000000E+00 -0.10000000000E+04  0.10000000000E+04  0.00000000000E+00 0.  1.
    9000005    2    1    2  501    0  0.14180156647E+02 -0.31125013691E+02 -0.83035678209E+03  0.83106692805E+03  0.31638602010E+01 0.  0.
         13    1    3    3    0    0  0.12154150564E+02 -0.28365531928E+02 -0.76163996257E+03  0.76226488793E+03  0.00000000000E+00 0.  1.
          1    1    3    3  501    0  0.20260060829E+01 -0.27594817628E+01 -0.68716819521E+02  0.68802040124E+02  0.00000000000E+00 0.  1.
         -1    1    1    2    0  502 -0.14180156647E+02  0.31125013691E+02 -0.16756055302E+03  0.17101573684E+03  0.00000000000E+00 0. -1.
<mgrwt>
<rscale>  1 0.30000000E+03</rscale>
<asrwt>0</asrwt>
<pdfrwt beam="1">  1       21 0.75733428E-02 0.30000000E+03</pdfrwt>
<pdfrwt beam="2">0</pdfrwt>
<totfact> 0.14062749E+04</totfact>
</mgrwt>
</event>
<event>
 6    1  0.1274196E-001  0.3000000E+03  0.7818608E-02  0.1093470E+00
         21   -1    0    0  501  502  0.00000000000E+00  0.00000000000E+00  0.15759583705E+01  0.15759583705E+01  0.00000000000E+00 0. -1.
         13   -1    0    0    0    0 -0.00000000000E+00 -0.00000000000E+00 -0.10000000000E+04  0.10000000000E+04  0.00000000000E+00 0.  1.
    9000005    2    1    2  501    0 -0.35946576220E+02 -0.36177990268E+01 -0.29414691361E+03  0.29637278348E+03  0.30290584174E+01 0.  0.
         13    1    3    3    0    0 -0.18622864093E+02 -0.19235260323E+01 -0.16475780115E+03  0.16581810535E+03  0.00000000000E+00 0.  1.
          3    1    3    3  501    0 -0.17323712127E+02 -0.16942729944E+01 -0.12938911245E+03  0.13055467814E+03  0.00000000000E+00 0.  1.
         -3    1    1    2    0  502  0.35946576220E+02  0.36177990268E+01 -0.70427712802E+03  0.70520317489E+03  0.00000000000E+00 0. -1.
<mgrwt>
<rscale>  1 0.30000000E+03</rscale>
<asrwt>0</asrwt>
<pdfrwt beam="1">  1       21 0.57307698E-02 0.30000000E+03</pdfrwt>
<pdfrwt beam="2">0</pdfrwt>
<totfact> 0.22806105E+04</totfact>
</mgrwt>
</event>
<event>
 6    1  0.1274196E-001  0.3000000E+03  0.7818608E-02  0.1093470E+00
         21   -1    0    0  501  502  0.00000000000E+00  0.00000000000E+00  0.11812353004E+01  0.11812353004E+01  0.00000000000E+00 0. -1.
         13   -1    0    0    0    0 -0.00000000000E+00 -0.00000000000E+00 -0.10000000000E+04  0.10000000000E+04  0.00000000000E+00 0.  1.
    9000005    2    1    2  501    0 -0.23679201608E+01  0.34043400033E+02 -0.54818298476E+03  0.54925517244E+03  0.34784391386E+01 0.  0.
         13    1    3    3    0    0  0.92262462649E-01  0.50154301185E+01 -0.63767095566E+02  0.63964095620E+02  0.00000000000E+00 0.  1.
          3    1    3    3  501    0 -0.24601826235E+01  0.29027969915E+02 -0.48441588919E+03  0.48529107682E+03  0.00000000000E+00 0.  1.
         -1    1    1    2    0  502  0.23679201608E+01 -0.34043400033E+02 -0.45063577994E+03  0.45192606286E+03  0.00000000000E+00 0. -1.
<mgrwt>
<rscale>  1 0.30000000E+03</rscale>
<asrwt>0</asrwt>
<pdfrwt beam="1">  1       21 0.42954102E-02 0.30000000E+03</pdfrwt>
<pdfrwt beam="2">0</pdfrwt>
<totfact> 0.37284022E+04</totfact>
</mgrwt>
</event>
<event>
 6    1  0.1274196E-001  0.3000000E+03  0.7818608E-02  0.1093470E+00
         21   -1    0    0  501  502  0.00000000000E+00  0.00000000000E+00  0.16860878533E+01  0.16860878533E+01  0.00000000000E+00 0. -1.
         13   -1    0    0    0    0 -0.00000000000E+00 -0.00000000000E+00 -0.10000000000E+04  0.10000000000E+04  0.00000000000E+00 0.  1.
    9000005    2    1    2  501    0 -0.36584623100E+01 -0.37463011218E+02 -0.69870646153E+03  0.69972336496E+03  0.22817804533E+01 0.  0.
         13    1    3    3    0    0 -0.26401067643E+01 -0.31486494988E+02 -0.57224605177E+03  0.57311771330E+03  0.00000000000E+00 0.  1.
          1    1    3    3  501    0 -0.10183555457E+01 -0.59765162297E+01 -0.12646040977E+03  0.12660565166E+03  0.00000000000E+00 0.  1.
         -3    1    1    2    0  502  0.36584623100E+01  0.37463011218E+02 -0.29960745061E+03  0.30196272290E+03  0.00000000000E+00 0. -1.
<mgrwt>
<rscale>  1 0.30000000E+03</rscale>
<asrwt>0</asrwt>
<pdfrwt beam="1">  1       21 0.61312415E-02 0.30000000E+03</pdfrwt>
<pdfrwt beam="2">0</pdfrwt>
<totfact> 0.20299479E+04</totfact>
</mgrwt>
</event>
<event>
 6    1  0.1274196E-001  0.3000000E+03  0.7818608E-02  0.1093470E+00
         21   -1    0    0  501  502  0.00000000000E+00  0.00000000000E+00  0.22763730468E+01  0.22763730468E+01  0.00000000000E+00 0. -1.
         13   -1    0    0    0    0 -0.00000000000E+00 -0.00000000000E+00 -0.10000000000E+04  0.10000000000E+04  0.00000000000E+00 0.  1.
    9000005    2    1    2  501    0  0.33747669574E+02  0.26442600321E+02 -0.71752721942E+03  0.71881889280E+03  0.41441192144E+01 0.  0.
         13    1    3    3    0    0  0.14208864510E+02  0.86918681792E+01 -0.28793528136E+03  0.28841665460E+03  0.00000000000E+00 0.  1.
          1    1    3    3  501    0  0.19538805065E+02  0.17750732142E+02 -0.42959193807E+03  0.43040223820E+03  0.00000000000E+00 0.  1.
         -1    1    1    2    0  502 -0.33747669574E+02 -0.26442600321E+02 -0.28019640753E+03  0.28345748024E+03  0.00000000000E+00 0. -1.
<mgrwt>
<rscale>  1 0.30000000E+03</rscale>
<asrwt>0</asrwt>
<pdfrwt beam="1">  1       21 0.82777376E-02 0.30000000E+03</pdfrwt>
<pdfrwt beam="2">0</pdfrwt>
<totfact> 0.12029906E+04</totfact>
</mgrwt>
</event>
<event>
 6    1  0.1274196E-001  0.3000000E+03  0.7818608E-02  0.1093470E+00
         21   -1    0    0  501  502  0.00000000000E+00  0.00000000000E+00  0.15009262151E+01  0.15009262151E+01  0.00000000000E+00 0. -1.
         13   -1    0    0    0    0 -0.00000000000E+00 -0.00000000000E+00 -0.10000000000E+04  0.10000000000E+04  0.00000000000E+00 0.  1.
    9000005    2    1    2  501    0  0.28355493556E+02 -0.18019218788E+02 -0.74742370835E+03  0.74818774972E+03  0.37393527051E+01 0.  0.
         13    1    3    3    0    0  0.24526409989E+02 -0.15142155094E+02 -0.66580225343E+03  0.66642589259E+03  0.00000000000E+00 0.  1.
          1    1    3    3  501    0  0.38290835670E+01 -0.28770636946E+01 -0.81621454924E+02  0.81761857124E+02  0.00000000000E+00 0.  1.
         -3    1    1    2    0  502 -0.28355493556E+02  0.18019218788E+02 -0.25107536543E+03  0.25331317650E+03  0.00000000000E+00 0. -1.
<mgrwt>
<rscale>  1 0.30000000E+03</rscale>
<asrwt>0</asrwt>
<pdfrwt beam="1">  1       21 0.54579250E-02 0.30000000E+03</pdfrwt>
<pdfrwt beam="2">0</pdfrwt>
<totfact> 0.24798457E+04</totfact>
</mgrwt>
</event>
<event>
 6    1  0.1274196E-001  0.3000000E+03  0.7818608E-02  0.1093470E+00
         21   -1    0    0  501  502  0.00000000000E+00  0.00000000000E+00  0.30164412162E+01  0.30164412162E+01  0.00000000000E+00 0. -1.
         13   -1    0    0    0    0 -0.00000000000E+00 -0.00000000000E+00 -0.10000000000E+04  0.10000000000E+04  0.00000000000E+00 0.  1.
    9000005    2    1    2  501    0  0.34887011169E+01 -0.37064767166E+02 -0.86693503242E+03  0.86774417056E+03  0.41984632402E+01 0.  0.
         13    1    3    3    0    0  0.24878986078E+00 -0.92043016030E+01 -0.17716660631E+03  0.17740571428E+03  0.00000000000E+00 0.  1.
          3    1    3    3  501    0  0.32399112562E+01 -0.27860465563E+02 -0.68976842611E+03  0.69033845628E+03  0.00000000000E+00 0.  1.
         -1    1    1    2    0  502 -0.34887011169E+01  0.37064767166E+02 -0.13004852636E+03  0.13527227066E+03  0.00000000000E+00 0. -1.
<mgrwt>
<rscale>  1 0.30000000E+03</rscale>
<asrwt>0</asrwt>
<pdfrwt beam="1">  1       21 0.10968900E-01 0.30000000E+03</pdfrwt>
<pdfrwt beam="2">0</pdfrwt>
<totfact> 0.72890528E+03</totfact>
</mgrwt>
</event>
<event>
 6    1  0.1274196E-001  0.3000000E+03  0.7818608E-02  0.1093470E+00
         21   -1    0    0  501  502  0.00000000000E+00  0.00000000000E+00  0.10778616277E+01  0.10778616277E+01  0.00000000000E+00 0. -1.
         13   -1    0    0    0    0 -0.00000000000E+00 -0.00000000000E+00 -0.10000000000E+04  0.10000000000E+04  0.00000000000E+00 0.  1.
    9000005    2    1    2  501    0 -0.31141377392E+02 -0.95161306818E+01 -0.44726540115E+03  0.44846090763E+03  0.32410604159E+01 0.  0.
         13    1    3    3    0    0 -0.21017947187E+02 -0.76797014790E+01 -0.29368593226E+03  0.29453719413E+03  0.00000000000E+00 0.  1.
          3    1    3    3  501    0 -0.10123430204E+02 -0.18364292027E+01 -0.15357946889E+03  0.15392371349E+03  0.00000000000E+00 0.  1.
         -1    1    1    2    0  502  0.31141377392E+02  0.95161306818E+01 -0.55165673722E+03  0.55261695400E+03  0.00000000000E+00 0. -1.
<mgrwt>
<rscale>  1 0.30000000E+03</rscale>
<asrwt>0</asrwt>
<pdfrwt beam="1">  1       21 0.39195051E-02 0.30000000E+03</pdfrwt>
<pdfrwt beam="2">0</pdfrwt>
<totfact> 0.43510980E+04</totfact>
</mgrwt>
</event>
<event>
 6    1  0.1274196E-001  0.3000000E+03  0.7818608E-02  0.1093470E+00
         21   -1    0    0  501  502  0.00000000000E+00  0.00000000000E+00  0.11025418268E+01  0.11025418268E+01  0.00000000000E+00 0. -1.
         13   -1    0    0    0    0 -0.00000000000E+00 -0.00000000000E+00 -0.10000000000E+04  0.10000000000E+04  0.00000000000E+00 0.  1.
    9000005    2    1    2  501    0  0.15623404620E+02  0.28764756687E+02 -0.57633748018E+03  0.57727659052E+03  0.34451274870E+01 0.  0.
         13    1    3    3    0    0  0.12010904987E+01  0.90485326894E+00 -0.21067908403E+02  0.21121508997E+02  0.00000000000E+00 0.  1.
          3    1    3    3  501    0  0.14422314121E+02  0.27859903418E+02 -0.55526957178E+03  0.55615508153E+03  0.00000000000E+00 0.  1.
         -1    1    1    2    0  502 -0.15623404620E+02 -0.28764756687E+02 -0.42255997799E+03  0.42382595130E+03  0.00000000000E+00 0. -1.
<mgrwt>
<rscale>  1 0.30000000E+03</rscale>
<asrwt>0</asrwt>
<pdfrwt beam="1">  1       21 0.40092515E-02 0.30000000E+03</pdfrwt>
<pdfrwt beam="2">0</pdfrwt>
<totfact> 0.41884049E+04</totfact>
</mgrwt>
</event>
<event>
 6    1  0.1274196E-001  0.3000000E+03  0.7818608E-02  0.1093470E+00
         21   -1    0    0  501  502  0.00000000000E+00  0.00000000000E+00  0.11687008346E+02  0.11687008346E+02  0.00000000000E+00 0. -1.
         13   -1    0    0    0    0 -0.00000000000E+00 -0.00000000000E+00 -0.10000000000E+04  0.10000000000E+04  0.00000000000E+00 0.  1.
    9000005    2    1    2  501    0  0.10381064275E+03 -0.26878270944E+02 -0.55760407384E+03  0.56782975327E+03  0.30388387763E+01 0.  0.
         13    1    3    3    0    0  0.35119859392E+02 -0.10566632163E+02 -0.19172635601E+03  0.19520259688E+03  0.00000000000E+00 0.  1.
          3    1    3    3  501    0  0.68690783360E+02 -0.16311638781E+02 -0.36587771782E+03  0.37262715639E+03  0.00000000000E+00 0.  1.
         -3    1    1    2    0  502 -0.10381064275E+03  0.26878270944E+02 -0.43070891781E+03  0.44385725507E+03  0.00000000000E+00 0. -1.
<mgrwt>
<rscale>  1 0.30000000E+03</rscale>
<asrwt>0</asrwt>
<pdfrwt beam="1">  1       21 0.42498302E-01 0.30000000E+03</pdfrwt>
<pdfrwt beam="2">0</pdfrwt>
<totfact> 0.53183391E+02</totfact>
</mgrwt>
</event>
<event>
 6    1  0.1274196E-001  0.3000000E+03  0.7818608E-02  0.1093470E+00
         21   -1    0    0  501  502  0.00000000000E+00  0.00000000000E+00  0.26229117772E+01  0.26229117772E+01  0.00000000000E+00 0. -1.
         13   -1    0    0    0    0 -0.00000000000E+00 -0.00000000000E+00 -0.10000000000E+04  0.10000000000E+04  0.00000000000E+00 0.  1.
    9000005    2    1    2  501    0  0.19036129397E+02 -0.24060663201E+02 -0.98203608576E+02  0.10292616496E+03  0.29252281347E+01 0.  0.
         13    1    3    3    0    0  0.36525063734E+01 -0.29432039408E+01 -0.15389161369E+02  0.16088180129E+02  0.00000000000E+00 0.  1.
          3    1    3    3  501    0  0.15383623024E+02 -0.21117459260E+02 -0.82814447208E+02  0.86837984830E+02  0.00000000000E+00 0.  1.
         -3    1    1    2    0  502 -0.19036129397E+02  0.24060663201E+02 -0.89917347965E+03  0.89969674682E+03  0.00000000000E+00 0. -1.
<mgrwt>
<rscale>  1 0.30000000E+03</rscale>
<asrwt>0</asrwt>
<pdfrwt beam="1">  1       21 0.95378811E-02 0.30000000E+03</pdfrwt>
<pdfrwt beam="2">0</pdfrwt>
<totfact> 0.93611121E+03</totfact>
</mgrwt>
</event>
<event>
 6    1  0.1274196E-001  0.3000000E+03  0.7818608E-02  0.1093470E+00
         21   -1    0    0  501  502  0.00000000000E+00  0.00000000000E+00  0.14761328810E+01  0.14761328810E+01  0.00000000000E+00 0. -1.
         13   -1    0    0    0    0 -0.00000000000E+00 -0.00000000000E+00 -0.10000000000E+04  0.10000000000E+04  0.00000000000E+00 0.  1.
    9000005    2    1    2  501    0 -0.21038131950E+02 -0.24141938232E+02 -0.77518366867E+03  0.77585193111E+03  0.33260593147E+01 0.  0.
         13    1    3    3    0    0 -0.51356952001E+01 -0.44021501506E+01 -0.18702004504E+03  0.18714232962E+03  0.00000000000E+00 0.  1.
          3    1    3    3  501    0 -0.15902436750E+02 -0.19739788082E+02 -0.58816362363E+03  0.58870960149E+03  0.00000000000E+00 0.  1.
         -3    1    1    2    0  502  0.21038131950E+02  0.24141938232E+02 -0.22334019845E+03  0.22562420177E+03  0.00000000000E+00 0. -1.
<mgrwt>
<rscale>  1 0.30000000E+03</rscale>
<asrwt>0</asrwt>
<pdfrwt beam="1">  1       21 0.53677673E-02 0.30000000E+03</pdfrwt>
<pdfrwt beam="2">0</pdfrwt>
<totfact> 0.25516098E+04</totfact>
</mgrwt>
</event>
<event>
 6    1  0.1274196E-001  0.3000000E+03  0.7818608E-02  0.1093470E+00
         21   -1    0    0  501  502  0.00000000000E+00  0.00000000000E+00  0.36281817168E+01  0.36281817168E+01  0.00000000000E+00 0. -1.
         13   -1    0    0    0    0 -0.00000000000E+00 -0.00000000000E+00 -0.10000000000E+04  0.10000000000E+04  0.00000000000E+00 0.  1.
    9000005    2    1    2  501    0 -0.54727932188E+02 -0.24426871017E+02 -0.45365159989E+03  0.45760890180E+03  0.37834288175E+01 0.  0.
         13    1    3    3    0    0 -0.58895120659E+01 -0.31219208529E+01 -0.59451388854E+02  0.59823911431E+02  0.00000000000E+00 0.  1.
          1    1    3    3  501    0 -0.48838420122E+02 -0.21304950164E+02 -0.39420021104E+03  0.39778499037E+03  0.00000000000E+00 0.  1.
         -3    1    1    2    0  502  0.54727932188E+02  0.24426871017E+02 -0.54272021839E+03  0.54601927992E+03  0.00000000000E+00 0. -1.
<mgrwt>
<rscale>  1 0.30000000E+03</rscale>
<asrwt>0</asrwt>
<pdfrwt beam="1">  1       21 0.13193416E-01 0.30000000E+03</pdfrwt>
<pdfrwt beam="2">0</pdfrwt>
<totfact> 0.52139163E+03</totfact>
</mgrwt>
</event>
<event>
 6    1  0.1274196E-001  0.3000000E+03  0.7818608E-02  0.1093470E+00
         21   -1    0    0  501  502  0.00000000000E+00  0.00000000000E+00  0.16170498566E+01  0.16170498566E+01  0.00000000000E+00 0. -1.
         13   -1    0    0    0    0 -0.00000000000E+00 -0.00000000000E+00 -0.10000000000E+04  0.10000000000E+04  0.00000000000E+00 0.  1.
    9000005    2    1    2  501    0 -0.20563048250E+02  0.34290605783E+02 -0.47734448266E+03  0.47904670129E+03  0.54131596613E+01 0.  0.
         13    1    3    3    0    0 -0.55183095110E+01  0.10699282354E+02 -0.17320649532E+03  0.17362435429E+03  0.00000000000E+00 0.  1.
          3    1    3    3  501    0 -0.15044738739E+02  0.23591323428E+02 -0.30413798734E+03  0.30542234700E+03  0.00000000000E+00 0.  1.
         -3    1    1    2    0  502  0.20563048250E+02 -0.34290605783E+02 -0.52103846749E+03  0.52257034856E+03  0.00000000000E+00 0. -1.
<mgrwt>
<rscale>  1 0.30000000E+03</rscale>
<asrwt>0</asrwt>
<pdfrwt beam="1">  1       21 0.58801937E-02 0.30000000E+03</pdfrwt>
<pdfrwt beam="2">0</pdfrwt>
<totfact> 0.21817262E+04</totfact>
</mgrwt>
</event>
<event>
 6    1  0.1274196E-001  0.3000000E+03  0.7818608E-02  0.1093470E+00
         21   -1    0    0  501  502  0.00000000000E+00  0.00000000000E+00  0.14606212373E+01  0.14606212373E+01  0.00000000000E+00 0. -1.
         13   -1    0    0    0    0 -0.00000000000E+00 -0.00000000000E+00 -0.10000000000E+04  0.10000000000E+04  0.00000000000E+00 0.  1.
    9000005    2    1    2  501    0 -0.28848747959E+02  0.12167013535E+02 -0.78565689185E+03  0.78628804001E+03  0.34414643777E+01 0.  0.
         13    1    3    3    0    0 -0.37318670728E+01  0.17190629842E+01 -0.13552249139E+03  0.13558476199E+03  0.00000000000E+00 0.  1.
          1    1    3    3  501    0 -0.25116880886E+02  0.10447950551E+02 -0.65013440045E+03  0.65070327802E+03  0.00000000000E+00 0.  1.
         -1    1    1    2    0  502  0.28848747959E+02 -0.12167013535E+02 -0.21288248692E+03  0.21517258123E+03  0.00000000000E+00 0. -1.
<mgrwt>
<rscale>  1 0.30000000E+03</rscale>
<asrwt>0</asrwt>
<pdfrwt beam="1">  1       21 0.53113612E-02 0.30000000E+03</pdfrwt>
<pdfrwt beam="2">0</pdfrwt>
<totfact> 0.25981530E+04</totfact>
</mgrwt>
</event>
<event>
 6    1  0.1274196E-001  0.3000000E+03  0.7818608E-02  0.1093470E+00
         21   -1    0    0  501  502  0.00000000000E+00  0.00000000000E+00  0.10223875973E+01  0.10223875973E+01  0.00000000000E+00 0. -1.
         13   -1    0    0    0    0 -0.00000000000E+00 -0.00000000000E+00 -0.10000000000E+04  0.10000000000E+04  0.00000000000E+00 0.  1.
    9000005    2    1    2  501    0 -0.24142627575E+02  0.19154048424E+02 -0.63000797912E+03  0.63076796923E+03  0.29039992874E+01 0.  0.
         13    1    3    3    0    0 -0.13104935637E+02  0.11700782947E+02 -0.37879135548E+03  0.37919854779E+03  0.00000000000E+00 0.  1.
          1    1    3    3  501    0 -0.11037691938E+02  0.74532654764E+01 -0.25121662365E+03  0.25156942145E+03  0.00000000000E+00 0.  1.
         -1    1    1    2    0  502  0.24142627575E+02 -0.19154048424E+02 -0.36896963328E+03  0.37025441837E+03  0.00000000000E+00 0. -1.
<mgrwt>
<rscale>  1 0.30000000E+03</rscale>
<asrwt>0</asrwt>
<pdfrwt beam="1">  1       21 0.37177809E-02 0.30000000E+03</pdfrwt>
<pdfrwt beam="2">0</pdfrwt>
<totfact> 0.47551228E+04</totfact>
</mgrwt>
</event>
<event>
 6    1  0.1274196E-001  0.3000000E+03  0.7818608E-02  0.1093470E+00
         21   -1    0    0  501  502  0.00000000000E+00  0.00000000000E+00  0.26352117649E+01  0.26352117649E+01  0.00000000000E+00 0. -1.
         13   -1    0    0    0    0 -0.00000000000E+00 -0.00000000000E+00 -0.10000000000E+04  0.10000000000E+04  0.00000000000E+00 0.  1.
    9000005    2    1    2  501    0 -0.11074237841E+02  0.29775542322E+02 -0.89232387563E+03  0.89289545149E+03  0.33416474598E+01 0.  0.
         13    1    3    3    0    0 -0.97185398746E+01  0.26862073618E+02 -0.77096452137E+03  0.77149356072E+03  0.00000000000E+00 0.  1.
          3    1    3    3  501    0 -0.13556979668E+01  0.29134687033E+01 -0.12135935426E+03  0.12140189077E+03  0.00000000000E+00 0.  1.
         -1    1    1    2    0  502  0.11074237841E+02 -0.29775542322E+02 -0.10504091261E+03  0.10973976028E+03  0.00000000000E+00 0. -1.
<mgrwt>
<rscale>  1 0.30000000E+03</rscale>
<asrwt>0</asrwt>
<pdfrwt beam="1">  1       21 0.95826084E-02 0.30000000E+03</pdfrwt>
<pdfrwt beam="2">0</pdfrwt>
<totfact> 0.92833725E+03</totfact>
</mgrwt>
</event>
<event>
 6    1  0.1274196E-001  0.3000000E+03  0.7818608E-02  0.1093470E+00
         21   -1    0    0  501  502  0.00000000000E+00  0.00000000000E+00  0.11248176004E+01  0.11248176004E+01  0.00000000000E+00 0. -1.
         13   -1    0    0    0    0 -0.00000000000E+00 -0.00000000000E+00 -0.10000000000E+04  0.10000000000E+04  0.00000000000E+00 0.  1.
    9000005    2    1    2  501    0 -0.21984568942E+02  0.20740060265E+02 -0.28610282181E+03  0.28771195719E+03  0.31423389244E+01 0.  0.
         13    1    3    3    0    0 -0.55118110806E+01  0.34484964365E+01 -0.59608498762E+02  0.59962032269E+02  0.00000000000E+00 0.  1.
          3    1    3    3  501    0 -0.16472757861E+02  0.17291563828E+02 -0.22649432304E+03  0.22774992492E+03  0.00000000000E+00 0.  1.
         -3    1    1    2    0  502  0.21984568942E+02 -0.20740060265E+02 -0.71277236059E+03  0.71341286041E+03  0.00000000000E+00 0. -1.
<mgrwt>
<rscale>  1 0.30000000E+03</rscale>
<asrwt>0</asrwt>
<pdfrwt beam="1">  1       21 0.40902544E-02 0.30000000E+03</pdfrwt>
<pdfrwt beam="2">0</pdfrwt>
<totfact> 0.40495806E+04</totfact>
</mgrwt>
</event>
<event>
 6    1  0.1274196E-001  0.3000000E+03  0.7818608E-02  0.1093470E+00
         21   -1    0    0  501  502  0.00000000000E+00  0.00000000000E+00  0.13754333345E+01  0.13754333345E+01  0.00000000000E+00 0. -1.
         13   -1    0    0    0    0 -0.00000000000E+00 -0.00000000000E+00 -0.10000000000E+04  0.10000000000E+04  0.00000000000E+00 0.  1.
    9000005    2    1    2  501    0 -0.30011701848E+02  0.20402053282E+02 -0.59902567643E+03  0.60013209182E+03  0.31337826142E+01 0.  0.
         13    1    3    3    0    0 -0.12362878996E+02  0.98724572086E+01 -0.24470490191E+03  0.24521581353E+03  0.00000000000E+00 0.  1.
          3    1    3    3  501    0 -0.17648822852E+02  0.10529596073E+02 -0.35432077452E+03  0.35491627829E+03  0.00000000000E+00 0.  1.
         -1    1    1    2    0  502  0.30011701848E+02 -0.20402053282E+02 -0.39959889024E+03  0.40124334151E+03  0.00000000000E+00 0. -1.
<mgrwt>
<rscale>  1 0.30000000E+03</rscale>
<asrwt>0</asrwt>
<pdfrwt beam="1">  1       21 0.50015863E-02 0.30000000E+03</pdfrwt>
<pdfrwt beam="2">0</pdfrwt>
<totfact> 0.28789083E+04</totfact>
</mgrwt>
</event>
<event>
 6    1  0.1274196E-001  0.3000000E+03  0.7818608E-02  0.1093470E+00
         21   -1    0    0  501  502  0.00000000000E+00  0.00000000000E+00  0.54790007657E+01  0.54790007657E+01  0.00000000000E+00 0. -1.
         13   -1    0    0    0    0 -0.00000000000E+00 -0.00000000000E+00 -0.10000000000E+04  0.10000000000E+04  0.00000000000E+00 0.  1.
    9000005    2    1    2  501    0  0.34275369484E+02 -0.65315742695E+02 -0.48558491615E+03  0.49122528531E+03  0.82838962004E+01 0.  0.
         13    1    3    3    0    0  0.26556401587E+02 -0.46771260110E+02 -0.33111326949E+03  0.33545311218E+03  0.00000000000E+00 0.  1.
          1    1    3    3  501    0  0.77189678977E+01 -0.18544482585E+02 -0.15447164666E+03  0.15577217313E+03  0.00000000000E+00 0.  1.
         -3    1    1    2    0  502 -0.34275369484E+02  0.65315742695E+02 -0.50893608308E+03  0.51425371545E+03  0.00000000000E+00 0. -1.
<mgrwt>
<rscale>  1 0.30000000E+03</rscale>
<asrwt>0</asrwt>
<pdfrwt beam="1">  1       21 0.19923681E-01 0.30000000E+03</pdfrwt>
<pdfrwt beam="2">0</pdfrwt>
<totfact> 0.24167921E+03</totfact>
</mgrwt>
</event>
<event>
 6    1  0.1274196E-001  0.3000000E+03  0.7818608E-02  0.1093470E+00
         21   -1    0    0  501  502  0.00000000000E+00  0.00000000000E+00  0.72985639001E+01  0.72985639001E+01  0.00000000000E+00 0. -1.
         13   -1    0    0    0    0 -0.00000000000E+00 -0.00000000000E+00 -0.10000000000E+04  0.10000000000E+04  0.00000000000E+00 0.  1.
    9000005    2    1    2  501    0  0.51357712806E+02 -0.54042941163E+02 -0.74212457820E+03  0.74586594185E+03  0.29764907339E+01 0.  0.
         13    1    3    3    0    0  0.25582053813E+02 -0.24768980708E+02 -0.35293008697E+03  0.35472184902E+03  0.00000000000E+00 0.  1.
          1    1    3    3  501    0  0.25775658993E+02 -0.29273960455E+02 -0.38919449123E+03  0.39114409283E+03  0.00000000000E+00 0.  1.
         -1    1    1    2    0  502 -0.51357712806E+02  0.54042941163E+02 -0.25057685790E+03  0.26143262205E+03  0.00000000000E+00 0. -1.
<mgrwt>
<rscale>  1 0.30000000E+03</rscale>
<asrwt>0</asrwt>
<pdfrwt beam="1">  1       21 0.26540288E-01 0.30000000E+03</pdfrwt>
<pdfrwt beam="2">0</pdfrwt>
<totfact> 0.13866826E+03</totfact>
</mgrwt>
</event>
<event>
 6    1  0.1274196E-001  0.3000000E+03  0.7818608E-02  0.1093470E+00
         21   -1    0    0  501  502  0.00000000000E+00  0.00000000000E+00  0.20941785658E+01  0.20941785658E+01  0.00000000000E+00 0. -1.
         13   -1    0    0    0    0 -0.00000000000E+00 -0.00000000000E+00 -0.10000000000E+04  0.10000000000E+04  0.00000000000E+00 0.  1.
    9000005    2    1    2  501    0 -0.30846499582E+02 -0.14840449466E+02 -0.83105401834E+03  0.83176722922E+03  0.37678552041E+01 0.  0.
         13    1    3    3    0    0 -0.27025846600E+02 -0.11806975568E+02 -0.69385724967E+03  0.69448375357E+03  0.00000000000E+00 0.  1.
          1    1    3    3  501    0 -0.38206529822E+01 -0.30334738984E+01 -0.13719676867E+03  0.13728347565E+03  0.00000000000E+00 0.  1.
         -1    1    1    2    0  502  0.30846499582E+02  0.14840449466E+02 -0.16685180309E+03  0.17032694934E+03  0.00000000000E+00 0. -1.
<mgrwt>
<rscale>  1 0.30000000E+03</rscale>
<asrwt>0</asrwt>
<pdfrwt beam="1">  1       21 0.76152108E-02 0.30000000E+03</pdfrwt>
<pdfrwt beam="2">0</pdfrwt>
<totfact> 0.13927584E+04</totfact>
</mgrwt>
</event>
<event>
 6    1  0.1274196E-001  0.3000000E+03  0.7818608E-02  0.1093470E+00
         21   -1    0    0  501  502  0.00000000000E+00  0.00000000000E+00  0.13467381009E+01  0.13467381009E+01  0.00000000000E+00 0. -1.
         13   -1    0    0    0    0 -0.00000000000E+00 -0.00000000000E+00 -0.10000000000E+04  0.10000000000E+04  0.00000000000E+00 0.  1.
    9000005    2    1    2  501    0 -0.25136566494E+01  0.30402915414E+02 -0.77719122366E+03  0.77779341086E+03  0.23950201900E+01 0.  0.
         13    1    3    3    0    0 -0.18217201040E+01  0.10728205731E+02 -0.25990207299E+03  0.26012977647E+03  0.00000000000E+00 0.  1.
          1    1    3    3  501    0 -0.69193654539E+00  0.19674709684E+02 -0.51728915067E+03  0.51766363440E+03  0.00000000000E+00 0.  1.
         -1    1    1    2    0  502  0.25136566494E+01 -0.30402915414E+02 -0.22146203824E+03  0.22355332724E+03  0.00000000000E+00 0. -1.
<mgrwt>
<rscale>  1 0.30000000E+03</rscale>
<asrwt>0</asrwt>
<pdfrwt beam="1">  1       21 0.48972398E-02 0.30000000E+03</pdfrwt>
<pdfrwt beam="2">0</pdfrwt>
<totfact> 0.29842098E+04</totfact>
</mgrwt>
</event>
<event>
 6    1  0.1274196E-001  0.3000000E+03  0.7818608E-02  0.1093470E+00
         21   -1    0    0  501  502  0.00000000000E+00  0.00000000000E+00  0.30871085699E+01  0.30871085699E+01  0.00000000000E+00 0. -1.
         13   -1    0    0    0    0 -0.00000000000E+00 -0.00000000000E+00 -0.10000000000E+04  0.10000000000E+04  0.00000000000E+00 0.  1.
    9000005    2    1    2  501    0 -0.16990066904E+02  0.43243777431E+02 -0.77153786220E+03  0.77297280988E+03  0.75898188174E+01 0.  0.
         13    1    3    3    0    0 -0.16919283939E+02  0.41576779672E+02 -0.71325241610E+03  0.71466348713E+03  0.00000000000E+00 0.  1.
          3    1    3    3  501    0 -0.70782964585E-01  0.16669977587E+01 -0.58285446103E+02  0.58309322746E+02  0.00000000000E+00 0.  1.
         -3    1    1    2    0  502  0.16990066904E+02 -0.43243777431E+02 -0.22537502923E+03  0.23011429869E+03  0.00000000000E+00 0. -1.
<mgrwt>
<rscale>  1 0.30000000E+03</rscale>
<asrwt>0</asrwt>
<pdfrwt beam="1">  1       21 0.11225873E-01 0.30000000E+03</pdfrwt>
<pdfrwt beam="2">0</pdfrwt>
<totfact> 0.69913856E+03</totfact>
</mgrwt>
</event>
<event>
 6    1  0.1274196E-001  0.3000000E+03  0.7818608E-02  0.1093470E+00
         21   -1    0    0  501  502  0.00000000000E+00  0.00000000000E+00  0.17661644217E+01  0.17661644217E+01  0.00000000000E+00 0. -1.
         13   -1    0    0    0    0 -0.00000000000E+00 -0.00000000000E+00 -0.10000000000E+04  0.10000000000E+04  0.00000000000E+00 0.  1.
    9000005    2    1    2  501    0 -0.36036149086E+01 -0.41817052012E+02 -0.49426322733E+03  0.49605080391E+03  0.29343294890E+01 0.  0.
         13    1    3    3    0    0 -0.13111539926E-01 -0.21748392119E+01 -0.34064236596E+02  0.34133595069E+02  0.00000000000E+00 0.  1.
          1    1    3    3  501    0 -0.35905033686E+01 -0.39642212800E+02 -0.46019899074E+03  0.46191720884E+03  0.00000000000E+00 0.  1.
         -3    1    1    2    0  502  0.36036149086E+01  0.41817052012E+02 -0.50397060825E+03  0.50571536051E+03  0.00000000000E+00 0. -1.
<mgrwt>
<rscale>  1 0.30000000E+03</rscale>
<asrwt>0</asrwt>
<pdfrwt beam="1">  1       21 0.64224296E-02 0.30000000E+03</pdfrwt>
<pdfrwt beam="2">0</pdfrwt>
<totfact> 0.18735336E+04</totfact>
</mgrwt>
</event>
<event>
 6    1  0.1274196E-001  0.3000000E+03  0.7818608E-02  0.1093470E+00
         21   -1    0    0  501  502  0.00000000000E+00  0.00000000000E+00  0.33536558527E+01  0.33536558527E+01  0.00000000000E+00 0. -1.
         13   -1    0    0    0    0 -0.00000000000E+00 -0.00000000000E+00 -0.10000000000E+04  0.10000000000E+04  0.00000000000E+00 0.  1.
    9000005    2    1    2  501    0  0.31793642019E+02  0.34194554843E+02 -0.79359687797E+03  0.79500493623E+03  0.75326390752E+01 0.  0.
         13    1    3    3    0    0  0.65665553823E+01  0.32137726970E+01 -0.11257473962E+03  0.11281187874E+03  0.00000000000E+00 0.  1.
          1    1    3    3  501    0  0.25227086637E+02  0.30980782146E+02 -0.68102213835E+03  0.68219305749E+03  0.00000000000E+00 0.  1.
         -1    1    1    2    0  502 -0.31793642019E+02 -0.34194554843E+02 -0.20304946617E+03  0.20834871962E+03  0.00000000000E+00 0. -1.
<mgrwt>
<rscale>  1 0.30000000E+03</rscale>
<asrwt>0</asrwt>
<pdfrwt beam="1">  1       21 0.12195138E-01 0.30000000E+03</pdfrwt>
<pdfrwt beam="2">0</pdfrwt>
<totfact> 0.60181547E+03</totfact>
</mgrwt>
</event>
<event>
 6    1  0.1274196E-001  0.3000000E+03  0.7818608E-02  0.1093470E+00
         21   -1    0    0  501  502  0.00000000000E+00  0.00000000000E+00  0.70495579640E+01  0.70495579640E+01  0.00000000000E+00 0. -1.
         13   -1    0    0    0    0 -0.00000000000E+00 -0.00000000000E+00 -0.10000000000E+04  0.10000000000E+04  0.00000000000E+00 0.  1.
    9000005    2    1    2  501    0 -0.26661838103E+02  0.28759932939E+02 -0.94164706292E+03  0.94247383449E+03  0.44441236733E+01 0.  0.
         13    1    3    3    0    0 -0.57707454965E+01  0.48722459657E+01 -0.14800754194E+03  0.14820011051E+03  0.00000000000E+00 0.  1.
          1    1    3    3  501    0 -0.20891092606E+02  0.23887686973E+02 -0.79363952098E+03  0.79427372398E+03  0.00000000000E+00 0.  1.
         -3    1    1    2    0  502  0.26661838103E+02 -0.28759932939E+02 -0.51303379115E+02  0.64575723475E+02  0.00000000000E+00 0. -1.
<mgrwt>
<rscale>  1 0.30000000E+03</rscale>
<asrwt>0</asrwt>
<pdfrwt beam="1">  1       21 0.25634810E-01 0.30000000E+03</pdfrwt>
<pdfrwt beam="2">0</pdfrwt>
<totfact> 0.14847537E+03</totfact>
</mgrwt>
</event>
<event>
 6    1  0.1274196E-001  0.3000000E+03  0.7818608E-02  0.1093470E+00
         21   -1    0    0  501  502  0.00000000000E+00  0.00000000000E+00  0.21010389171E+01  0.21010389171E+01  0.00000000000E+00 0. -1.
         13   -1    0    0    0    0 -0.00000000000E+00 -0.00000000000E+00 -0.10000000000E+04  0.10000000000E+04  0.00000000000E+00 0.  1.
    9000005    2    1    2  501    0 -0.16889027135E+02 -0.38970565834E+02 -0.68615312192E+03  0.68747520960E+03  0.34803524276E+01 0.  0.
         13    1    3    3    0    0 -0.13978131699E+02 -0.34606664605E+02 -0.61160658726E+03  0.61274434063E+03  0.00000000000E+00 0.  1.
          3    1    3    3  501    0 -0.29108954354E+01 -0.43639012297E+01 -0.74546534666E+02  0.74730868969E+02  0.00000000000E+00 0.  1.
         -3    1    1    2    0  502  0.16889027135E+02  0.38970565834E+02 -0.31174583916E+03  0.31462582931E+03  0.00000000000E+00 0. -1.
<mgrwt>
<rscale>  1 0.30000000E+03</rscale>
<asrwt>0</asrwt>
<pdfrwt beam="1">  1       21 0.76401576E-02 0.30000000E+03</pdfrwt>
<pdfrwt beam="2">0</pdfrwt>
<totfact> 0.13847999E+04</totfact>
</mgrwt>
</event>
<event>
 6    1  0.1274196E-001  0.3000000E+03  0.7818608E-02  0.1093470E+00
         21   -1    0    0  501  502  0.00000000000E+00  0.00000000000E+00  0.78846036056E+01  0.78846036056E+01  0.00000000000E+00 0. -1.
         13   -1    0    0    0    0 -0.00000000000E+00 -0.00000000000E+00 -0.10000000000E+04  0.10000000000E+04  0.00000000000E+00 0.  1.
    9000005    2    1    2  501    0 -0.52220240413E+02 -0.43340839812E+01 -0.90285353250E+03  0.90437896058E+03  0.33264687629E+01 0.  0.
         13    1    3    3    0    0 -0.44675143090E+02 -0.48621755104E+01 -0.77601212725E+03  0.77731224794E+03  0.00000000000E+00 0.  1.
          1    1    3    3  501    0 -0.75450973237E+01  0.52809152916E+00 -0.12684140525E+03  0.12706671264E+03  0.00000000000E+00 0.  1.
         -3    1    1    2    0  502  0.52220240413E+02  0.43340839812E+01 -0.89261863894E+02  0.10350564303E+03  0.00000000000E+00 0. -1.
<mgrwt>
<rscale>  1 0.30000000E+03</rscale>
<asrwt>0</asrwt>
<pdfrwt beam="1">  1       21 0.28671346E-01 0.30000000E+03</pdfrwt>
<pdfrwt beam="2">0</pdfrwt>
<totfact> 0.11900751E+03</totfact>
</mgrwt>
</event>
<event>
 6    1  0.1274196E-001  0.3000000E+03  0.7818608E-02  0.1093470E+00
         21   -1    0    0  501  502  0.00000000000E+00  0.00000000000E+00  0.26305245363E+01  0.26305245363E+01  0.00000000000E+00 0. -1.
         13   -1    0    0    0    0 -0.00000000000E+00 -0.00000000000E+00 -0.10000000000E+04  0.10000000000E+04  0.00000000000E+00 0.  1.
    9000005    2    1    2  501    0  0.23039432967E+02 -0.32310671055E+02 -0.81597362525E+03  0.81694463544E+03  0.32841028975E+01 0.  0.
         13    1    3    3    0    0  0.53123391531E+01 -0.95062807270E+01 -0.20644431801E+03  0.20673133956E+03  0.00000000000E+00 0.  1.
          1    1    3    3  501    0  0.17727093814E+02 -0.22804390328E+02 -0.60952930725E+03  0.61021329588E+03  0.00000000000E+00 0.  1.
         -3    1    1    2    0  502 -0.23039432967E+02  0.32310671055E+02 -0.18139585021E+03  0.18568588909E+03  0.00000000000E+00 0. -1.
<mgrwt>
<rscale>  1 0.30000000E+03</rscale>
<asrwt>0</asrwt>
<pdfrwt beam="1">  1       21 0.95655639E-02 0.30000000E+03</pdfrwt>
<pdfrwt beam="2">0</pdfrwt>
<totfact> 0.93128802E+03</totfact>
</mgrwt>
</event>
<event>
 6    1  0.1274196E-001  0.3000000E+03  0.7818608E-02  0.1093470E+00
         21   -1    0    0  501  502  0.00000000000E+00  0.00000000000E+00  0.16823433793E+01  0.16823433793E+01  0.00000000000E+00 0. -1.
         13   -1    0    0    0    0 -0.00000000000E+00 -0.00000000000E+00 -0.10000000000E+04  0.10000000000E+04  0.00000000000E+00 0.  1.
    9000005    2    1    2  501    0  0.10407697848E+02  0.35917199893E+02 -0.69708275078E+03  0.69813525656E+03  0.83731468032E+01 0.  0.
         13    1    3    3    0    0 -0.12458479050E+01  0.13366730096E+01 -0.31718093151E+02  0.31770682474E+02  0.00000000000E+00 0.  1.
          1    1    3    3  501    0  0.11653545753E+02  0.34580526883E+02 -0.66536465763E+03  0.66636457408E+03  0.00000000000E+00 0.  1.
         -3    1    1    2    0  502 -0.10407697848E+02 -0.35917199893E+02 -0.30123490584E+03  0.30354708682E+03  0.00000000000E+00 0. -1.
<mgrwt>
<rscale>  1 0.30000000E+03</rscale>
<asrwt>0</asrwt>
<pdfrwt beam="1">  1       21 0.61176252E-02 0.30000000E+03</pdfrwt>
<pdfrwt beam="2">0</pdfrwt>
<totfact> 0.20377531E+04</totfact>
</mgrwt>
</event>
<event>
 6    1  0.1274196E-001  0.3000000E+03  0.7818608E-02  0.1093470E+00
         21   -1    0    0  501  502  0.00000000000E+00  0.00000000000E+00  0.13714019588E+01  0.13714019588E+01  0.00000000000E+00 0. -1.
         13   -1    0    0    0    0 -0.00000000000E+00 -0.00000000000E+00 -0.10000000000E+04  0.10000000000E+04  0.00000000000E+00 0.  1.
    9000005    2    1    2  501    0 -0.30553393414E+02  0.75839902475E+01 -0.76208658580E+03  0.76274376250E+03  0.33250899982E+01 0.  0.
         13    1    3    3    0    0 -0.27875303393E+02  0.66032253926E+01 -0.66801211015E+03  0.66862606473E+03  0.00000000000E+00 0.  1.
          1    1    3    3  501    0 -0.26780900213E+01  0.98076485492E+00 -0.94074475649E+02  0.94117697775E+02  0.00000000000E+00 0.  1.
         -3    1    1    2    0  502  0.30553393414E+02 -0.75839902475E+01 -0.23654201224E+03  0.23862763946E+03  0.00000000000E+00 0. -1.
<mgrwt>
<rscale>  1 0.30000000E+03</rscale>
<asrwt>0</asrwt>
<pdfrwt beam="1">  1       21 0.49869267E-02 0.30000000E+03</pdfrwt>
<pdfrwt beam="2">0</pdfrwt>
<totfact> 0.28933492E+04</totfact>
</mgrwt>
</event>
<event>
 6    1  0.1274196E-001  0.3000000E+03  0.7818608E-02  0.1093470E+00
         21   -1    0    0  501  502  0.00000000000E+00  0.00000000000E+00  0.74004502116E+01  0.74004502116E+01  0.00000000000E+00 0. -1.
         13   -1    0    0    0    0 -0.00000000000E+00 -0.00000000000E+00 -0.10000000000E+04  0.10000000000E+04  0.00000000000E+00 0.  1.
    9000005    2    1    2  501    0 -0.20553704197E+02 -0.44585183126E+02 -0.90987181264E+03  0.91120184417E+03  0.34339586385E+01 0.  0.
         13    1    3    3    0    0 -0.11974701689E+02 -0.22705009686E+02 -0.49408201908E+03  0.49474837294E+03  0.00000000000E+00 0.  1.
          3    1    3    3  501    0 -0.85790025081E+01 -0.21880173441E+02 -0.41578979356E+03  0.41645347123E+03  0.00000000000E+00 0.  1.
         -3    1    1    2    0  502  0.20553704197E+02  0.44585183126E+02 -0.82727737150E+02  0.96198606043E+02  0.00000000000E+00 0. -1.
<mgrwt>
<rscale>  1 0.30000000E+03</rscale>
<asrwt>0</asrwt>
<pdfrwt beam="1">  1       21 0.26910785E-01 0.30000000E+03</pdfrwt>
<pdfrwt beam="2">0</pdfrwt>
<totfact> 0.13492672E+03</totfact>
</mgrwt>
</event>
<event>
 6    1  0.1274196E-001  0.3000000E+03  0.7818608E-02  0.1093470E+00
         21   -1    0    0  501  502  0.00000000000E+00  0.00000000000E+00  0.12727452593E+01  0.12727452593E+01  0.00000000000E+00 0. -1.
         13   -1    0    0    0    0 -0.00000000000E+00 -0.00000000000E+00 -0.10000000000E+04  0.10000000000E+04  0.00000000000E+00 0.  1.
    9000005    2    1    2  501    0 -0.26556479992E+02  0.23143759532E+02 -0.42804725967E+03  0.42950658938E+03  0.32517034320E+01 0.  0.
         13    1    3    3    0    0 -0.24924492495E+02  0.22584349341E+02 -0.40978676089E+03  0.41116477544E+03  0.00000000000E+00 0.  1.
          3    1    3    3  501    0 -0.16319874967E+01  0.55941019130E+00 -0.18260498779E+02  0.18341813940E+02  0.00000000000E+00 0.  1.
         -3    1    1    2    0  502  0.26556479992E+02 -0.23143759532E+02 -0.57067999507E+03  0.57176615588E+03  0.00000000000E+00 0. -1.
<mgrwt>
<rscale>  1 0.30000000E+03</rscale>
<asrwt>0</asrwt>
<pdfrwt beam="1">  1       21 0.46281743E-02 0.30000000E+03</pdfrwt>
<pdfrwt beam="2">0</pdfrwt>
<totfact> 0.32853151E+04</totfact>
</mgrwt>
</event>
<event>
 6    1  0.1274196E-001  0.3000000E+03  0.7818608E-02  0.1093470E+00
         21   -1    0    0  501  502  0.00000000000E+00  0.00000000000E+00  0.19229520213E+01  0.19229520213E+01  0.00000000000E+00 0. -1.
         13   -1    0    0    0    0 -0.00000000000E+00 -0.00000000000E+00 -0.10000000000E+04  0.10000000000E+04  0.00000000000E+00 0.  1.
    9000005    2    1    2  501    0 -0.50823697130E+01  0.40702033003E+02 -0.67483686035E+03  0.67609062570E+03  0.33556088764E+01 0.  0.
         13    1    3    3    0    0 -0.21453902545E+01  0.17012791491E+02 -0.25529115779E+03  0.25586639682E+03  0.00000000000E+00 0.  1.
          3    1    3    3  501    0 -0.29369794586E+01  0.23689241512E+02 -0.41954570255E+03  0.42022422888E+03  0.00000000000E+00 0.  1.
         -3    1    1    2    0  502  0.50823697130E+01 -0.40702033003E+02 -0.32324018763E+03  0.32583232632E+03  0.00000000000E+00 0. -1.
<mgrwt>
<rscale>  1 0.30000000E+03</rscale>
<asrwt>0</asrwt>
<pdfrwt beam="1">  1       21 0.69925676E-02 0.30000000E+03</pdfrwt>
<pdfrwt beam="2">0</pdfrwt>
<totfact> 0.16165144E+04</totfact>
</mgrwt>
</event>
<event>
 6    1  0.1274196E-001  0.3000000E+03  0.7818608E-02  0.1093470E+00
         21   -1    0    0  501  502  0.00000000000E+00  0.00000000000E+00  0.43300094681E+01  0.43300094681E+01  0.00000000000E+00 0. -1.
         13   -1    0    0    0    0 -0.00000000000E+00 -0.00000000000E+00 -0.10000000000E+04  0.10000000000E+04  0.00000000000E+00 0.  1.
    9000005    2    1    2  501    0 -0.33157749420E+02 -0.22886948699E+02 -0.89444642336E+03  0.89538296124E+03  0.72797145030E+01 0.  0.
         13    1    3    3    0    0 -0.57589075454E+01 -0.13087234661E+01 -0.10403204594E+03  0.10419954105E+03  0.00000000000E+00 0.  1.
          1    1    3    3  501    0 -0.27398841875E+02 -0.21578225233E+02 -0.79041437742E+03  0.79118342019E+03  0.00000000000E+00 0.  1.
         -1    1    1    2    0  502  0.33157749420E+02  0.22886948699E+02 -0.10122356717E+03  0.10894704823E+03  0.00000000000E+00 0. -1.
<mgrwt>
<rscale>  1 0.30000000E+03</rscale>
<asrwt>0</asrwt>
<pdfrwt beam="1">  1       21 0.15745522E-01 0.30000000E+03</pdfrwt>
<pdfrwt beam="2">0</pdfrwt>
<totfact> 0.37634028E+03</totfact>
</mgrwt>
</event>
<event>
 6    1  0.1274196E-001  0.3000000E+03  0.7818608E-02  0.1093470E+00
         21   -1    0    0  501  502  0.00000000000E+00  0.00000000000E+00  0.35680017081E+01  0.35680017081E+01  0.00000000000E+00 0. -1.
         13   -1    0    0    0    0 -0.00000000000E+00 -0.00000000000E+00 -0.10000000000E+04  0.10000000000E+04  0.00000000000E+00 0.  1.
    9000005    2    1    2  501    0 -0.44686017469E+02 -0.36140432067E+02 -0.63264068967E+03  0.63526501880E+03  0.49427626671E+01 0.  0.
         13    1    3    3    0    0 -0.82023114789E+01 -0.92364694995E+01 -0.13586620535E+03  0.13642659579E+03  0.00000000000E+00 0.  1.
          1    1    3    3  501    0 -0.36483705990E+02 -0.26903962568E+02 -0.49677448432E+03  0.49883842302E+03  0.00000000000E+00 0.  1.
         -1    1    1    2    0  502  0.44686017469E+02  0.36140432067E+02 -0.36379130862E+03  0.36830298291E+03  0.00000000000E+00 0. -1.
<mgrwt>
<rscale>  1 0.30000000E+03</rscale>
<asrwt>0</asrwt>
<pdfrwt beam="1">  1       21 0.12974579E-01 0.30000000E+03</pdfrwt>
<pdfrwt beam="2">0</pdfrwt>
<totfact> 0.53757038E+03</totfact>
</mgrwt>
</event>
<event>
 6    1  0.1274196E-001  0.3000000E+03  0.7818608E-02  0.1093470E+00
         21   -1    0    0  501  502  0.00000000000E+00  0.00000000000E+00  0.12723429005E+01  0.12723429005E+01  0.00000000000E+00 0. -1.
         13   -1    0    0    0    0 -0.00000000000E+00 -0.00000000000E+00 -0.10000000000E+04  0.10000000000E+04  0.00000000000E+00 0.  1.
    9000005    2    1    2  501    0  0.31750187738E+02  0.10241129543E+02 -0.67436206370E+03  0.67519567502E+03  0.34715198598E+01 0.  0.
         13    1    3    3    0    0  0.17143147752E+02  0.68772812969E+01 -0.34883917296E+03  0.34932785904E+03  0.00000000000E+00 0.  1.
          1    1    3    3  501    0  0.14607039986E+02  0.33638482462E+01 -0.32552289074E+03  0.32586781598E+03  0.00000000000E+00 0.  1.
         -1    1    1    2    0  502 -0.31750187738E+02 -0.10241129543E+02 -0.32436559340E+03  0.32607666788E+03  0.00000000000E+00 0. -1.
<mgrwt>
<rscale>  1 0.30000000E+03</rscale>
<asrwt>0</asrwt>
<pdfrwt beam="1">  1       21 0.46267112E-02 0.30000000E+03</pdfrwt>
<pdfrwt beam="2">0</pdfrwt>
<totfact> 0.32870808E+04</totfact>
</mgrwt>
</event>
<event>
 6    1  0.1274196E-001  0.3000000E+03  0.7818608E-02  0.1093470E+00
         21   -1    0    0  501  502  0.00000000000E+00  0.00000000000E+00  0.23209317771E+01  0.23209317771E+01  0.00000000000E+00 0. -1.
         13   -1    0    0    0    0 -0.00000000000E+00 -0.00000000000E+00 -0.10000000000E+04  0.10000000000E+04  0.00000000000E+00 0.  1.
    9000005    2    1    2  501    0 -0.37306055346E+02 -0.71720457938E+01 -0.80674333212E+03  0.80764264504E+03  0.29424748381E+01 0.  0.
         13    1    3    3    0    0 -0.38447921485E+01 -0.12509180942E+01 -0.10314119824E+03  0.10322041463E+03  0.00000000000E+00 0.  1.
          1    1    3    3  501    0 -0.33461263197E+02 -0.59211276996E+01 -0.70360213389E+03  0.70442223041E+03  0.00000000000E+00 0.  1.
         -3    1    1    2    0  502  0.37306055346E+02  0.71720457938E+01 -0.19093573610E+03  0.19467828674E+03  0.00000000000E+00 0. -1.
<mgrwt>
<rscale>  1 0.30000000E+03</rscale>
<asrwt>0</asrwt>
<pdfrwt beam="1">  1       21 0.84397697E-02 0.30000000E+03</pdfrwt>
<pdfrwt beam="2">0</pdfrwt>
<totfact> 0.11626101E+04</totfact>
</mgrwt>
</event>
<event>
 6    1  0.1274196E-001  0.3000000E+03  0.7818608E-02  0.1093470E+00
         21   -1    0    0  501  502  0.00000000000E+00  0.00000000000E+00  0.12713182871E+01  0.12713182871E+01  0.00000000000E+00 0. -1.
         13   -1    0    0    0    0 -0.00000000000E+00 -0.00000000000E+00 -0.10000000000E+04  0.10000000000E+04  0.00000000000E+00 0.  1.
    9000005    2    1    2  501    0 -0.30787942349E+02  0.54957779929E+01 -0.26477305883E+03  0.26664967599E+03  0.43790471090E+01 0.  0.
         13    1    3    3    0    0 -0.73105191896E+01  0.32256951725E+01 -0.65630839548E+02  0.66115473983E+02  0.00000000000E+00 0.  1.
          1    1    3    3  501    0 -0.23477423160E+02  0.22700828204E+01 -0.19914221928E+03  0.20053420201E+03  0.00000000000E+00 0.  1.
         -1    1    1    2    0  502  0.30787942349E+02 -0.54957779929E+01 -0.73395562288E+03  0.73462164230E+03  0.00000000000E+00 0. -1.
<mgrwt>
<rscale>  1 0.30000000E+03</rscale>
<asrwt>0</asrwt>
<pdfrwt beam="1">  1       21 0.46229853E-02 0.30000000E+03</pdfrwt>
<pdfrwt beam="2">0</pdfrwt>
<totfact> 0.32915837E+04</totfact>
</mgrwt>
</event>
<event>
 6    1  0.1274196E-001  0.3000000E+03  0.7818608E-02  0.1093470E+00
         21   -1    0    0  501  502  0.00000000000E+00  0.00000000000E+00  0.96347564182E+00  0.96347564182E+00  0.00000000000E+00 0. -1.
         13   -1    0    0    0    0 -0.00000000000E+00 -0.00000000000E+00 -0.10000000000E+04  0.10000000000E+04  0.00000000000E+00 0.  1.
    9000005    2    1    2  501    0  0.20757682138E+02  0.22951803226E+02 -0.50770054842E+03  0.50865391054E+03  0.33596433211E+01 0.  0.
         13    1    3    3    0    0  0.46530905405E+01  0.39342068265E+01 -0.11821433643E+03  0.11837127427E+03  0.00000000000E+00 0.  1.
          3    1    3    3  501    0  0.16104591597E+02  0.19017596399E+02 -0.38948621199E+03  0.39028263627E+03  0.00000000000E+00 0.  1.
         -1    1    1    2    0  502 -0.20757682138E+02 -0.22951803226E+02 -0.49133597594E+03  0.49230956511E+03  0.00000000000E+00 0. -1.
<mgrwt>
<rscale>  1 0.30000000E+03</rscale>
<asrwt>0</asrwt>
<pdfrwt beam="1">  1       21 0.35035552E-02 0.30000000E+03</pdfrwt>
<pdfrwt beam="2">0</pdfrwt>
<totfact> 0.52527431E+04</totfact>
</mgrwt>
</event>
<event>
 6    1  0.1274196E-001  0.3000000E+03  0.7818608E-02  0.1093470E+00
         21   -1    0    0  501  502  0.00000000000E+00  0.00000000000E+00  0.38423369784E+01  0.38423369784E+01  0.00000000000E+00 0. -1.
         13   -1    0    0    0    0 -0.00000000000E+00 -0.00000000000E+00 -0.10000000000E+04  0.10000000000E+04  0.00000000000E+00 0.  1.
    9000005    2    1    2  501    0 -0.17655565845E+02  0.27812430237E+02 -0.92318184321E+03  0.92377536153E+03  0.33094784312E+01 0.  0.
         13    1    3    3    0    0 -0.12307090180E-01  0.48229211725E+00 -0.72555022953E+01  0.72715246481E+01  0.00000000000E+00 0.  1.
          1    1    3    3  501    0 -0.17643258755E+02  0.27330138120E+02 -0.91592634092E+03  0.91650383688E+03  0.00000000000E+00 0.  1.
         -1    1    1    2    0  502  0.17655565845E+02 -0.27812430237E+02 -0.72975819811E+02  0.80066975452E+02  0.00000000000E+00 0. -1.
<mgrwt>
<rscale>  1 0.30000000E+03</rscale>
<asrwt>0</asrwt>
<pdfrwt beam="1">  1       21 0.13972164E-01 0.30000000E+03</pdfrwt>
<pdfrwt beam="2">0</pdfrwt>
<totfact> 0.46938083E+03</totfact>
</mgrwt>
</event>
<event>
 6    1  0.1274196E-001  0.3000000E+03  0.7818608E-02  0.1093470E+00
         21   -1    0    0  501  502  0.00000000000E+00  0.00000000000E+00  0.31857203913E+01  0.31857203913E+01  0.00000000000E+00 0. -1.
         13   -1    0    0    0    0 -0.00000000000E+00 -0.00000000000E+00 -0.10000000000E+04  0.10000000000E+04  0.00000000000E+00 0.  1.
    9000005    2    1    2  501    0 -0.36211565819E+02  0.13117648909E+02 -0.86491289701E+03  0.86577638685E+03  0.33290247887E+01 0.  0.
         13    1    3    3    0    0 -0.18492105988E+01  0.88281632067E+00 -0.65000890068E+02  0.65033181178E+02  0.00000000000E+00 0.  1.
          3    1    3    3  501    0 -0.34362355220E+02  0.12234832588E+02 -0.79991200694E+03  0.80074320568E+03  0.00000000000E+00 0.  1.
         -1    1    1    2    0  502  0.36211565819E+02 -0.13117648909E+02 -0.13190138260E+03  0.13740933354E+03  0.00000000000E+00 0. -1.
<mgrwt>
<rscale>  1 0.30000000E+03</rscale>
<asrwt>0</asrwt>
<pdfrwt beam="1">  1       21 0.11584462E-01 0.30000000E+03</pdfrwt>
<pdfrwt beam="2">0</pdfrwt>
<totfact> 0.66056149E+03</totfact>
</mgrwt>
</event>
<event>
 6    1  0.1274196E-001  0.3000000E+03  0.7818608E-02  0.1093470E+00
         21   -1    0    0  501  502  0.00000000000E+00  0.00000000000E+00  0.92689274639E+00  0.92689274639E+00  0.00000000000E+00 0. -1.
         13   -1    0    0    0    0 -0.00000000000E+00 -0.00000000000E+00 -0.10000000000E+04  0.10000000000E+04  0.00000000000E+00 0.  1.
    9000005    2    1    2  501    0 -0.29854043962E+02 -0.35827168414E+01 -0.52340944035E+03  0.52431381717E+03  0.65906618838E+01 0.  0.
         13    1    3    3    0    0 -0.12373705786E+02 -0.47399453227E+01 -0.21789322740E+03  0.21829574944E+03  0.00000000000E+00 0.  1.
          1    1    3    3  501    0 -0.17480338177E+02  0.11572284814E+01 -0.30551621295E+03  0.30601806773E+03  0.00000000000E+00 0.  1.
         -3    1    1    2    0  502  0.29854043962E+02  0.35827168414E+01 -0.47566366690E+03  0.47661307558E+03  0.00000000000E+00 0. -1.
<mgrwt>
<rscale>  1 0.30000000E+03</rscale>
<asrwt>0</asrwt>
<pdfrwt beam="1">  1       21 0.33705262E-02 0.30000000E+03</pdfrwt>
<pdfrwt beam="2">0</pdfrwt>
<totfact> 0.56040255E+04</totfact>
</mgrwt>
</event>
<event>
 6    1  0.1274196E-001  0.3000000E+03  0.7818608E-02  0.1093470E+00
         21   -1    0    0  501  502  0.00000000000E+00  0.00000000000E+00  0.15258785757E+01  0.15258785757E+01  0.00000000000E+00 0. -1.
         13   -1    0    0    0    0 -0.00000000000E+00 -0.00000000000E+00 -0.10000000000E+04  0.10000000000E+04  0.00000000000E+00 0.  1.
    9000005    2    1    2  501    0  0.24374324779E+02 -0.28163744495E+02 -0.36512617435E+03  0.36708366192E+03  0.67814040090E+01 0.  0.
         13    1    3    3    0    0  0.11183615957E+02 -0.18019925349E+02 -0.20029610421E+03  0.20141578969E+03  0.00000000000E+00 0.  1.
          3    1    3    3  501    0  0.13190708822E+02 -0.10143819146E+02 -0.16483007014E+03  0.16566787223E+03  0.00000000000E+00 0.  1.
         -3    1    1    2    0  502 -0.24374324779E+02  0.28163744495E+02 -0.63334794707E+03  0.63444221666E+03  0.00000000000E+00 0. -1.
<mgrwt>
<rscale>  1 0.30000000E+03</rscale>
<asrwt>0</asrwt>
<pdfrwt beam="1">  1       21 0.55486611E-02 0.30000000E+03</pdfrwt>
<pdfrwt beam="2">0</pdfrwt>
<totfact> 0.24107154E+04</totfact>
</mgrwt>
</event>
<event>
 6    1  0.1274196E-001  0.3000000E+03  0.7818608E-02  0.1093470E+00
         21   -1    0    0  501  502  0.00000000000E+00  0.00000000000E+00  0.32508022473E+01  0.32508022473E+01  0.00000000000E+00 0. -1.
         13   -1    0    0    0    0 -0.00000000000E+00 -0.00000000000E+00 -0.10000000000E+04  0.10000000000E+04  0.00000000000E+00 0.  1.
    9000005    2    1    2  501    0 -0.18216302104E+02 -0.42103700314E+02 -0.79598613723E+03  0.79731304050E+03  0.30981686464E+01 0.  0.
         13    1    3    3    0    0 -0.76378299149E+01 -0.19446604874E+02 -0.33872748816E+03  0.33937120992E+03  0.00000000000E+00 0.  1.
          3    1    3    3  501    0 -0.10578472189E+02 -0.22657095440E+02 -0.45725864907E+03  0.45794183058E+03  0.00000000000E+00 0.  1.
         -1    1    1    2    0  502  0.18216302104E+02  0.42103700314E+02 -0.20076306052E+03  0.20593776175E+03  0.00000000000E+00 0. -1.
<mgrwt>
<rscale>  1 0.30000000E+03</rscale>
<asrwt>0</asrwt>
<pdfrwt beam="1">  1       21 0.11821124E-01 0.30000000E+03</pdfrwt>
<pdfrwt beam="2">0</pdfrwt>
<totfact> 0.63682119E+03</totfact>
</mgrwt>
</event>
<event>
 6    1  0.1274196E-001  0.3000000E+03  0.7818608E-02  0.1093470E+00
         21   -1    0    0  501  502  0.00000000000E+00  0.00000000000E+00  0.19727405013E+01  0.19727405013E+01  0.00000000000E+00 0. -1.
         13   -1    0    0    0    0 -0.00000000000E+00 -0.00000000000E+00 -0.10000000000E+04  0.10000000000E+04  0.00000000000E+00 0.  1.
    9000005    2    1    2  501    0 -0.22104366041E+01  0.40129561233E+02 -0.28945039840E+03  0.29225699754E+03  0.41655450716E+01 0.  0.
         13    1    3    3    0    0  0.62629270103E+00  0.23198399730E+02 -0.16062103041E+03  0.16228885791E+03  0.00000000000E+00 0.  1.
          1    1    3    3  501    0 -0.28367293052E+01  0.16931161503E+02 -0.12882936799E+03  0.12996813964E+03  0.00000000000E+00 0.  1.
         -3    1    1    2    0  502  0.22104366041E+01 -0.40129561233E+02 -0.70857686110E+03  0.70971574296E+03  0.00000000000E+00 0. -1.
<mgrwt>
<rscale>  1 0.30000000E+03</rscale>
<asrwt>0</asrwt>
<pdfrwt beam="1">  1       21 0.71736170E-02 0.30000000E+03</pdfrwt>
<pdfrwt beam="2">0</pdfrwt>
<totfact> 0.15461098E+04</totfact>
</mgrwt>
</event>
<event>
 6    1  0.1274196E-001  0.3000000E+03  0.7818608E-02  0.1093470E+00
         21   -1    0    0  501  502  0.00000000000E+00  0.00000000000E+00  0.49442162362E+01  0.49442162362E+01  0.00000000000E+00 0. -1.
         13   -1    0    0    0    0 -0.00000000000E+00 -0.00000000000E+00 -0.10000000000E+04  0.10000000000E+04  0.00000000000E+00 0.  1.
    9000005    2    1    2  501    0 -0.34276560149E+02  0.20104392526E+02 -0.91200655294E+03  0.91287769727E+03  0.32662499090E+01 0.  0.
         13    1    3    3    0    0 -0.39153647925E+01  0.11773199114E+01 -0.89080436473E+02  0.89174213346E+02  0.00000000000E+00 0.  1.
          1    1    3    3  501    0 -0.30361195357E+02  0.18927072614E+02 -0.82292611647E+03  0.82370348393E+03  0.00000000000E+00 0.  1.
         -1    1    1    2    0  502  0.34276560149E+02 -0.20104392526E+02 -0.83049230819E+02  0.92066518964E+02  0.00000000000E+00 0. -1.
<mgrwt>
<rscale>  1 0.30000000E+03</rscale>
<asrwt>0</asrwt>
<pdfrwt beam="1">  1       21 0.17979006E-01 0.30000000E+03</pdfrwt>
<pdfrwt beam="2">0</pdfrwt>
<totfact> 0.29359979E+03</totfact>
</mgrwt>
</event>
<event>
 6    1  0.1274196E-001  0.3000000E+03  0.7818608E-02  0.1093470E+00
         21   -1    0    0  501  502  0.00000000000E+00  0.00000000000E+00  0.10883528521E+01  0.10883528521E+01  0.00000000000E+00 0. -1.
         13   -1    0    0    0    0 -0.00000000000E+00 -0.00000000000E+00 -0.10000000000E+04  0.10000000000E+04  0.00000000000E+00 0.  1.
    9000005    2    1    2  501    0  0.45458195765E+01  0.29793389707E+02 -0.69281431234E+03  0.69351090094E+03  0.75754735277E+01 0.  0.
         13    1    3    3    0    0 -0.36612308956E-01  0.14470104694E+02 -0.26137557408E+03  0.26177581247E+03  0.00000000000E+00 0.  1.
          3    1    3    3  501    0  0.45824318854E+01  0.15323285012E+02 -0.43143873826E+03  0.43173508847E+03  0.00000000000E+00 0.  1.
         -3    1    1    2    0  502 -0.45458195765E+01 -0.29793389707E+02 -0.30609733481E+03  0.30757745191E+03  0.00000000000E+00 0. -1.
<mgrwt>
<rscale>  1 0.30000000E+03</rscale>
<asrwt>0</asrwt>
<pdfrwt beam="1">  1       21 0.39576551E-02 0.30000000E+03</pdfrwt>
<pdfrwt beam="2">0</pdfrwt>
<totfact> 0.42807511E+04</totfact>
</mgrwt>
</event>
<event>
 6    1  0.1274196E-001  0.3000000E+03  0.7818608E-02  0.1093470E+00
         21   -1    0    0  501  502  0.00000000000E+00  0.00000000000E+00  0.15747716507E+01  0.15747716507E+01  0.00000000000E+00 0. -1.
         13   -1    0    0    0    0 -0.00000000000E+00 -0.00000000000E+00 -0.10000000000E+04  0.10000000000E+04  0.00000000000E+00 0.  1.
    9000005    2    1    2  501    0 -0.36661927470E+02 -0.14892786023E+02 -0.52408351778E+03  0.52558532808E+03  0.32421423270E+01 0.  0.
         13    1    3    3    0    0 -0.15128342234E+02 -0.49837223130E+01 -0.19532868470E+03  0.19597703767E+03  0.00000000000E+00 0.  1.
          3    1    3    3  501    0 -0.21533585236E+02 -0.99090637104E+01 -0.32875483307E+03  0.32960829041E+03  0.00000000000E+00 0.  1.
         -1    1    1    2    0  502  0.36661927470E+02  0.14892786023E+02 -0.47434171057E+03  0.47598944357E+03  0.00000000000E+00 0. -1.
<mgrwt>
<rscale>  1 0.30000000E+03</rscale>
<asrwt>0</asrwt>
<pdfrwt beam="1">  1       21 0.57264544E-02 0.30000000E+03</pdfrwt>
<pdfrwt beam="2">0</pdfrwt>
<totfact> 0.22835678E+04</totfact>
</mgrwt>
</event>
<event>
 6    1  0.1274196E-001  0.3000000E+03  0.7818608E-02  0.1093470E+00
         21   -1    0    0  501  502  0.00000000000E+00  0.00000000000E+00  0.22279919193E+01  0.22279919193E+01  0.00000000000E+00 0. -1.
         13   -1    0    0    0    0 -0.00000000000E+00 -0.00000000000E+00 -0.10000000000E+04  0.10000000000E+04  0.00000000000E+00 0.  1.
    9000005    2    1    2  501    0 -0.46280789645E+01  0.40447420584E+02 -0.75114605660E+03  0.75226444880E+03  0.48979210531E+01 0.  0.
         13    1    3    3    0    0 -0.49944186812E+01  0.31997891366E+02 -0.62100179622E+03  0.62184567232E+03  0.00000000000E+00 0.  1.
          3    1    3    3  501    0  0.36633971671E+00  0.84495292172E+01 -0.13014426038E+03  0.13041877648E+03  0.00000000000E+00 0.  1.
         -3    1    1    2    0  502  0.46280789645E+01 -0.40447420584E+02 -0.24662595148E+03  0.24996354312E+03  0.00000000000E+00 0. -1.
<mgrwt>
<rscale>  1 0.30000000E+03</rscale>
<asrwt>0</asrwt>
<pdfrwt beam="1">  1       21 0.81018059E-02 0.30000000E+03</pdfrwt>
<pdfrwt beam="2">0</pdfrwt>
<totfact> 0.12493172E+04</totfact>
</mgrwt>
</event>
<event>
 6    1  0.1274196E-001  0.3000000E+03  0.7818608E-02  0.1093470E+00
         21   -1    0    0  501  502  0.00000000000E+00  0.00000000000E+00  0.15750086136E+01  0.15750086136E+01  0.00000000000E+00 0. -1.
         13   -1    0    0    0    0 -0.00000000000E+00 -0.00000000000E+00 -0.10000000000E+04  0.10000000000E+04  0.00000000000E+00 0.  1.
    9000005    2    1    2  501    0 -0.31518120846E+01  0.36056800882E+02 -0.70327161640E+03  0.70421068397E+03  0.34196730833E+01 0.  0.
         13    1    3    3    0    0 -0.33002934042E+01  0.25524251531E+02 -0.52021650878E+03  0.52085275785E+03  0.00000000000E+00 0.  1.
          1    1    3    3  501    0  0.14848131953E+00  0.10532549351E+02 -0.18305510762E+03  0.18335792612E+03  0.00000000000E+00 0.  1.
         -3    1    1    2    0  502  0.31518120846E+01 -0.36056800882E+02 -0.29515337498E+03  0.29736432465E+03  0.00000000000E+00 0. -1.
<mgrwt>
<rscale>  1 0.30000000E+03</rscale>
<asrwt>0</asrwt>
<pdfrwt beam="1">  1       21 0.57273161E-02 0.30000000E+03</pdfrwt>
<pdfrwt beam="2">0</pdfrwt>
<totfact> 0.22829768E+04</totfact>
</mgrwt>
</event>
<event>
 6    1  0.1274196E-001  0.3000000E+03  0.7818608E-02  0.1093470E+00
         21   -1    0    0  501  502  0.00000000000E+00  0.00000000000E+00  0.11239412859E+01  0.11239412859E+01  0.00000000000E+00 0. -1.
         13   -1    0    0    0    0 -0.00000000000E+00 -0.00000000000E+00 -0.10000000000E+04  0.10000000000E+04  0.00000000000E+00 0.  1.
    9000005    2    1    2  501    0  0.20798791229E+02 -0.26071081619E+02 -0.52579266646E+03  0.52686642997E+03  0.42445155593E+01 0.  0.
         13    1    3    3    0    0  0.18682059815E+01 -0.47406854824E+01 -0.76442101352E+02  0.76611742909E+02  0.00000000000E+00 0.  1.
          1    1    3    3  501    0  0.18930585248E+02 -0.21330396136E+02 -0.44935056511E+03  0.45025468706E+03  0.00000000000E+00 0.  1.
         -1    1    1    2    0  502 -0.20798791229E+02  0.26071081619E+02 -0.47308339225E+03  0.47425751131E+03  0.00000000000E+00 0. -1.
<mgrwt>
<rscale>  1 0.30000000E+03</rscale>
<asrwt>0</asrwt>
<pdfrwt beam="1">  1       21 0.40870678E-02 0.30000000E+03</pdfrwt>
<pdfrwt beam="2">0</pdfrwt>
<totfact> 0.40549053E+04</totfact>
</mgrwt>
</event>
<event>
 6    1  0.1274196E-001  0.3000000E+03  0.7818608E-02  0.1093470E+00
         21   -1    0    0  501  502  0.00000000000E+00  0.00000000000E+00  0.95022931685E+00  0.95022931685E+00  0.00000000000E+00 0. -1.
         13   -1    0    0    0    0 -0.00000000000E+00 -0.00000000000E+00 -0.10000000000E+04  0.10000000000E+04  0.00000000000E+00 0.  1.
    9000005    2    1    2  501    0 -0.28894261550E+02  0.92392062229E+01 -0.42062661469E+03  0.42173214545E+03  0.33184700248E+01 0.  0.
         13    1    3    3    0    0 -0.15167176232E+02  0.31382500345E+01 -0.21777933085E+03  0.21832940433E+03  0.00000000000E+00 0.  1.
          1    1    3    3  501    0 -0.13727085318E+02  0.61009561884E+01 -0.20284728384E+03  0.20340274113E+03  0.00000000000E+00 0.  1.
         -1    1    1    2    0  502  0.28894261550E+02 -0.92392062229E+01 -0.57842315600E+03  0.57921808386E+03  0.00000000000E+00 0. -1.
<mgrwt>
<rscale>  1 0.30000000E+03</rscale>
<asrwt>0</asrwt>
<pdfrwt beam="1">  1       21 0.34553866E-02 0.30000000E+03</pdfrwt>
<pdfrwt beam="2">0</pdfrwt>
<totfact> 0.53758769E+04</totfact>
</mgrwt>
</event>
<event>
 6    1  0.1274196E-001  0.3000000E+03  0.7818608E-02  0.1093470E+00
         21   -1    0    0  501  502  0.00000000000E+00  0.00000000000E+00  0.18477529604E+01  0.18477529604E+01  0.00000000000E+00 0. -1.
         13   -1    0    0    0    0 -0.00000000000E+00 -0.00000000000E+00 -0.10000000000E+04  0.10000000000E+04  0.00000000000E+00 0.  1.
    9000005    2    1    2  501    0 -0.24215386023E+02  0.18694342260E+02 -0.85069365082E+03  0.85124927703E+03  0.31274190753E+01 0.  0.
         13    1    3    3    0    0 -0.54584636180E+01  0.34171155584E+01 -0.21147918338E+03  0.21157721169E+03  0.00000000000E+00 0.  1.
          1    1    3    3  501    0 -0.18756922405E+02  0.15277226702E+02 -0.63921446744E+03  0.63967206534E+03  0.00000000000E+00 0.  1.
         -3    1    1    2    0  502  0.24215386023E+02 -0.18694342260E+02 -0.14745859622E+03  0.15059847593E+03  0.00000000000E+00 0. -1.
<mgrwt>
<rscale>  1 0.30000000E+03</rscale>
<asrwt>0</asrwt>
<pdfrwt beam="1">  1       21 0.67191158E-02 0.30000000E+03</pdfrwt>
<pdfrwt beam="2">0</pdfrwt>
<totfact> 0.17325334E+04</totfact>
</mgrwt>
</event>
<event>
 6    1  0.1274196E-001  0.3000000E+03  0.7818608E-02  0.1093470E+00
         21   -1    0    0  501  502  0.00000000000E+00  0.00000000000E+00  0.18934686302E+01  0.18934686302E+01  0.00000000000E+00 0. -1.
         13   -1    0    0    0    0 -0.00000000000E+00 -0.00000000000E+00 -0.10000000000E+04  0.10000000000E+04  0.00000000000E+00 0.  1.
    9000005    2    1    2  501    0  0.86606216780E+01 -0.41887860355E+02 -0.58736836965E+03  0.58893410415E+03  0.34897222471E+01 0.  0.
         13    1    3    3    0    0  0.54398846354E+01 -0.17836014768E+02 -0.25823169637E+03  0.25890408413E+03  0.00000000000E+00 0.  1.
          1    1    3    3  501    0  0.32207370426E+01 -0.24051845586E+02 -0.32913667327E+03  0.33003002002E+03  0.00000000000E+00 0.  1.
         -1    1    1    2    0  502 -0.86606216780E+01  0.41887860355E+02 -0.41073816172E+03  0.41295936448E+03  0.00000000000E+00 0. -1.
<mgrwt>
<rscale>  1 0.30000000E+03</rscale>
<asrwt>0</asrwt>
<pdfrwt beam="1">  1       21 0.68853550E-02 0.30000000E+03</pdfrwt>
<pdfrwt beam="2">0</pdfrwt>
<totfact> 0.16605413E+04</totfact>
</mgrwt>
</event>
<event>
 6    1  0.1274196E-001  0.3000000E+03  0.7818608E-02  0.1093470E+00
         21   -1    0    0  501  502  0.00000000000E+00  0.00000000000E+00  0.23937054929E+01  0.23937054929E+01  0.00000000000E+00 0. -1.
         13   -1    0    0    0    0 -0.00000000000E+00 -0.00000000000E+00 -0.10000000000E+04  0.10000000000E+04  0.00000000000E+00 0.  1.
    9000005    2    1    2  501    0 -0.28079067696E+02  0.31115785416E+02 -0.75584927307E+03  0.75703053883E+03  0.55215001273E+01 0.  0.
         13    1    3    3    0    0 -0.14999671352E+02  0.18169854834E+02 -0.37828341756E+03  0.37901646108E+03  0.00000000000E+00 0.  1.
          3    1    3    3  501    0 -0.13079396345E+02  0.12945930582E+02 -0.37756585551E+03  0.37801407775E+03  0.00000000000E+00 0.  1.
         -1    1    1    2    0  502  0.28079067696E+02 -0.31115785416E+02 -0.24175702143E+03  0.24536316667E+03  0.00000000000E+00 0. -1.
<mgrwt>
<rscale>  1 0.30000000E+03</rscale>
<asrwt>0</asrwt>
<pdfrwt beam="1">  1       21 0.87044020E-02 0.30000000E+03</pdfrwt>
<pdfrwt beam="2">0</pdfrwt>
<totfact> 0.11009694E+04</totfact>
</mgrwt>
</event>
<event>
 6    1  0.1274196E-001  0.3000000E+03  0.7818608E-02  0.1093470E+00
         21   -1    0    0  501  502  0.00000000000E+00  0.00000000000E+00  0.20977364271E+01  0.20977364271E+01  0.00000000000E+00 0. -1.
         13   -1    0    0    0    0 -0.00000000000E+00 -0.00000000000E+00 -0.10000000000E+04  0.10000000000E+04  0.00000000000E+00 0.  1.
    9000005    2    1    2  501    0  0.24935458917E+02  0.21820726569E+02 -0.15443810427E+03  0.15798298756E+03  0.30943641915E+01 0.  0.
         13    1    3    3    0    0  0.27354397410E+01  0.36154805911E+01 -0.18683109265E+02  0.19225319303E+02  0.00000000000E+00 0.  1.
          1    1    3    3  501    0  0.22200019176E+02  0.18205245978E+02 -0.13575499500E+03  0.13875766826E+03  0.00000000000E+00 0.  1.
         -3    1    1    2    0  502 -0.24935458917E+02 -0.21820726569E+02 -0.84346415931E+03  0.84411474887E+03  0.00000000000E+00 0. -1.
<mgrwt>
<rscale>  1 0.30000000E+03</rscale>
<asrwt>0</asrwt>
<pdfrwt beam="1">  1       21 0.76281485E-02 0.30000000E+03</pdfrwt>
<pdfrwt beam="2">0</pdfrwt>
<totfact> 0.13886223E+04</totfact>
</mgrwt>
</event>
<event>
 6    1  0.1274196E-001  0.3000000E+03  0.7818608E-02  0.1093470E+00
         21   -1    0    0  501  502  0.00000000000E+00  0.00000000000E+00  0.20116490836E+01  0.20116490836E+01  0.00000000000E+00 0. -1.
         13   -1    0    0    0    0 -0.00000000000E+00 -0.00000000000E+00 -0.10000000000E+04  0.10000000000E+04  0.00000000000E+00 0.  1.
    9000005    2    1    2  501    0  0.34526847427E+02  0.15667212987E+01 -0.81794444502E+03  0.81868034827E+03  0.31368280037E+01 0.  0.
         13    1    3    3    0    0  0.12834505712E+02 -0.55944500316E+00 -0.32721762011E+03  0.32746970612E+03  0.00000000000E+00 0.  1.
          1    1    3    3  501    0  0.21692341715E+02  0.21261663018E+01 -0.49072682490E+03  0.49121064214E+03  0.00000000000E+00 0.  1.
         -3    1    1    2    0  502 -0.34526847427E+02 -0.15667212987E+01 -0.18004390590E+03  0.18333130082E+03  0.00000000000E+00 0. -1.
<mgrwt>
<rscale>  1 0.30000000E+03</rscale>
<asrwt>0</asrwt>
<pdfrwt beam="1">  1       21 0.73151030E-02 0.30000000E+03</pdfrwt>
<pdfrwt beam="2">0</pdfrwt>
<totfact> 0.14942883E+04</totfact>
</mgrwt>
</event>
<event>
 6    1  0.1274196E-001  0.3000000E+03  0.7818608E-02  0.1093470E+00
         21   -1    0    0  501  502  0.00000000000E+00  0.00000000000E+00  0.23943123650E+01  0.23943123650E+01  0.00000000000E+00 0. -1.
         13   -1    0    0    0    0 -0.00000000000E+00 -0.00000000000E+00 -0.10000000000E+04  0.10000000000E+04  0.00000000000E+00 0.  1.
    9000005    2    1    2  501    0  0.32154206293E+02  0.14105292715E+02 -0.84760818463E+03  0.84834203821E+03  0.34244526939E+01 0.  0.
         13    1    3    3    0    0  0.62099862069E+01  0.28642273880E+01 -0.13494123277E+03  0.13511441088E+03  0.00000000000E+00 0.  1.
          1    1    3    3  501    0  0.25944220086E+02  0.11241065327E+02 -0.71266695186E+03  0.71322762732E+03  0.00000000000E+00 0.  1.
         -1    1    1    2    0  502 -0.32154206293E+02 -0.14105292715E+02 -0.14999750301E+03  0.15405227416E+03  0.00000000000E+00 0. -1.
<mgrwt>
<rscale>  1 0.30000000E+03</rscale>
<asrwt>0</asrwt>
<pdfrwt beam="1">  1       21 0.87066088E-02 0.30000000E+03</pdfrwt>
<pdfrwt beam="2">0</pdfrwt>
<totfact> 0.11004765E+04</totfact>
</mgrwt>
</event>
<event>
 6    1  0.1274196E-001  0.3000000E+03  0.7818608E-02  0.1093470E+00
         21   -1    0    0  501  502  0.00000000000E+00  0.00000000000E+00  0.24199112696E+01  0.24199112696E+01  0.00000000000E+00 0. -1.
         13   -1    0    0    0    0 -0.00000000000E+00 -0.00000000000E+00 -0.10000000000E+04  0.10000000000E+04  0.00000000000E+00 0.  1.
    9000005    2    1    2  501    0  0.16499463221E+01 -0.32128442914E+02 -0.12090137104E+03  0.12515111938E+03  0.32713906076E+01 0.  0.
         13    1    3    3    0    0  0.14653183656E+00 -0.16645325994E+02 -0.56775914858E+02  0.59165808175E+02  0.00000000000E+00 0.  1.
          3    1    3    3  501    0  0.15034144855E+01 -0.15483116920E+02 -0.64125456178E+02  0.65985311204E+02  0.00000000000E+00 0.  1.
         -3    1    1    2    0  502 -0.16499463221E+01  0.32128442914E+02 -0.87667871769E+03  0.87726879189E+03  0.00000000000E+00 0. -1.
<mgrwt>
<rscale>  1 0.30000000E+03</rscale>
<asrwt>0</asrwt>
<pdfrwt beam="1">  1       21 0.87996959E-02 0.30000000E+03</pdfrwt>
<pdfrwt beam="2">0</pdfrwt>
<totfact> 0.10799852E+04</totfact>
</mgrwt>
</event>
<event>
 6    1  0.1274196E-001  0.3000000E+03  0.7818608E-02  0.1093470E+00
         21   -1    0    0  501  502  0.00000000000E+00  0.00000000000E+00  0.16142838194E+01  0.16142838194E+01  0.00000000000E+00 0. -1.
         13   -1    0    0    0    0 -0.00000000000E+00 -0.00000000000E+00 -0.10000000000E+04  0.10000000000E+04  0.00000000000E+00 0.  1.
    9000005    2    1    2  501    0  0.29405742948E+02 -0.14758499813E+02 -0.78596494579E+03  0.78666058014E+03  0.33854526470E+01 0.  0.
         13    1    3    3    0    0  0.58709440687E+01 -0.36864711933E+01 -0.19609998262E+03  0.19622247893E+03  0.00000000000E+00 0.  1.
          1    1    3    3  501    0  0.23534798879E+02 -0.11072028620E+02 -0.58986496318E+03  0.59043810121E+03  0.00000000000E+00 0.  1.
         -1    1    1    2    0  502 -0.29405742948E+02  0.14758499813E+02 -0.21242077039E+03  0.21495370368E+03  0.00000000000E+00 0. -1.
<mgrwt>
<rscale>  1 0.30000000E+03</rscale>
<asrwt>0</asrwt>
<pdfrwt beam="1">  1       21 0.58701354E-02 0.30000000E+03</pdfrwt>
<pdfrwt beam="2">0</pdfrwt>
<totfact> 0.21881724E+04</totfact>
</mgrwt>
</event>
<event>
 6    1  0.1274196E-001  0.3000000E+03  0.7818608E-02  0.1093470E+00
         21   -1    0    0  501  502  0.00000000000E+00  0.00000000000E+00  0.10856491933E+01  0.10856491933E+01  0.00000000000E+00 0. -1.
         13   -1    0    0    0    0 -0.00000000000E+00 -0.00000000000E+00 -0.10000000000E+04  0.10000000000E+04  0.00000000000E+00 0.  1.
    9000005    2    1    2  501    0  0.30981401851E+02  0.47271392782E+01 -0.35347283303E+03  0.35488371019E+03  0.41486092819E+01 0.  0.
         13    1    3    3    0    0  0.11749833934E+02  0.37337815333E+01 -0.13083890348E+03  0.13141848571E+03  0.00000000000E+00 0.  1.
          3    1    3    3  501    0  0.19231567917E+02  0.99335774494E+00 -0.22263392955E+03  0.22346522447E+03  0.00000000000E+00 0.  1.
         -1    1    1    2    0  502 -0.30981401851E+02 -0.47271392782E+01 -0.64544151778E+03  0.64620193901E+03  0.00000000000E+00 0. -1.
<mgrwt>
<rscale>  1 0.30000000E+03</rscale>
<asrwt>0</asrwt>
<pdfrwt beam="1">  1       21 0.39478236E-02 0.30000000E+03</pdfrwt>
<pdfrwt beam="2">0</pdfrwt>
<totfact> 0.42987087E+04</totfact>
</mgrwt>
</event>
<event>
 6    1  0.1274196E-001  0.3000000E+03  0.7818608E-02  0.1093470E+00
         21   -1    0    0  501  502  0.00000000000E+00  0.00000000000E+00  0.94566279071E+00  0.94566279071E+00  0.00000000000E+00 0. -1.
         13   -1    0    0    0    0 -0.00000000000E+00 -0.00000000000E+00 -0.10000000000E+04  0.10000000000E+04  0.00000000000E+00 0.  1.
    9000005    2    1    2  501    0  0.24701875762E+02  0.17370402906E+02 -0.41387806637E+03  0.41499073149E+03  0.32155616112E+01 0.  0.
         13    1    3    3    0    0  0.23234841375E+01  0.24797259227E+01 -0.37249260263E+02  0.37403943767E+02  0.00000000000E+00 0.  1.
          3    1    3    3  501    0  0.22378391624E+02  0.14890676983E+02 -0.37662880611E+03  0.37758678773E+03  0.00000000000E+00 0.  1.
         -3    1    1    2    0  502 -0.24701875762E+02 -0.17370402906E+02 -0.58517627084E+03  0.58595493130E+03  0.00000000000E+00 0. -1.
<mgrwt>
<rscale>  1 0.30000000E+03</rscale>
<asrwt>0</asrwt>
<pdfrwt beam="1">  1       21 0.34387810E-02 0.30000000E+03</pdfrwt>
<pdfrwt beam="2">0</pdfrwt>
<totfact> 0.54193691E+04</totfact>
</mgrwt>
</event>
<event>
 6    1  0.1274196E-001  0.3000000E+03  0.7818608E-02  0.1093470E+00
         21   -1    0    0  501  502  0.00000000000E+00  0.00000000000E+00  0.16456990142E+01  0.16456990142E+01  0.00000000000E+00 0. -1.
         13   -1    0    0    0    0 -0.00000000000E+00 -0.00000000000E+00 -0.10000000000E+04  0.10000000000E+04  0.00000000000E+00 0.  1.
    9000005    2    1    2  501    0  0.14346359563E+01  0.39052151571E+02 -0.36866391362E+03  0.37074387411E+03  0.32878966102E+01 0.  0.
         13    1    3    3    0    0 -0.80775689311E+00  0.10219900326E+02 -0.10453795523E+03  0.10503943506E+03  0.00000000000E+00 0.  1.
          1    1    3    3  501    0  0.22423928494E+01  0.28832251245E+02 -0.26412595839E+03  0.26570443905E+03  0.00000000000E+00 0.  1.
         -1    1    1    2    0  502 -0.14346359563E+01 -0.39052151571E+02 -0.62969038737E+03  0.63090182491E+03  0.00000000000E+00 0. -1.
<mgrwt>
<rscale>  1 0.30000000E+03</rscale>
<asrwt>0</asrwt>
<pdfrwt beam="1">  1       21 0.59843727E-02 0.30000000E+03</pdfrwt>
<pdfrwt beam="2">0</pdfrwt>
<totfact> 0.21166650E+04</totfact>
</mgrwt>
</event>
<event>
 6    1  0.1274196E-001  0.3000000E+03  0.7818608E-02  0.1093470E+00
         21   -1    0    0  501  502  0.00000000000E+00  0.00000000000E+00  0.24086997547E+01  0.24086997547E+01  0.00000000000E+00 0. -1.
         13   -1    0    0    0    0 -0.00000000000E+00 -0.00000000000E+00 -0.10000000000E+04  0.10000000000E+04  0.00000000000E+00 0.  1.
    9000005    2    1    2  501    0 -0.19570285133E+02 -0.28239038734E+02 -0.85645723359E+03  0.85715284225E+03  0.34003881516E+01 0.  0.
         13    1    3    3    0    0 -0.11180888082E+02 -0.18983950399E+02 -0.54213719279E+03  0.54258468320E+03  0.00000000000E+00 0.  1.
          3    1    3    3  501    0 -0.83893970509E+01 -0.92550883346E+01 -0.31432004080E+03  0.31456815905E+03  0.00000000000E+00 0.  1.
         -1    1    1    2    0  502  0.19570285133E+02  0.28239038734E+02 -0.14113406666E+03  0.14525585751E+03  0.00000000000E+00 0. -1.
<mgrwt>
<rscale>  1 0.30000000E+03</rscale>
<asrwt>0</asrwt>
<pdfrwt beam="1">  1       21 0.87589267E-02 0.30000000E+03</pdfrwt>
<pdfrwt beam="2">0</pdfrwt>
<totfact> 0.10888878E+04</totfact>
</mgrwt>
</event>
<event>
 6    1  0.1274196E-001  0.3000000E+03  0.7818608E-02  0.1093470E+00
         21   -1    0    0  501  502  0.00000000000E+00  0.00000000000E+00  0.68406753995E+01  0.68406753995E+01  0.00000000000E+00 0. -1.
         13   -1    0    0    0    0 -0.00000000000E+00 -0.00000000000E+00 -0.10000000000E+04  0.10000000000E+04  0.00000000000E+00 0.  1.
    9000005    2    1    2  501    0 -0.67417343748E+02 -0.36178312524E+02 -0.68744234695E+03  0.69169493299E+03  0.33062680676E+01 0.  0.
         13    1    3    3    0    0 -0.23800127992E+02 -0.11578360725E+02 -0.24837209736E+03  0.24977830826E+03  0.00000000000E+00 0.  1.
          3    1    3    3  501    0 -0.43617215757E+02 -0.24599951799E+02 -0.43907024959E+03  0.44191662473E+03  0.00000000000E+00 0.  1.
         -3    1    1    2    0  502  0.67417343748E+02  0.36178312524E+02 -0.30571697765E+03  0.31514574241E+03  0.00000000000E+00 0. -1.
<mgrwt>
<rscale>  1 0.30000000E+03</rscale>
<asrwt>0</asrwt>
<pdfrwt beam="1">  1       21 0.24875236E-01 0.30000000E+03</pdfrwt>
<pdfrwt beam="2">0</pdfrwt>
<totfact> 0.15749390E+03</totfact>
</mgrwt>
</event>
<event>
 6    1  0.1274196E-001  0.3000000E+03  0.7818608E-02  0.1093470E+00
         21   -1    0    0  501  502  0.00000000000E+00  0.00000000000E+00  0.23687916626E+01  0.23687916626E+01  0.00000000000E+00 0. -1.
         13   -1    0    0    0    0 -0.00000000000E+00 -0.00000000000E+00 -0.10000000000E+04  0.10000000000E+04  0.00000000000E+00 0.  1.
    9000005    2    1    2  501    0  0.16147361404E+02 -0.35343863396E+02 -0.80019725025E+03  0.80114728743E+03  0.33780003556E+01 0.  0.
         13    1    3    3    0    0  0.11451678028E+02 -0.21255658849E+02 -0.48663058151E+03  0.48722917280E+03  0.00000000000E+00 0.  1.
          1    1    3    3  501    0  0.46956833763E+01 -0.14088204548E+02 -0.31356666874E+03  0.31391811463E+03  0.00000000000E+00 0.  1.
         -1    1    1    2    0  502 -0.16147361404E+02  0.35343863396E+02 -0.19743395809E+03  0.20122150423E+03  0.00000000000E+00 0. -1.
<mgrwt>
<rscale>  1 0.30000000E+03</rscale>
<asrwt>0</asrwt>
<pdfrwt beam="1">  1       21 0.86138060E-02 0.30000000E+03</pdfrwt>
<pdfrwt beam="2">0</pdfrwt>
<totfact> 0.11214994E+04</totfact>
</mgrwt>
</event>
<event>
 6    1  0.1274196E-001  0.3000000E+03  0.7818608E-02  0.1093470E+00
         21   -1    0    0  501  502  0.00000000000E+00  0.00000000000E+00  0.18838099149E+01  0.18838099149E+01  0.00000000000E+00 0. -1.
         13   -1    0    0    0    0 -0.00000000000E+00 -0.00000000000E+00 -0.10000000000E+04  0.10000000000E+04  0.00000000000E+00 0.  1.
    9000005    2    1    2  501    0 -0.94734811540E+01  0.42237824399E+02 -0.52564797008E+03  0.52743676380E+03  0.31576415886E+01 0.  0.
         13    1    3    3    0    0 -0.74567366031E+01  0.29954683357E+02 -0.38915710221E+03  0.39037947714E+03  0.00000000000E+00 0.  1.
          1    1    3    3  501    0 -0.20167445509E+01  0.12283141041E+02 -0.13649086787E+03  0.13705728666E+03  0.00000000000E+00 0.  1.
         -3    1    1    2    0  502  0.94734811540E+01 -0.42237824399E+02 -0.47246822000E+03  0.47444704612E+03  0.00000000000E+00 0. -1.
<mgrwt>
<rscale>  1 0.30000000E+03</rscale>
<asrwt>0</asrwt>
<pdfrwt beam="1">  1       21 0.68502323E-02 0.30000000E+03</pdfrwt>
<pdfrwt beam="2">0</pdfrwt>
<totfact> 0.16753644E+04</totfact>
</mgrwt>
</event>
<event>
 6    1  0.1274196E-001  0.3000000E+03  0.7818608E-02  0.1093470E+00
         21   -1    0    0  501  502  0.00000000000E+00  0.00000000000E+00  0.30349934189E+01  0.30349934189E+01  0.00000000000E+00 0. -1.
         13   -1    0    0    0    0 -0.00000000000E+00 -0.00000000000E+00 -0.10000000000E+04  0.10000000000E+04  0.00000000000E+00 0.  1.
    9000005    2    1    2  501    0 -0.76433605953E+01 -0.30380716748E+02 -0.91091875589E+03  0.91146334841E+03  0.33236657438E+01 0.  0.
         13    1    3    3    0    0 -0.69579137148E+00 -0.56479810820E+01 -0.19847448404E+03  0.19855604909E+03  0.00000000000E+00 0.  1.
          3    1    3    3  501    0 -0.69475692238E+01 -0.24732735666E+02 -0.71244427185E+03  0.71290729932E+03  0.00000000000E+00 0.  1.
         -3    1    1    2    0  502  0.76433605953E+01  0.30380716748E+02 -0.86046250688E+02  0.91571645004E+02  0.00000000000E+00 0. -1.
<mgrwt>
<rscale>  1 0.30000000E+03</rscale>
<asrwt>0</asrwt>
<pdfrwt beam="1">  1       21 0.11036363E-01 0.30000000E+03</pdfrwt>
<pdfrwt beam="2">0</pdfrwt>
<totfact> 0.72090845E+03</totfact>
</mgrwt>
</event>
<event>
 6    1  0.1274196E-001  0.3000000E+03  0.7818608E-02  0.1093470E+00
         21   -1    0    0  501  502  0.00000000000E+00  0.00000000000E+00  0.11090559776E+01  0.11090559776E+01  0.00000000000E+00 0. -1.
         13   -1    0    0    0    0 -0.00000000000E+00 -0.00000000000E+00 -0.10000000000E+04  0.10000000000E+04  0.00000000000E+00 0.  1.
    9000005    2    1    2  501    0 -0.30637687347E+02  0.10639305846E+02 -0.60869948336E+03  0.60957203514E+03  0.33380029377E+01 0.  0.
         13    1    3    3    0    0 -0.11960714179E+02  0.52794029726E+01 -0.22192866181E+03  0.22231343124E+03  0.00000000000E+00 0.  1.
          3    1    3    3  501    0 -0.18676973168E+02  0.53599028729E+01 -0.38677082156E+03  0.38725860390E+03  0.00000000000E+00 0.  1.
         -3    1    1    2    0  502  0.30637687347E+02 -0.10639305846E+02 -0.39019146066E+03  0.39153702084E+03  0.00000000000E+00 0. -1.
<mgrwt>
<rscale>  1 0.30000000E+03</rscale>
<asrwt>0</asrwt>
<pdfrwt beam="1">  1       21 0.40329393E-02 0.30000000E+03</pdfrwt>
<pdfrwt beam="2">0</pdfrwt>
<totfact> 0.41470483E+04</totfact>
</mgrwt>
</event>
<event>
 6    1  0.1274196E-001  0.3000000E+03  0.7818608E-02  0.1093470E+00
         21   -1    0    0  501  502  0.00000000000E+00  0.00000000000E+00  0.15286698020E+01  0.15286698020E+01  0.00000000000E+00 0. -1.
         13   -1    0    0    0    0 -0.00000000000E+00 -0.00000000000E+00 -0.10000000000E+04  0.10000000000E+04  0.00000000000E+00 0.  1.
    9000005    2    1    2  501    0  0.35502948127E+02 -0.73628713800E+01 -0.68495568863E+03  0.68592333285E+03  0.34426689679E+01 0.  0.
         13    1    3    3    0    0  0.35520072502E+02 -0.71810175197E+01 -0.68139461021E+03  0.68235757297E+03  0.00000000000E+00 0.  1.
          3    1    3    3  501    0 -0.17124374688E-01 -0.18185386026E+00 -0.35610784148E+01  0.35657598835E+01  0.00000000000E+00 0.  1.
         -1    1    1    2    0  502 -0.35502948127E+02  0.73628713800E+01 -0.31351564157E+03  0.31560533695E+03  0.00000000000E+00 0. -1.
<mgrwt>
<rscale>  1 0.30000000E+03</rscale>
<asrwt>0</asrwt>
<pdfrwt beam="1">  1       21 0.55588110E-02 0.30000000E+03</pdfrwt>
<pdfrwt beam="2">0</pdfrwt>
<totfact> 0.24031672E+04</totfact>
</mgrwt>
</event>
<event>
 6    1  0.1274196E-001  0.3000000E+03  0.7818608E-02  0.1093470E+00
         21   -1    0    0  501  502  0.00000000000E+00  0.00000000000E+00  0.33743478789E+01  0.33743478789E+01  0.00000000000E+00 0. -1.
         13   -1    0    0    0    0 -0.00000000000E+00 -0.00000000000E+00 -0.10000000000E+04  0.10000000000E+04  0.00000000000E+00 0.  1.
    9000005    2    1    2  501    0  0.21491262070E+01  0.51928435403E+02 -0.72182695524E+03  0.72370399737E+03  0.34844439611E+01 0.  0.
         13    1    3    3    0    0  0.38189492388E-01  0.25372840319E+02 -0.37185532926E+03  0.37271995974E+03  0.00000000000E+00 0.  1.
          1    1    3    3  501    0  0.21109367146E+01  0.26555595084E+02 -0.34997162598E+03  0.35098403763E+03  0.00000000000E+00 0.  1.
         -1    1    1    2    0  502 -0.21491262070E+01 -0.51928435403E+02 -0.27479869688E+03  0.27967035051E+03  0.00000000000E+00 0. -1.
<mgrwt>
<rscale>  1 0.30000000E+03</rscale>
<asrwt>0</asrwt>
<pdfrwt beam="1">  1       21 0.12270382E-01 0.30000000E+03</pdfrwt>
<pdfrwt beam="2">0</pdfrwt>
<totfact> 0.59511950E+03</totfact>
</mgrwt>
</event>
<event>
 6    1  0.1274196E-001  0.3000000E+03  0.7818608E-02  0.1093470E+00
         21   -1    0    0  501  502  0.00000000000E+00  0.00000000000E+00  0.84756410348E+01  0.84756410348E+01  0.00000000000E+00 0. -1.
         13   -1    0    0    0    0 -0.00000000000E+00 -0.00000000000E+00 -0.10000000000E+04  0.10000000000E+04  0.00000000000E+00 0.  1.
    9000005    2    1    2  501    0 -0.54350959262E+02 -0.74040066591E+02 -0.52142213133E+03  0.52948497029E+03  0.61103590717E+01 0.  0.
         13    1    3    3    0    0 -0.22009412430E+02 -0.34251851948E+02 -0.22114668136E+03  0.22486319902E+03  0.00000000000E+00 0.  1.
          1    1    3    3  501    0 -0.32341546833E+02 -0.39788214644E+02 -0.30027544997E+03  0.30462177127E+03  0.00000000000E+00 0.  1.
         -1    1    1    2    0  502  0.54350959262E+02  0.74040066591E+02 -0.47010222764E+03  0.47899067075E+03  0.00000000000E+00 0. -1.
<mgrwt>
<rscale>  1 0.30000000E+03</rscale>
<asrwt>0</asrwt>
<pdfrwt beam="1">  1       21 0.30820578E-01 0.30000000E+03</pdfrwt>
<pdfrwt beam="2">0</pdfrwt>
<totfact> 0.10300294E+03</totfact>
</mgrwt>
</event>
<event>
 6    1  0.1274196E-001  0.3000000E+03  0.7818608E-02  0.1093470E+00
         21   -1    0    0  501  502  0.00000000000E+00  0.00000000000E+00  0.15668131447E+01  0.15668131447E+01  0.00000000000E+00 0. -1.
         13   -1    0    0    0    0 -0.00000000000E+00 -0.00000000000E+00 -0.10000000000E+04  0.10000000000E+04  0.00000000000E+00 0.  1.
    9000005    2    1    2  501    0  0.12092387721E+02 -0.29187771935E+02 -0.79992665788E+03  0.80056185322E+03  0.42977856344E+01 0.  0.
         13    1    3    3    0    0  0.11266967656E+02 -0.26246579765E+02 -0.68624173131E+03  0.68683589110E+03  0.00000000000E+00 0.  1.
          3    1    3    3  501    0  0.82542006573E+00 -0.29411921696E+01 -0.11368492657E+03  0.11372596211E+03  0.00000000000E+00 0.  1.
         -3    1    1    2    0  502 -0.12092387721E+02  0.29187771935E+02 -0.19850652897E+03  0.20100495993E+03  0.00000000000E+00 0. -1.
<mgrwt>
<rscale>  1 0.30000000E+03</rscale>
<asrwt>0</asrwt>
<pdfrwt beam="1">  1       21 0.56975144E-02 0.30000000E+03</pdfrwt>
<pdfrwt beam="2">0</pdfrwt>
<totfact> 0.23035530E+04</totfact>
</mgrwt>
</event>
<event>
 6    1  0.1274196E-001  0.3000000E+03  0.7818608E-02  0.1093470E+00
         21   -1    0    0  501  502  0.00000000000E+00  0.00000000000E+00  0.16939756492E+01  0.16939756492E+01  0.00000000000E+00 0. -1.
         13   -1    0    0    0    0 -0.00000000000E+00 -0.00000000000E+00 -0.10000000000E+04  0.10000000000E+04  0.00000000000E+00 0.  1.
    9000005    2    1    2  501    0  0.32558529120E+02  0.15421601999E+02 -0.74072073503E+03  0.74160155957E+03  0.27896646423E+01 0.  0.
         13    1    3    3    0    0  0.44173111186E-01  0.23793833943E+00 -0.38989478523E+01  0.39064511096E+01  0.00000000000E+00 0.  1.
          3    1    3    3  501    0  0.32514356009E+02  0.15183663660E+02 -0.73682178718E+03  0.73769510846E+03  0.00000000000E+00 0.  1.
         -3    1    1    2    0  502 -0.32558529120E+02 -0.15421601999E+02 -0.25758528932E+03  0.26009241608E+03  0.00000000000E+00 0. -1.
<mgrwt>
<rscale>  1 0.30000000E+03</rscale>
<asrwt>0</asrwt>
<pdfrwt beam="1">  1       21 0.61599244E-02 0.30000000E+03</pdfrwt>
<pdfrwt beam="2">0</pdfrwt>
<totfact> 0.20136574E+04</totfact>
</mgrwt>
</event>
<event>
 6    1  0.1274196E-001  0.3000000E+03  0.7818608E-02  0.1093470E+00
         21   -1    0    0  501  502  0.00000000000E+00  0.00000000000E+00  0.36300210953E+01  0.36300210953E+01  0.00000000000E+00 0. -1.
         13   -1    0    0    0    0 -0.00000000000E+00 -0.00000000000E+00 -0.10000000000E+04  0.10000000000E+04  0.00000000000E+00 0.  1.
    9000005    2    1    2  501    0  0.40801153186E+02 -0.18794144309E+02 -0.83238232761E+03  0.83360089495E+03  0.34869437927E+01 0.  0.
         13    1    3    3    0    0  0.30104923745E+02 -0.13284134348E+02 -0.58163888414E+03  0.58256893687E+03  0.00000000000E+00 0.  1.
          1    1    3    3  501    0  0.10696229441E+02 -0.55100099603E+01 -0.25074344347E+03  0.25103195808E+03  0.00000000000E+00 0.  1.
         -1    1    1    2    0  502 -0.40801153186E+02  0.18794144309E+02 -0.16398765129E+03  0.17002912614E+03  0.00000000000E+00 0. -1.
<mgrwt>
<rscale>  1 0.30000000E+03</rscale>
<asrwt>0</asrwt>
<pdfrwt beam="1">  1       21 0.13200105E-01 0.30000000E+03</pdfrwt>
<pdfrwt beam="2">0</pdfrwt>
<totfact> 0.52090874E+03</totfact>
</mgrwt>
</event>
<event>
 6    1  0.1274196E-001  0.3000000E+03  0.7818608E-02  0.1093470E+00
         21   -1    0    0  501  502  0.00000000000E+00  0.00000000000E+00  0.21070451550E+01  0.21070451550E+01  0.00000000000E+00 0. -1.
         13   -1    0    0    0    0 -0.00000000000E+00 -0.00000000000E+00 -0.10000000000E+04  0.10000000000E+04  0.00000000000E+00 0.  1.
    9000005    2    1    2  501    0  0.36661371571E+02  0.25963533324E+02 -0.56733568380E+03  0.56921245651E+03  0.10718269709E+02 0.  0.
         13    1    3    3    0    0  0.26097227896E+02  0.19952182771E+02 -0.35039693860E+03  0.35193347309E+03  0.00000000000E+00 0.  1.
          1    1    3    3  501    0  0.10564143675E+02  0.60113505535E+01 -0.21693874520E+03  0.21727898342E+03  0.00000000000E+00 0.  1.
         -3    1    1    2    0  502 -0.36661371571E+02 -0.25963533324E+02 -0.43055727105E+03  0.43289458865E+03  0.00000000000E+00 0. -1.
<mgrwt>
<rscale>  1 0.30000000E+03</rscale>
<asrwt>0</asrwt>
<pdfrwt beam="1">  1       21 0.76619985E-02 0.30000000E+03</pdfrwt>
<pdfrwt beam="2">0</pdfrwt>
<totfact> 0.13778898E+04</totfact>
</mgrwt>
</event>
<event>
 6    1  0.1274196E-001  0.3000000E+03  0.7818608E-02  0.1093470E+00
         21   -1    0    0  501  502  0.00000000000E+00  0.00000000000E+00  0.26058522611E+01  0.26058522611E+01  0.00000000000E+00 0. -1.
         13   -1    0    0    0    0 -0.00000000000E+00 -0.00000000000E+00 -0.10000000000E+04  0.10000000000E+04  0.00000000000E+00 0.  1.
    9000005    2    1    2  501    0  0.37082108433E+01 -0.49718200366E+02 -0.60514455755E+03  0.60720050166E+03  0.26198123626E+01 0.  0.
         13    1    3    3    0    0  0.35902536311E+01 -0.48956833369E+02 -0.59895247191E+03  0.60096066848E+03  0.00000000000E+00 0.  1.
          3    1    3    3  501    0  0.11795721215E+00 -0.76136699650E+00 -0.61920856387E+01  0.62398331840E+01  0.00000000000E+00 0.  1.
         -3    1    1    2    0  502 -0.37082108433E+01  0.49718200366E+02 -0.39224959019E+03  0.39540535060E+03  0.00000000000E+00 0. -1.
<mgrwt>
<rscale>  1 0.30000000E+03</rscale>
<asrwt>0</asrwt>
<pdfrwt beam="1">  1       21 0.94758464E-02 0.30000000E+03</pdfrwt>
<pdfrwt beam="2">0</pdfrwt>
<totfact> 0.94705683E+03</totfact>
</mgrwt>
</event>
<event>
 6    1  0.1274196E-001  0.3000000E+03  0.7818608E-02  0.1093470E+00
         21   -1    0    0  501  502  0.00000000000E+00  0.00000000000E+00  0.22904493725E+01  0.22904493725E+01  0.00000000000E+00 0. -1.
         13   -1    0    0    0    0 -0.00000000000E+00 -0.00000000000E+00 -0.10000000000E+04  0.10000000000E+04  0.00000000000E+00 0.  1.
    9000005    2    1    2  501    0  0.13674860798E+02  0.38666820982E+02 -0.75572761034E+03  0.75685739478E+03  0.51739864745E+01 0.  0.
         13    1    3    3    0    0  0.67908779981E+01  0.26532486660E+02 -0.50060524237E+03  0.50135386461E+03  0.00000000000E+00 0.  1.
          1    1    3    3  501    0  0.68839827997E+01  0.12134334322E+02 -0.25512236797E+03  0.25550353017E+03  0.00000000000E+00 0.  1.
         -1    1    1    2    0  502 -0.13674860798E+02 -0.38666820982E+02 -0.24198194028E+03  0.24543305459E+03  0.00000000000E+00 0. -1.
<mgrwt>
<rscale>  1 0.30000000E+03</rscale>
<asrwt>0</asrwt>
<pdfrwt beam="1">  1       21 0.83289244E-02 0.30000000E+03</pdfrwt>
<pdfrwt beam="2">0</pdfrwt>
<totfact> 0.11900054E+04</totfact>
</mgrwt>
</event>
<event>
 6    1  0.1274196E-001  0.3000000E+03  0.7818608E-02  0.1093470E+00
         21   -1    0    0  501  502  0.00000000000E+00  0.00000000000E+00  0.49844480527E+01  0.49844480527E+01  0.00000000000E+00 0. -1.
         13   -1    0    0    0    0 -0.00000000000E+00 -0.00000000000E+00 -0.10000000000E+04  0.10000000000E+04  0.00000000000E+00 0.  1.
    9000005    2    1    2  501    0 -0.22662679730E+02 -0.50765672748E+02 -0.18862469969E+03  0.19667945785E+03  0.35750838925E+01 0.  0.
         13    1    3    3    0    0 -0.14208138248E+02 -0.33591632015E+02 -0.11816902138E+03  0.12366966705E+03  0.00000000000E+00 0.  1.
          3    1    3    3  501    0 -0.84545414821E+01 -0.17174040733E+02 -0.70455678308E+02  0.73009790799E+02  0.00000000000E+00 0.  1.
         -1    1    1    2    0  502  0.22662679730E+02  0.50765672748E+02 -0.80639085226E+03  0.80830499021E+03  0.00000000000E+00 0. -1.
<mgrwt>
<rscale>  1 0.30000000E+03</rscale>
<asrwt>0</asrwt>
<pdfrwt beam="1">  1       21 0.18125304E-01 0.30000000E+03</pdfrwt>
<pdfrwt beam="2">0</pdfrwt>
<totfact> 0.28915106E+03</totfact>
</mgrwt>
</event>
<event>
 6    1  0.1274196E-001  0.3000000E+03  0.7818608E-02  0.1093470E+00
         21   -1    0    0  501  502  0.00000000000E+00  0.00000000000E+00  0.13898345941E+01  0.13898345941E+01  0.00000000000E+00 0. -1.
         13   -1    0    0    0    0 -0.00000000000E+00 -0.00000000000E+00 -0.10000000000E+04  0.10000000000E+04  0.00000000000E+00 0.  1.
    9000005    2    1    2  501    0  0.19534707594E+02  0.30224727966E+02 -0.62756218122E+03  0.62860069104E+03  0.30656973683E+01 0.  0.
         13    1    3    3    0    0  0.54800881849E+01  0.95008587661E+01 -0.16931032528E+03  0.16966521131E+03  0.00000000000E+00 0.  1.
          3    1    3    3  501    0  0.14054619409E+02  0.20723869200E+02 -0.45825185594E+03  0.45893547973E+03  0.00000000000E+00 0.  1.
         -3    1    1    2    0  502 -0.19534707594E+02 -0.30224727966E+02 -0.37104798419E+03  0.37278914355E+03  0.00000000000E+00 0. -1.
<mgrwt>
<rscale>  1 0.30000000E+03</rscale>
<asrwt>0</asrwt>
<pdfrwt beam="1">  1       21 0.50539546E-02 0.30000000E+03</pdfrwt>
<pdfrwt beam="2">0</pdfrwt>
<totfact> 0.28282269E+04</totfact>
</mgrwt>
</event>
<event>
 6    1  0.1274196E-001  0.3000000E+03  0.7818608E-02  0.1093470E+00
         21   -1    0    0  501  502  0.00000000000E+00  0.00000000000E+00  0.24071666627E+01  0.24071666627E+01  0.00000000000E+00 0. -1.
         13   -1    0    0    0    0 -0.00000000000E+00 -0.00000000000E+00 -0.10000000000E+04  0.10000000000E+04  0.00000000000E+00 0.  1.
    9000005    2    1    2  501    0  0.19424293032E+02 -0.39187634316E+02 -0.72506949979E+03  0.72639640388E+03  0.36030825464E+01 0.  0.
         13    1    3    3    0    0  0.37756100492E+01 -0.48800836793E+01 -0.10676321992E+03  0.10694136513E+03  0.00000000000E+00 0.  1.
          3    1    3    3  501    0  0.15648682983E+02 -0.34307550637E+02 -0.61830627987E+03  0.61945503875E+03  0.00000000000E+00 0.  1.
         -3    1    1    2    0  502 -0.19424293032E+02  0.39187634316E+02 -0.27252333355E+03  0.27601076278E+03  0.00000000000E+00 0. -1.
<mgrwt>
<rscale>  1 0.30000000E+03</rscale>
<asrwt>0</asrwt>
<pdfrwt beam="1">  1       21 0.87533518E-02 0.30000000E+03</pdfrwt>
<pdfrwt beam="2">0</pdfrwt>
<totfact> 0.10901138E+04</totfact>
</mgrwt>
</event>
<event>
 6    1  0.1274196E-001  0.3000000E+03  0.7818608E-02  0.1093470E+00
         21   -1    0    0  501  502  0.00000000000E+00  0.00000000000E+00  0.24807279984E+01  0.24807279984E+01  0.00000000000E+00 0. -1.
         13   -1    0    0    0    0 -0.00000000000E+00 -0.00000000000E+00 -0.10000000000E+04  0.10000000000E+04  0.00000000000E+00 0.  1.
    9000005    2    1    2  501    0  0.25643903284E+02 -0.19024854577E+02 -0.88312594582E+03  0.88371462197E+03  0.45323314187E+01 0.  0.
         13    1    3    3    0    0  0.95973413944E+01 -0.90571784409E+01 -0.32020849652E+03  0.32048030000E+03  0.00000000000E+00 0.  1.
          3    1    3    3  501    0  0.16046561890E+02 -0.99676761357E+01 -0.56291744930E+03  0.56323432196E+03  0.00000000000E+00 0.  1.
         -1    1    1    2    0  502 -0.25643903284E+02  0.19024854577E+02 -0.11439332618E+03  0.11876610603E+03  0.00000000000E+00 0. -1.
<mgrwt>
<rscale>  1 0.30000000E+03</rscale>
<asrwt>0</asrwt>
<pdfrwt beam="1">  1       21 0.90208481E-02 0.30000000E+03</pdfrwt>
<pdfrwt beam="2">0</pdfrwt>
<totfact> 0.10335630E+04</totfact>
</mgrwt>
</event>
<event>
 6    1  0.1274196E-001  0.3000000E+03  0.7818608E-02  0.1093470E+00
         21   -1    0    0  501  502  0.00000000000E+00  0.00000000000E+00  0.30189147506E+01  0.30189147506E+01  0.00000000000E+00 0. -1.
         13   -1    0    0    0    0 -0.00000000000E+00 -0.00000000000E+00 -0.10000000000E+04  0.10000000000E+04  0.00000000000E+00 0.  1.
    9000005    2    1    2  501    0  0.10654540164E+02  0.31971220160E+02 -0.89445995423E+03  0.89510107354E+03  0.34123304252E+01 0.  0.
         13    1    3    3    0    0  0.38536228847E+01  0.84409199121E+01 -0.21627444377E+03  0.21647340383E+03  0.00000000000E+00 0.  1.
          3    1    3    3  501    0  0.68009172790E+01  0.23530300248E+02 -0.67818551046E+03  0.67862766972E+03  0.00000000000E+00 0.  1.
         -3    1    1    2    0  502 -0.10654540164E+02 -0.31971220160E+02 -0.10252113102E+03  0.10791784121E+03  0.00000000000E+00 0. -1.
<mgrwt>
<rscale>  1 0.30000000E+03</rscale>
<asrwt>0</asrwt>
<pdfrwt beam="1">  1       21 0.10977895E-01 0.30000000E+03</pdfrwt>
<pdfrwt beam="2">0</pdfrwt>
<totfact> 0.72783137E+03</totfact>
</mgrwt>
</event>
<event>
 6    1  0.1274196E-001  0.3000000E+03  0.7818608E-02  0.1093470E+00
         21   -1    0    0  501  502  0.00000000000E+00  0.00000000000E+00  0.13442855918E+01  0.13442855918E+01  0.00000000000E+00 0. -1.
         13   -1    0    0    0    0 -0.00000000000E+00 -0.00000000000E+00 -0.10000000000E+04  0.10000000000E+04  0.00000000000E+00 0.  1.
    9000005    2    1    2  501    0  0.18829816702E+02  0.29289826010E+02 -0.34832369329E+03  0.35008074938E+03  0.38314326293E+01 0.  0.
         13    1    3    3    0    0  0.10740825274E+02  0.14488464291E+02 -0.19485838750E+03  0.19569126732E+03  0.00000000000E+00 0.  1.
          1    1    3    3  501    0  0.80889914275E+01  0.14801361719E+02 -0.15346530578E+03  0.15438948206E+03  0.00000000000E+00 0.  1.
         -3    1    1    2    0  502 -0.18829816702E+02 -0.29289826010E+02 -0.65033202112E+03  0.65126353621E+03  0.00000000000E+00 0. -1.
<mgrwt>
<rscale>  1 0.30000000E+03</rscale>
<asrwt>0</asrwt>
<pdfrwt beam="1">  1       21 0.48883216E-02 0.30000000E+03</pdfrwt>
<pdfrwt beam="2">0</pdfrwt>
<totfact> 0.29934874E+04</totfact>
</mgrwt>
</event>
<event>
 6    1  0.1274196E-001  0.3000000E+03  0.7818608E-02  0.1093470E+00
         21   -1    0    0  501  502  0.00000000000E+00  0.00000000000E+00  0.31691042450E+01  0.31691042450E+01  0.00000000000E+00 0. -1.
         13   -1    0    0    0    0 -0.00000000000E+00 -0.00000000000E+00 -0.10000000000E+04  0.10000000000E+04  0.00000000000E+00 0.  1.
    9000005    2    1    2  501    0 -0.54281552060E+02 -0.23918832553E+01 -0.62828953909E+03  0.63064401841E+03  0.34532642882E+01 0.  0.
         13    1    3    3    0    0 -0.52762529571E+02 -0.28936095825E+01 -0.60882348275E+03  0.61111233882E+03  0.00000000000E+00 0.  1.
          3    1    3    3  501    0 -0.15190224886E+01  0.50172632720E+00 -0.19466056334E+02  0.19531679595E+02  0.00000000000E+00 0.  1.
         -3    1    1    2    0  502  0.54281552060E+02  0.23918832553E+01 -0.36854135667E+03  0.37252508583E+03  0.00000000000E+00 0. -1.
<mgrwt>
<rscale>  1 0.30000000E+03</rscale>
<asrwt>0</asrwt>
<pdfrwt beam="1">  1       21 0.11524040E-01 0.30000000E+03</pdfrwt>
<pdfrwt beam="2">0</pdfrwt>
<totfact> 0.66683468E+03</totfact>
</mgrwt>
</event>
<event>
 6    1  0.1274196E-001  0.3000000E+03  0.7818608E-02  0.1093470E+00
         21   -1    0    0  501  502  0.00000000000E+00  0.00000000000E+00  0.20567383163E+01  0.20567383163E+01  0.00000000000E+00 0. -1.
         13   -1    0    0    0    0 -0.00000000000E+00 -0.00000000000E+00 -0.10000000000E+04  0.10000000000E+04  0.00000000000E+00 0.  1.
    9000005    2    1    2  501    0  0.30247835419E+02  0.77490776564E+01 -0.86162983427E+03  0.86221278869E+03  0.54719224381E+01 0.  0.
         13    1    3    3    0    0  0.25734777281E+02  0.62541892193E+01 -0.77523682894E+03  0.77568907082E+03  0.00000000000E+00 0.  1.
          1    1    3    3  501    0  0.45130581384E+01  0.14948884372E+01 -0.86393005327E+02  0.86523717873E+02  0.00000000000E+00 0.  1.
         -3    1    1    2    0  502 -0.30247835419E+02 -0.77490776564E+01 -0.13631342742E+03  0.13984394962E+03  0.00000000000E+00 0. -1.
<mgrwt>
<rscale>  1 0.30000000E+03</rscale>
<asrwt>0</asrwt>
<pdfrwt beam="1">  1       21 0.74790642E-02 0.30000000E+03</pdfrwt>
<pdfrwt beam="2">0</pdfrwt>
<totfact> 0.14374641E+04</totfact>
</mgrwt>
</event>
<event>
 6    1  0.1274196E-001  0.3000000E+03  0.7818608E-02  0.1093470E+00
         21   -1    0    0  501  502  0.00000000000E+00  0.00000000000E+00  0.17527428758E+01  0.17527428758E+01  0.00000000000E+00 0. -1.
         13   -1    0    0    0    0 -0.00000000000E+00 -0.00000000000E+00 -0.10000000000E+04  0.10000000000E+04  0.00000000000E+00 0.  1.
    9000005    2    1    2  501    0 -0.38693413591E+02 -0.85833779072E+01 -0.34140432055E+03  0.34371513152E+03  0.35109705015E+01 0.  0.
         13    1    3    3    0    0 -0.18726068042E+02 -0.29408298419E+01 -0.15185099335E+03  0.15302953403E+03  0.00000000000E+00 0.  1.
          1    1    3    3  501    0 -0.19967345549E+02 -0.56425480654E+01 -0.18955332720E+03  0.19068559749E+03  0.00000000000E+00 0.  1.
         -1    1    1    2    0  502  0.38693413591E+02  0.85833779072E+01 -0.65684293657E+03  0.65803761135E+03  0.00000000000E+00 0. -1.
<mgrwt>
<rscale>  1 0.30000000E+03</rscale>
<asrwt>0</asrwt>
<pdfrwt beam="1">  1       21 0.63736239E-02 0.30000000E+03</pdfrwt>
<pdfrwt beam="2">0</pdfrwt>
<totfact> 0.18984201E+04</totfact>
</mgrwt>
</event>
<event>
 6    1  0.1274196E-001  0.3000000E+03  0.7818608E-02  0.1093470E+00
         21   -1    0    0  501  502  0.00000000000E+00  0.00000000000E+00  0.94471728511E+00  0.94471728511E+00  0.00000000000E+00 0. -1.
         13   -1    0    0    0    0 -0.00000000000E+00 -0.00000000000E+00 -0.10000000000E+04  0.10000000000E+04  0.00000000000E+00 0.  1.
    9000005    2    1    2  501    0 -0.20588349699E+02  0.21907728306E+02 -0.40539999142E+03  0.40652867310E+03  0.35468726875E+01 0.  0.
         13    1    3    3    0    0 -0.14217713545E+02  0.14581322292E+02 -0.25187671879E+03  0.25269871351E+03  0.00000000000E+00 0.  1.
          1    1    3    3  501    0 -0.63706361536E+01  0.73264060140E+01 -0.15352327263E+03  0.15382995960E+03  0.00000000000E+00 0.  1.
         -3    1    1    2    0  502  0.20588349699E+02 -0.21907728306E+02 -0.59365529129E+03  0.59441604418E+03  0.00000000000E+00 0. -1.
<mgrwt>
<rscale>  1 0.30000000E+03</rscale>
<asrwt>0</asrwt>
<pdfrwt beam="1">  1       21 0.34353428E-02 0.30000000E+03</pdfrwt>
<pdfrwt beam="2">0</pdfrwt>
<totfact> 0.54284426E+04</totfact>
</mgrwt>
</event>
<event>
 6    1  0.1274196E-001  0.3000000E+03  0.7818608E-02  0.1093470E+00
         21   -1    0    0  501  502  0.00000000000E+00  0.00000000000E+00  0.16741728616E+01  0.16741728616E+01  0.00000000000E+00 0. -1.
         13   -1    0    0    0    0 -0.00000000000E+00 -0.00000000000E+00 -0.10000000000E+04  0.10000000000E+04  0.00000000000E+00 0.  1.
    9000005    2    1    2  501    0  0.36276032697E+02  0.15704269904E+02 -0.62600465156E+03  0.62726045460E+03  0.33584942400E+01 0.  0.
         13    1    3    3    0    0  0.22375475347E+02  0.11343345236E+02 -0.38716627675E+03  0.38797816850E+03  0.00000000000E+00 0.  1.
          1    1    3    3  501    0  0.13900557351E+02  0.43609246672E+01 -0.23883837481E+03  0.23928228610E+03  0.00000000000E+00 0.  1.
         -3    1    1    2    0  502 -0.36276032697E+02 -0.15704269904E+02 -0.37232117557E+03  0.37441371826E+03  0.00000000000E+00 0. -1.
<mgrwt>
<rscale>  1 0.30000000E+03</rscale>
<asrwt>0</asrwt>
<pdfrwt beam="1">  1       21 0.60879142E-02 0.30000000E+03</pdfrwt>
<pdfrwt beam="2">0</pdfrwt>
<totfact> 0.20549470E+04</totfact>
</mgrwt>
</event>
<event>
 6    1  0.1274196E-001  0.3000000E+03  0.7818608E-02  0.1093470E+00
         21   -1    0    0  501  502  0.00000000000E+00  0.00000000000E+00  0.30547025176E+01  0.30547025176E+01  0.00000000000E+00 0. -1.
         13   -1    0    0    0    0 -0.00000000000E+00 -0.00000000000E+00 -0.10000000000E+04  0.10000000000E+04  0.00000000000E+00 0.  1.
    9000005    2    1    2  501    0  0.28796762262E+02 -0.24214874962E+02 -0.86576607945E+03  0.86658638777E+03  0.23344073727E+01 0.  0.
         13    1    3    3    0    0  0.59911363007E+01 -0.63210787806E+01 -0.20106377849E+03  0.20125231122E+03  0.00000000000E+00 0.  1.
          1    1    3    3  501    0  0.22805625962E+02 -0.17893796181E+02 -0.66470230096E+03  0.66533407655E+03  0.00000000000E+00 0.  1.
         -1    1    1    2    0  502 -0.28796762262E+02  0.24214874962E+02 -0.13117921804E+03  0.13646831475E+03  0.00000000000E+00 0. -1.
<mgrwt>
<rscale>  1 0.30000000E+03</rscale>
<asrwt>0</asrwt>
<pdfrwt beam="1">  1       21 0.11108033E-01 0.30000000E+03</pdfrwt>
<pdfrwt beam="2">0</pdfrwt>
<totfact> 0.71255695E+03</totfact>
</mgrwt>
</event>
<event>
 6    1  0.1274196E-001  0.3000000E+03  0.7818608E-02  0.1093470E+00
         21   -1    0    0  501  502  0.00000000000E+00  0.00000000000E+00  0.29879075757E+01  0.29879075757E+01  0.00000000000E+00 0. -1.
         13   -1    0    0    0    0 -0.00000000000E+00 -0.00000000000E+00 -0.10000000000E+04  0.10000000000E+04  0.00000000000E+00 0.  1.
    9000005    2    1    2  501    0 -0.50971401931E+02 -0.17771772394E+02 -0.57485229172E+03  0.57739089508E+03  0.33419641825E+01 0.  0.
         13    1    3    3    0    0 -0.19825428756E+02 -0.52605304095E+01 -0.22279253536E+03  0.22373474164E+03  0.00000000000E+00 0.  1.
          3    1    3    3  501    0 -0.31145973175E+02 -0.12511241985E+02 -0.35205975636E+03  0.35365615344E+03  0.00000000000E+00 0.  1.
         -1    1    1    2    0  502  0.50971401931E+02  0.17771772394E+02 -0.42215980071E+03  0.42559701249E+03  0.00000000000E+00 0. -1.
<mgrwt>
<rscale>  1 0.30000000E+03</rscale>
<asrwt>0</asrwt>
<pdfrwt beam="1">  1       21 0.10865141E-01 0.30000000E+03</pdfrwt>
<pdfrwt beam="2">0</pdfrwt>
<totfact> 0.74146839E+03</totfact>
</mgrwt>
</event>
<event>
 6    1  0.1274196E-001  0.3000000E+03  0.7818608E-02  0.1093470E+00
         21   -1    0    0  501  502  0.00000000000E+00  0.00000000000E+00  0.27311246576E+01  0.27311246576E+01  0.00000000000E+00 0. -1.
         13   -1    0    0    0    0 -0.00000000000E+00 -0.00000000000E+00 -0.10000000000E+04  0.10000000000E+04  0.00000000000E+00 0.  1.
    9000005    2    1    2  501    0 -0.12347204834E+02 -0.49799813600E+02 -0.59162966510E+03  0.59385994227E+03  0.33905019632E+01 0.  0.
         13    1    3    3    0    0 -0.11206757002E+01 -0.21620824995E+01 -0.23383075065E+02  0.23509545173E+02  0.00000000000E+00 0.  1.
          3    1    3    3  501    0 -0.11226529134E+02 -0.47637731100E+02 -0.56824659004E+03  0.57035039710E+03  0.00000000000E+00 0.  1.
         -1    1    1    2    0  502  0.12347204834E+02  0.49799813600E+02 -0.40563921024E+03  0.40887118239E+03  0.00000000000E+00 0. -1.
<mgrwt>
<rscale>  1 0.30000000E+03</rscale>
<asrwt>0</asrwt>
<pdfrwt beam="1">  1       21 0.99313833E-02 0.30000000E+03</pdfrwt>
<pdfrwt beam="2">0</pdfrwt>
<totfact> 0.87096742E+03</totfact>
</mgrwt>
</event>
<event>
 6    1  0.1274196E-001  0.3000000E+03  0.7818608E-02  0.1093470E+00
         21   -1    0    0  501  502  0.00000000000E+00  0.00000000000E+00  0.76830987114E+01  0.76830987114E+01  0.00000000000E+00 0. -1.
         13   -1    0    0    0    0 -0.00000000000E+00 -0.00000000000E+00 -0.10000000000E+04  0.10000000000E+04  0.00000000000E+00 0.  1.
    9000005    2    1    2  501    0  0.27853591670E+01  0.32092539412E+02 -0.96472618993E+03  0.96526922522E+03  0.32196737201E+01 0.  0.
         13    1    3    3    0    0  0.12932298652E+01  0.20356611117E+02 -0.56534196462E+03  0.56570982051E+03  0.00000000000E+00 0.  1.
          3    1    3    3  501    0  0.14921293018E+01  0.11735928295E+02 -0.39938422532E+03  0.39955940471E+03  0.00000000000E+00 0.  1.
         -3    1    1    2    0  502 -0.27853591670E+01 -0.32092539412E+02 -0.27590711355E+02  0.42413873492E+02  0.00000000000E+00 0. -1.
<mgrwt>
<rscale>  1 0.30000000E+03</rscale>
<asrwt>0</asrwt>
<pdfrwt beam="1">  1       21 0.27938600E-01 0.30000000E+03</pdfrwt>
<pdfrwt beam="2">0</pdfrwt>
<totfact> 0.12528401E+03</totfact>
</mgrwt>
</event>
<event>
 6    1  0.1274196E-001  0.3000000E+03  0.7818608E-02  0.1093470E+00
         21   -1    0    0  501  502  0.00000000000E+00  0.00000000000E+00  0.25757753578E+01  0.25757753578E+01  0.00000000000E+00 0. -1.
         13   -1    0    0    0    0 -0.00000000000E+00 -0.00000000000E+00 -0.10000000000E+04  0.10000000000E+04  0.00000000000E+00 0.  1.
    9000005    2    1    2  501    0 -0.20090081036E+02 -0.31469531502E+02 -0.83804073026E+03  0.83887775750E+03  0.31118620058E+01 0.  0.
         13    1    3    3    0    0 -0.36578919429E+01 -0.78606445668E+01 -0.18019158568E+03  0.18040004838E+03  0.00000000000E+00 0.  1.
          3    1    3    3  501    0 -0.16432189093E+02 -0.23608886935E+02 -0.65784914458E+03  0.65847770912E+03  0.00000000000E+00 0.  1.
         -3    1    1    2    0  502  0.20090081036E+02  0.31469531502E+02 -0.15938349438E+03  0.16369801786E+03  0.00000000000E+00 0. -1.
<mgrwt>
<rscale>  1 0.30000000E+03</rscale>
<asrwt>0</asrwt>
<pdfrwt beam="1">  1       21 0.93664756E-02 0.30000000E+03</pdfrwt>
<pdfrwt beam="2">0</pdfrwt>
<totfact> 0.96682778E+03</totfact>
</mgrwt>
</event>
<event>
 6    1  0.1274196E-001  0.3000000E+03  0.7818608E-02  0.1093470E+00
         21   -1    0    0  501  502  0.00000000000E+00  0.00000000000E+00  0.24767974371E+01  0.24767974371E+01  0.00000000000E+00 0. -1.
         13   -1    0    0    0    0 -0.00000000000E+00 -0.00000000000E+00 -0.10000000000E+04  0.10000000000E+04  0.00000000000E+00 0.  1.
    9000005    2    1    2  501    0 -0.34842896658E+02 -0.64891186772E+01 -0.85023024566E+03  0.85097976360E+03  0.43533102782E+01 0.  0.
         13    1    3    3    0    0 -0.21423631354E+02 -0.51728053537E+01 -0.56848507555E+03  0.56891212944E+03  0.00000000000E+00 0.  1.
          1    1    3    3  501    0 -0.13419265304E+02 -0.13163133235E+01 -0.28174517010E+03  0.28206763416E+03  0.00000000000E+00 0.  1.
         -1    1    1    2    0  502  0.34842896658E+02  0.64891186772E+01 -0.14729295691E+03  0.15149703384E+03  0.00000000000E+00 0. -1.
<mgrwt>
<rscale>  1 0.30000000E+03</rscale>
<asrwt>0</asrwt>
<pdfrwt beam="1">  1       21 0.90065551E-02 0.30000000E+03</pdfrwt>
<pdfrwt beam="2">0</pdfrwt>
<totfact> 0.10364711E+04</totfact>
</mgrwt>
</event>
<event>
 6    1  0.1274196E-001  0.3000000E+03  0.7818608E-02  0.1093470E+00
         21   -1    0    0  501  502  0.00000000000E+00  0.00000000000E+00  0.17701014976E+01  0.17701014976E+01  0.00000000000E+00 0. -1.
         13   -1    0    0    0    0 -0.00000000000E+00 -0.00000000000E+00 -0.10000000000E+04  0.10000000000E+04  0.00000000000E+00 0.  1.
    9000005    2    1    2  501    0  0.21749865939E+02  0.21939682823E+02 -0.83876247748E+03  0.83933776260E+03  0.33135713423E+01 0.  0.
         13    1    3    3    0    0  0.17603352814E+01  0.29913145352E+01 -0.11108196568E+03  0.11113617702E+03  0.00000000000E+00 0.  1.
          3    1    3    3  501    0  0.19989530657E+02  0.18948368288E+02 -0.72768051180E+03  0.72820158558E+03  0.00000000000E+00 0.  1.
         -3    1    1    2    0  502 -0.21749865939E+02 -0.21939682823E+02 -0.15946742102E+03  0.16243233889E+03  0.00000000000E+00 0. -1.
<mgrwt>
<rscale>  1 0.30000000E+03</rscale>
<asrwt>0</asrwt>
<pdfrwt beam="1">  1       21 0.64367463E-02 0.30000000E+03</pdfrwt>
<pdfrwt beam="2">0</pdfrwt>
<totfact> 0.18663291E+04</totfact>
</mgrwt>
</event>
<event>
 6    1  0.1274196E-001  0.3000000E+03  0.7818608E-02  0.1093470E+00
         21   -1    0    0  501  502  0.00000000000E+00  0.00000000000E+00  0.18804401221E+01  0.18804401221E+01  0.00000000000E+00 0. -1.
         13   -1    0    0    0    0 -0.00000000000E+00 -0.00000000000E+00 -0.10000000000E+04  0.10000000000E+04  0.00000000000E+00 0.  1.
    9000005    2    1    2  501    0  0.23918191197E+01  0.41924014970E+02 -0.37645667218E+03  0.37880091889E+03  0.26769942082E+01 0.  0.
         13    1    3    3    0    0  0.19083803180E+01  0.39348063304E+02 -0.34748347912E+03  0.34970942261E+03  0.00000000000E+00 0.  1.
          3    1    3    3  501    0  0.48343880164E+00  0.25759516663E+01 -0.28973193061E+02  0.29091496286E+02  0.00000000000E+00 0.  1.
         -3    1    1    2    0  502 -0.23918191197E+01 -0.41924014970E+02 -0.62166288770E+03  0.62307952123E+03  0.00000000000E+00 0. -1.
<mgrwt>
<rscale>  1 0.30000000E+03</rscale>
<asrwt>0</asrwt>
<pdfrwt beam="1">  1       21 0.68379785E-02 0.30000000E+03</pdfrwt>
<pdfrwt beam="2">0</pdfrwt>
<totfact> 0.16805838E+04</totfact>
</mgrwt>
</event>
<event>
 6    1  0.1274196E-001  0.3000000E+03  0.7818608E-02  0.1093470E+00
         21   -1    0    0  501  502  0.00000000000E+00  0.00000000000E+00  0.21378360048E+01  0.21378360048E+01  0.00000000000E+00 0. -1.
         13   -1    0    0    0    0 -0.00000000000E+00 -0.00000000000E+00 -0.10000000000E+04  0.10000000000E+04  0.00000000000E+00 0.  1.
    9000005    2    1    2  501    0  0.32184951310E+02  0.68163128838E+01 -0.85072780410E+03  0.85137028951E+03  0.33526096525E+01 0.  0.
         13    1    3    3    0    0  0.67535624219E+01  0.28465204131E+01 -0.18592113167E+03  0.18606552740E+03  0.00000000000E+00 0.  1.
          1    1    3    3  501    0  0.25431388888E+02  0.39697924706E+01 -0.66480667242E+03  0.66530476211E+03  0.00000000000E+00 0.  1.
         -3    1    1    2    0  502 -0.32184951310E+02 -0.68163128838E+01 -0.14713435990E+03  0.15076754649E+03  0.00000000000E+00 0. -1.
<mgrwt>
<rscale>  1 0.30000000E+03</rscale>
<asrwt>0</asrwt>
<pdfrwt beam="1">  1       21 0.77739655E-02 0.30000000E+03</pdfrwt>
<pdfrwt beam="2">0</pdfrwt>
<totfact> 0.13432866E+04</totfact>
</mgrwt>
</event>
<event>
 6    1  0.1274196E-001  0.3000000E+03  0.7818608E-02  0.1093470E+00
         21   -1    0    0  501  502  0.00000000000E+00  0.00000000000E+00  0.10156390259E+01  0.10156390259E+01  0.00000000000E+00 0. -1.
         13   -1    0    0    0    0 -0.00000000000E+00 -0.00000000000E+00 -0.10000000000E+04  0.10000000000E+04  0.00000000000E+00 0.  1.
    9000005    2    1    2  501    0 -0.19700679133E+02  0.24274501143E+02 -0.59076928765E+03  0.59160519186E+03  0.33141567217E+01 0.  0.
         13    1    3    3    0    0 -0.17678857123E+02  0.20454672029E+02 -0.49364274865E+03  0.49438254307E+03  0.00000000000E+00 0.  1.
          3    1    3    3  501    0 -0.20218220102E+01  0.38198291138E+01 -0.97126539002E+02  0.97222648788E+02  0.00000000000E+00 0.  1.
         -1    1    1    2    0  502  0.19700679133E+02 -0.24274501143E+02 -0.40821507332E+03  0.40941044717E+03  0.00000000000E+00 0. -1.
<mgrwt>
<rscale>  1 0.30000000E+03</rscale>
<asrwt>0</asrwt>
<pdfrwt beam="1">  1       21 0.36932406E-02 0.30000000E+03</pdfrwt>
<pdfrwt beam="2">0</pdfrwt>
<totfact> 0.48082779E+04</totfact>
</mgrwt>
</event>
<event>
 6    1  0.1274196E-001  0.3000000E+03  0.7818608E-02  0.1093470E+00
         21   -1    0    0  501  502  0.00000000000E+00  0.00000000000E+00  0.16987149761E+01  0.16987149761E+01  0.00000000000E+00 0. -1.
         13   -1    0    0    0    0 -0.00000000000E+00 -0.00000000000E+00 -0.10000000000E+04  0.10000000000E+04  0.00000000000E+00 0.  1.
    9000005    2    1    2  501    0 -0.15369573156E+02  0.27964654551E+02 -0.81584161499E+03  0.81646973000E+03  0.26520912571E+01 0.  0.
         13    1    3    3    0    0 -0.67357542561E+01  0.10036753927E+02 -0.32674621385E+03  0.32696971585E+03  0.00000000000E+00 0.  1.
          3    1    3    3  501    0 -0.86338189003E+01  0.17927900624E+02 -0.48909540114E+03  0.48950001416E+03  0.00000000000E+00 0.  1.
         -1    1    1    2    0  502  0.15369573156E+02 -0.27964654551E+02 -0.18245967004E+03  0.18522898497E+03  0.00000000000E+00 0. -1.
<mgrwt>
<rscale>  1 0.30000000E+03</rscale>
<asrwt>0</asrwt>
<pdfrwt beam="1">  1       21 0.61771584E-02 0.30000000E+03</pdfrwt>
<pdfrwt beam="2">0</pdfrwt>
<totfact> 0.20039667E+04</totfact>
</mgrwt>
</event>
<event>
 6    1  0.1274196E-001  0.3000000E+03  0.7818608E-02  0.1093470E+00
         21   -1    0    0  501  502  0.00000000000E+00  0.00000000000E+00  0.24463997731E+01  0.24463997731E+01  0.00000000000E+00 0. -1.
         13   -1    0    0    0    0 -0.00000000000E+00 -0.00000000000E+00 -0.10000000000E+04  0.10000000000E+04  0.00000000000E+00 0.  1.
    9000005    2    1    2  501    0 -0.46803314198E+02  0.36297226948E+01 -0.65582895144E+03  0.65751240508E+03  0.26877834556E+01 0.  0.
         13    1    3    3    0    0 -0.44671447468E+02  0.36172711525E+01 -0.61756415555E+03  0.61918826627E+03  0.00000000000E+00 0.  1.
          3    1    3    3  501    0 -0.21318667303E+01  0.12451542320E-01 -0.38264795887E+02  0.38324138804E+02  0.00000000000E+00 0.  1.
         -3    1    1    2    0  502  0.46803314198E+02 -0.36297226948E+01 -0.34172464879E+03  0.34493399470E+03  0.00000000000E+00 0. -1.
<mgrwt>
<rscale>  1 0.30000000E+03</rscale>
<asrwt>0</asrwt>
<pdfrwt beam="1">  1       21 0.88960179E-02 0.30000000E+03</pdfrwt>
<pdfrwt beam="2">0</pdfrwt>
<totfact> 0.10593856E+04</totfact>
</mgrwt>
</event>
<event>
 6    1  0.1274196E-001  0.3000000E+03  0.7818608E-02  0.1093470E+00
         21   -1    0    0  501  502  0.00000000000E+00  0.00000000000E+00  0.30180534955E+01  0.30180534955E+01  0.00000000000E+00 0. -1.
         13   -1    0    0    0    0 -0.00000000000E+00 -0.00000000000E+00 -0.10000000000E+04  0.10000000000E+04  0.00000000000E+00 0.  1.
    9000005    2    1    2  501    0  0.42728822223E+02 -0.32652077114E+02 -0.59967613340E+03  0.60208935719E+03  0.28668262532E+01 0.  0.
         13    1    3    3    0    0  0.13504405670E+02 -0.99617822740E+01 -0.17291413521E+03  0.17372652139E+03  0.00000000000E+00 0.  1.
          1    1    3    3  501    0  0.29224416553E+02 -0.22690294840E+02 -0.42676199818E+03  0.42836283580E+03  0.00000000000E+00 0.  1.
         -1    1    1    2    0  502 -0.42728822223E+02  0.32652077114E+02 -0.39730581311E+03  0.40092869630E+03  0.00000000000E+00 0. -1.
<mgrwt>
<rscale>  1 0.30000000E+03</rscale>
<asrwt>0</asrwt>
<pdfrwt beam="1">  1       21 0.10974763E-01 0.30000000E+03</pdfrwt>
<pdfrwt beam="2">0</pdfrwt>
<totfact> 0.72820502E+03</totfact>
</mgrwt>
</event>
<event>
 6    1  0.1274196E-001  0.3000000E+03  0.7818608E-02  0.1093470E+00
         21   -1    0    0  501  502  0.00000000000E+00  0.00000000000E+00  0.13216133082E+01  0.13216133082E+01  0.00000000000E+00 0. -1.
         13   -1    0    0    0    0 -0.00000000000E+00 -0.00000000000E+00 -0.10000000000E+04  0.10000000000E+04  0.00000000000E+00 0.  1.
    9000005    2    1    2  501    0 -0.23687323830E+02 -0.22950682488E+02 -0.29260920423E+03  0.29448251312E+03  0.34613573548E+01 0.  0.
         13    1    3    3    0    0 -0.22307307485E+02 -0.22018462008E+02 -0.27029729645E+03  0.27210853920E+03  0.00000000000E+00 0.  1.
          3    1    3    3  501    0 -0.13800163448E+01 -0.93222047948E+00 -0.22311907778E+02  0.22373973917E+02  0.00000000000E+00 0.  1.
         -1    1    1    2    0  502  0.23687323830E+02  0.22950682488E+02 -0.70606918246E+03  0.70683910019E+03  0.00000000000E+00 0. -1.
<mgrwt>
<rscale>  1 0.30000000E+03</rscale>
<asrwt>0</asrwt>
<pdfrwt beam="1">  1       21 0.48058767E-02 0.30000000E+03</pdfrwt>
<pdfrwt beam="2">0</pdfrwt>
<totfact> 0.30814317E+04</totfact>
</mgrwt>
</event>
<event>
 6    1  0.1274196E-001  0.3000000E+03  0.7818608E-02  0.1093470E+00
         21   -1    0    0  501  502  0.00000000000E+00  0.00000000000E+00  0.11855953596E+01  0.11855953596E+01  0.00000000000E+00 0. -1.
         13   -1    0    0    0    0 -0.00000000000E+00 -0.00000000000E+00 -0.10000000000E+04  0.10000000000E+04  0.00000000000E+00 0.  1.
    9000005    2    1    2  501    0  0.31218667491E+02  0.15212899699E+01 -0.70722186449E+03  0.70792269454E+03  0.38543891001E+01 0.  0.
         13    1    3    3    0    0  0.27397560955E+02  0.21110143162E+01 -0.64013145780E+03  0.64072097359E+03  0.00000000000E+00 0.  1.
          1    1    3    3  501    0  0.38211065361E+01 -0.58972434639E+00 -0.67090406682E+02  0.67201720950E+02  0.00000000000E+00 0.  1.
         -1    1    1    2    0  502 -0.31218667491E+02 -0.15212899699E+01 -0.29159254015E+03  0.29326290082E+03  0.00000000000E+00 0. -1.
<mgrwt>
<rscale>  1 0.30000000E+03</rscale>
<asrwt>0</asrwt>
<pdfrwt beam="1">  1       21 0.43112649E-02 0.30000000E+03</pdfrwt>
<pdfrwt beam="2">0</pdfrwt>
<totfact> 0.37052418E+04</totfact>
</mgrwt>
</event>
<event>
 6    1  0.1274196E-001  0.3000000E+03  0.7818608E-02  0.1093470E+00
         21   -1    0    0  501  502  0.00000000000E+00  0.00000000000E+00  0.17057728890E+01  0.17057728890E+01  0.00000000000E+00 0. -1.
         13   -1    0    0    0    0 -0.00000000000E+00 -0.00000000000E+00 -0.10000000000E+04  0.10000000000E+04  0.00000000000E+00 0.  1.
    9000005    2    1    2  501    0 -0.31568262113E+02 -0.10269961442E+02 -0.79597125533E+03  0.79667745243E+03  0.47640963737E+01 0.  0.
         13    1    3    3    0    0 -0.22258494040E+02 -0.86362805951E+01 -0.60822659718E+03  0.60869501347E+03  0.00000000000E+00 0.  1.
          3    1    3    3  501    0 -0.93097680730E+01 -0.16336808464E+01 -0.18774465815E+03  0.18798243896E+03  0.00000000000E+00 0.  1.
         -3    1    1    2    0  502  0.31568262113E+02  0.10269961442E+02 -0.20232297178E+03  0.20502832046E+03  0.00000000000E+00 0. -1.
<mgrwt>
<rscale>  1 0.30000000E+03</rscale>
<asrwt>0</asrwt>
<pdfrwt beam="1">  1       21 0.62028236E-02 0.30000000E+03</pdfrwt>
<pdfrwt beam="2">0</pdfrwt>
<totfact> 0.19896688E+04</totfact>
</mgrwt>
</event>
<event>
 6    1  0.1274196E-001  0.3000000E+03  0.7818608E-02  0.1093470E+00
         21   -1    0    0  501  502  0.00000000000E+00  0.00000000000E+00  0.14289873610E+01  0.14289873610E+01  0.00000000000E+00 0. -1.
         13   -1    0    0    0    0 -0.00000000000E+00 -0.00000000000E+00 -0.10000000000E+04  0.10000000000E+04  0.00000000000E+00 0.  1.
    9000005    2    1    2  501    0  0.24371110114E+02  0.18707181588E+02 -0.79034872974E+03  0.79095231704E+03  0.32470891610E+01 0.  0.
         13    1    3    3    0    0  0.13331592598E+02  0.12129272034E+02 -0.44729390912E+03  0.44765689064E+03  0.00000000000E+00 0.  1.
          1    1    3    3  501    0  0.11039517516E+02  0.65779095542E+01 -0.34305482061E+03  0.34329542640E+03  0.00000000000E+00 0.  1.
         -3    1    1    2    0  502 -0.24371110114E+02 -0.18707181588E+02 -0.20822228290E+03  0.21047667032E+03  0.00000000000E+00 0. -1.
<mgrwt>
<rscale>  1 0.30000000E+03</rscale>
<asrwt>0</asrwt>
<pdfrwt beam="1">  1       21 0.51963286E-02 0.30000000E+03</pdfrwt>
<pdfrwt beam="2">0</pdfrwt>
<totfact> 0.26972407E+04</totfact>
</mgrwt>
</event>
<event>
 6    1  0.1274196E-001  0.3000000E+03  0.7818608E-02  0.1093470E+00
         21   -1    0    0  501  502  0.00000000000E+00  0.00000000000E+00  0.24153269977E+01  0.24153269977E+01  0.00000000000E+00 0. -1.
         13   -1    0    0    0    0 -0.00000000000E+00 -0.00000000000E+00 -0.10000000000E+04  0.10000000000E+04  0.00000000000E+00 0.  1.
    9000005    2    1    2  501    0  0.35299467155E+02  0.24343620062E+02 -0.25584825706E+03  0.25944051251E+03  0.35191866621E+01 0.  0.
         13    1    3    3    0    0  0.30760613465E+02  0.22126070865E+02 -0.23051142206E+03  0.23360499578E+03  0.00000000000E+00 0.  1.
          3    1    3    3  501    0  0.45388536909E+01  0.22175491970E+01 -0.25336835000E+02  0.25835516737E+02  0.00000000000E+00 0.  1.
         -1    1    1    2    0  502 -0.35299467155E+02 -0.24343620062E+02 -0.74173641594E+03  0.74297481448E+03  0.00000000000E+00 0. -1.
<mgrwt>
<rscale>  1 0.30000000E+03</rscale>
<asrwt>0</asrwt>
<pdfrwt beam="1">  1       21 0.87830258E-02 0.30000000E+03</pdfrwt>
<pdfrwt beam="2">0</pdfrwt>
<totfact> 0.10836120E+04</totfact>
</mgrwt>
</event>
<event>
 6    1  0.1274196E-001  0.3000000E+03  0.7818608E-02  0.1093470E+00
         21   -1    0    0  501  502  0.00000000000E+00  0.00000000000E+00  0.24950883993E+01  0.24950883993E+01  0.00000000000E+00 0. -1.
         13   -1    0    0    0    0 -0.00000000000E+00 -0.00000000000E+00 -0.10000000000E+04  0.10000000000E+04  0.00000000000E+00 0.  1.
    9000005    2    1    2  501    0 -0.27207278384E+02 -0.21030392805E+02 -0.86208001703E+03  0.86277245069E+03  0.34398387725E+01 0.  0.
         13    1    3    3    0    0 -0.16465982668E+02 -0.11003207910E+02 -0.52001363665E+03  0.52039060471E+03  0.00000000000E+00 0.  1.
          3    1    3    3  501    0 -0.10741295716E+02 -0.10027184895E+02 -0.34206638038E+03  0.34238184598E+03  0.00000000000E+00 0.  1.
         -1    1    1    2    0  502  0.27207278384E+02  0.21030392805E+02 -0.13542489457E+03  0.13972263771E+03  0.00000000000E+00 0. -1.
<mgrwt>
<rscale>  1 0.30000000E+03</rscale>
<asrwt>0</asrwt>
<pdfrwt beam="1">  1       21 0.90730679E-02 0.30000000E+03</pdfrwt>
<pdfrwt beam="2">0</pdfrwt>
<totfact> 0.10230424E+04</totfact>
</mgrwt>
</event>
<event>
 6    1  0.1274196E-001  0.3000000E+03  0.7818608E-02  0.1093470E+00
         21   -1    0    0  501  502  0.00000000000E+00  0.00000000000E+00  0.87081083028E+01  0.87081083028E+01  0.00000000000E+00 0. -1.
         13   -1    0    0    0    0 -0.00000000000E+00 -0.00000000000E+00 -0.10000000000E+04  0.10000000000E+04  0.00000000000E+00 0.  1.
    9000005    2    1    2  501    0 -0.83563315274E+02  0.28128432429E+02 -0.66050485862E+03  0.66637187355E+03  0.32816507573E+01 0.  0.
         13    1    3    3    0    0 -0.79707004552E+02  0.27538498143E+02 -0.63160099956E+03  0.63720593069E+03  0.00000000000E+00 0.  1.
          1    1    3    3  501    0 -0.38563107216E+01  0.58993428624E+00 -0.28903859057E+02  0.29165942865E+02  0.00000000000E+00 0.  1.
         -1    1    1    2    0  502  0.83563315274E+02 -0.28128432429E+02 -0.33078703308E+03  0.34233623475E+03  0.00000000000E+00 0. -1.
<mgrwt>
<rscale>  1 0.30000000E+03</rscale>
<asrwt>0</asrwt>
<pdfrwt beam="1">  1       21 0.31665915E-01 0.30000000E+03</pdfrwt>
<pdfrwt beam="2">0</pdfrwt>
<totfact> 0.97542396E+02</totfact>
</mgrwt>
</event>
<event>
 6    1  0.1274196E-001  0.3000000E+03  0.7818608E-02  0.1093470E+00
         21   -1    0    0  501  502  0.00000000000E+00  0.00000000000E+00  0.51446192466E+01  0.51446192466E+01  0.00000000000E+00 0. -1.
         13   -1    0    0    0    0 -0.00000000000E+00 -0.00000000000E+00 -0.10000000000E+04  0.10000000000E+04  0.00000000000E+00 0.  1.
    9000005    2    1    2  501    0 -0.46744877289E+02  0.46376391612E+02 -0.69620862552E+03  0.69932483953E+03  0.35955096561E+01 0.  0.
         13    1    3    3    0    0 -0.29556642408E+01  0.42824562338E+01 -0.56220372354E+02  0.56460655771E+02  0.00000000000E+00 0.  1.
          1    1    3    3  501    0 -0.43789213049E+02  0.42093935378E+02 -0.63998825317E+03  0.64286418376E+03  0.00000000000E+00 0.  1.
         -1    1    1    2    0  502  0.46744877289E+02 -0.46376391612E+02 -0.29864675523E+03  0.30581977971E+03  0.00000000000E+00 0. -1.
<mgrwt>
<rscale>  1 0.30000000E+03</rscale>
<asrwt>0</asrwt>
<pdfrwt beam="1">  1       21 0.18707746E-01 0.30000000E+03</pdfrwt>
<pdfrwt beam="2">0</pdfrwt>
<totfact> 0.27238796E+03</totfact>
</mgrwt>
</event>
<event>
 6    1  0.1274196E-001  0.3000000E+03  0.7818608E-02  0.1093470E+00
         21   -1    0    0  501  502  0.00000000000E+00  0.00000000000E+00  0.19275777867E+01  0.19275777867E+01  0.00000000000E+00 0. -1.
         13   -1    0    0    0    0 -0.00000000000E+00 -0.00000000000E+00 -0.10000000000E+04  0.10000000000E+04  0.00000000000E+00 0.  1.
    9000005    2    1    2  501    0  0.28732784440E+02  0.15294481207E+02 -0.16435133586E+03  0.16757133260E+03  0.30489100177E+01 0.  0.
         13    1    3    3    0    0  0.28728393093E+02  0.15330021697E+02 -0.16433817741E+03  0.16753318086E+03  0.00000000000E+00 0.  1.
          1    1    3    3  501    0  0.43913472404E-02 -0.35540489579E-01 -0.13158453409E-01  0.38151739491E-01  0.00000000000E+00 0.  1.
         -1    1    1    2    0  502 -0.28732784440E+02 -0.15294481207E+02 -0.83372108635E+03  0.83435624519E+03  0.00000000000E+00 0. -1.
<mgrwt>
<rscale>  1 0.30000000E+03</rscale>
<asrwt>0</asrwt>
<pdfrwt beam="1">  1       21 0.70093886E-02 0.30000000E+03</pdfrwt>
<pdfrwt beam="2">0</pdfrwt>
<totfact> 0.16097691E+04</totfact>
</mgrwt>
</event>
<event>
 6    1  0.1274196E-001  0.3000000E+03  0.7818608E-02  0.1093470E+00
         21   -1    0    0  501  502  0.00000000000E+00  0.00000000000E+00  0.13611490341E+01  0.13611490341E+01  0.00000000000E+00 0. -1.
         13   -1    0    0    0    0 -0.00000000000E+00 -0.00000000000E+00 -0.10000000000E+04  0.10000000000E+04  0.00000000000E+00 0.  1.
    9000005    2    1    2  501    0 -0.25203100614E+02  0.18680577453E+02 -0.76177242090E+03  0.76242629192E+03  0.35311618893E+01 0.  0.
         13    1    3    3    0    0 -0.18865931563E+02  0.12127773790E+02 -0.52739927127E+03  0.52787593013E+03  0.00000000000E+00 0.  1.
          3    1    3    3  501    0 -0.63371690514E+01  0.65528036638E+01 -0.23437314963E+03  0.23455036179E+03  0.00000000000E+00 0.  1.
         -1    1    1    2    0  502  0.25203100614E+02 -0.18680577453E+02 -0.23686643007E+03  0.23893485712E+03  0.00000000000E+00 0. -1.
<mgrwt>
<rscale>  1 0.30000000E+03</rscale>
<asrwt>0</asrwt>
<pdfrwt beam="1">  1       21 0.49496433E-02 0.30000000E+03</pdfrwt>
<pdfrwt beam="2">0</pdfrwt>
<totfact> 0.29305895E+04</totfact>
</mgrwt>
</event>
<event>
 6    1  0.1274196E-001  0.3000000E+03  0.7818608E-02  0.1093470E+00
         21   -1    0    0  501  502  0.00000000000E+00  0.00000000000E+00  0.20485924096E+01  0.20485924096E+01  0.00000000000E+00 0. -1.
         13   -1    0    0    0    0 -0.00000000000E+00 -0.00000000000E+00 -0.10000000000E+04  0.10000000000E+04  0.00000000000E+00 0.  1.
    9000005    2    1    2  501    0 -0.13605574034E+02 -0.40732574761E+02 -0.65592169095E+03  0.65733337465E+03  0.31058776002E+01 0.  0.
         13    1    3    3    0    0 -0.33283920649E+01 -0.66889776515E+01 -0.12254471576E+03  0.12277226062E+03  0.00000000000E+00 0.  1.
          3    1    3    3  501    0 -0.10277181969E+02 -0.34043597109E+02 -0.53337697519E+03  0.53456111404E+03  0.00000000000E+00 0.  1.
         -3    1    1    2    0  502  0.13605574034E+02  0.40732574761E+02 -0.34202971664E+03  0.34471521776E+03  0.00000000000E+00 0. -1.
<mgrwt>
<rscale>  1 0.30000000E+03</rscale>
<asrwt>0</asrwt>
<pdfrwt beam="1">  1       21 0.74494427E-02 0.30000000E+03</pdfrwt>
<pdfrwt beam="2">0</pdfrwt>
<totfact> 0.14474846E+04</totfact>
</mgrwt>
</event>
<event>
 6    1  0.1274196E-001  0.3000000E+03  0.7818608E-02  0.1093470E+00
         21   -1    0    0  501  502  0.00000000000E+00  0.00000000000E+00  0.10506947814E+01  0.10506947814E+01  0.00000000000E+00 0. -1.
         13   -1    0    0    0    0 -0.00000000000E+00 -0.00000000000E+00 -0.10000000000E+04  0.10000000000E+04  0.00000000000E+00 0.  1.
    9000005    2    1    2  501    0 -0.67820340116E+01 -0.31018310477E+02 -0.59698340923E+03  0.59783274738E+03  0.25828998228E+01 0.  0.
         13    1    3    3    0    0 -0.37293710476E+01 -0.15457109458E+02 -0.32226468482E+03  0.32265671777E+03  0.00000000000E+00 0.  1.
          1    1    3    3  501    0 -0.30526629640E+01 -0.15561201019E+02 -0.27471872441E+03  0.27517602961E+03  0.00000000000E+00 0.  1.
         -1    1    1    2    0  502  0.67820340116E+01  0.31018310477E+02 -0.40196589599E+03  0.40321794741E+03  0.00000000000E+00 0. -1.
<mgrwt>
<rscale>  1 0.30000000E+03</rscale>
<asrwt>0</asrwt>
<pdfrwt beam="1">  1       21 0.38207164E-02 0.30000000E+03</pdfrwt>
<pdfrwt beam="2">0</pdfrwt>
<totfact> 0.45419243E+04</totfact>
</mgrwt>
</event>
<event>
 6    1  0.1274196E-001  0.3000000E+03  0.7818608E-02  0.1093470E+00
         21   -1    0    0  501  502  0.00000000000E+00  0.00000000000E+00  0.36962336320E+01  0.36962336320E+01  0.00000000000E+00 0. -1.
         13   -1    0    0    0    0 -0.00000000000E+00 -0.00000000000E+00 -0.10000000000E+04  0.10000000000E+04  0.00000000000E+00 0.  1.
    9000005    2    1    2  501    0 -0.25365067052E+02 -0.16942985426E+02 -0.93168094175E+03  0.93223602902E+03  0.10207115178E+02 0.  0.
         13    1    3    3    0    0 -0.24707335686E+02 -0.15799237198E+02 -0.78267911820E+03  0.78322836414E+03  0.00000000000E+00 0.  1.
          1    1    3    3  501    0 -0.65773136659E+00 -0.11437482281E+01 -0.14900182355E+03  0.14900766487E+03  0.00000000000E+00 0.  1.
         -3    1    1    2    0  502  0.25365067052E+02  0.16942985426E+02 -0.64622824622E+02  0.71460204617E+02  0.00000000000E+00 0. -1.
<mgrwt>
<rscale>  1 0.30000000E+03</rscale>
<asrwt>0</asrwt>
<pdfrwt beam="1">  1       21 0.13440878E-01 0.30000000E+03</pdfrwt>
<pdfrwt beam="2">0</pdfrwt>
<totfact> 0.50396420E+03</totfact>
</mgrwt>
</event>
<event>
 6    1  0.1274196E-001  0.3000000E+03  0.7818608E-02  0.1093470E+00
         21   -1    0    0  501  502  0.00000000000E+00  0.00000000000E+00  0.13106337578E+01  0.13106337578E+01  0.00000000000E+00 0. -1.
         13   -1    0    0    0    0 -0.00000000000E+00 -0.00000000000E+00 -0.10000000000E+04  0.10000000000E+04  0.00000000000E+00 0.  1.
    9000005    2    1    2  501    0  0.14802981800E+02 -0.30046393493E+02 -0.68447422043E+03  0.68531526688E+03  0.54902231138E+01 0.  0.
         13    1    3    3    0    0  0.19081459672E+01 -0.38784296627E+01 -0.13272607865E+03  0.13279644269E+03  0.00000000000E+00 0.  1.
          1    1    3    3  501    0  0.12894835833E+02 -0.26167963830E+02 -0.55174814178E+03  0.55251882419E+03  0.00000000000E+00 0.  1.
         -3    1    1    2    0  502 -0.14802981800E+02  0.30046393493E+02 -0.31421514581E+03  0.31599536688E+03  0.00000000000E+00 0. -1.
<mgrwt>
<rscale>  1 0.30000000E+03</rscale>
<asrwt>0</asrwt>
<pdfrwt beam="1">  1       21 0.47659510E-02 0.30000000E+03</pdfrwt>
<pdfrwt beam="2">0</pdfrwt>
<totfact> 0.31254807E+04</totfact>
</mgrwt>
</event>
<event>
 6    1  0.1274196E-001  0.3000000E+03  0.7818608E-02  0.1093470E+00
         21   -1    0    0  501  502  0.00000000000E+00  0.00000000000E+00  0.14067918311E+01  0.14067918311E+01  0.00000000000E+00 0. -1.
         13   -1    0    0    0    0 -0.00000000000E+00 -0.00000000000E+00 -0.10000000000E+04  0.10000000000E+04  0.00000000000E+00 0.  1.
    9000005    2    1    2  501    0  0.29912002768E+02  0.12469260281E+02 -0.25011233536E+03  0.25222468626E+03  0.33017712405E+01 0.  0.
         13    1    3    3    0    0  0.13063464219E+02  0.63509944917E+01 -0.12299802776E+03  0.12385275153E+03  0.00000000000E+00 0.  1.
          1    1    3    3  501    0  0.16848538549E+02  0.61182657893E+01 -0.12711430760E+03  0.12837193472E+03  0.00000000000E+00 0.  1.
         -1    1    1    2    0  502 -0.29912002768E+02 -0.12469260281E+02 -0.74848087280E+03  0.74918210558E+03  0.00000000000E+00 0. -1.
<mgrwt>
<rscale>  1 0.30000000E+03</rscale>
<asrwt>0</asrwt>
<pdfrwt beam="1">  1       21 0.51156174E-02 0.30000000E+03</pdfrwt>
<pdfrwt beam="2">0</pdfrwt>
<totfact> 0.27703089E+04</totfact>
</mgrwt>
</event>
<event>
 6    1  0.1274196E-001  0.3000000E+03  0.7818608E-02  0.1093470E+00
         21   -1    0    0  501  502  0.00000000000E+00  0.00000000000E+00  0.11634972423E+01  0.11634972423E+01  0.00000000000E+00 0. -1.
         13   -1    0    0    0    0 -0.00000000000E+00 -0.00000000000E+00 -0.10000000000E+04  0.10000000000E+04  0.00000000000E+00 0.  1.
    9000005    2    1    2  501    0 -0.66041014249E+01 -0.33337504851E+02 -0.47179106838E+03  0.47302346536E+03  0.30631987393E+01 0.  0.
         13    1    3    3    0    0 -0.49911660637E+00 -0.59010023160E+01 -0.69651085753E+02  0.69902394038E+02  0.00000000000E+00 0.  1.
          1    1    3    3  501    0 -0.61049848185E+01 -0.27436502535E+02 -0.40213998263E+03  0.40312107132E+03  0.00000000000E+00 0.  1.
         -3    1    1    2    0  502  0.66041014249E+01  0.33337504851E+02 -0.52704543437E+03  0.52814003188E+03  0.00000000000E+00 0. -1.
<mgrwt>
<rscale>  1 0.30000000E+03</rscale>
<asrwt>0</asrwt>
<pdfrwt beam="1">  1       21 0.42309080E-02 0.30000000E+03</pdfrwt>
<pdfrwt beam="2">0</pdfrwt>
<totfact> 0.38249824E+04</totfact>
</mgrwt>
</event>
<event>
 6    1  0.1274196E-001  0.3000000E+03  0.7818608E-02  0.1093470E+00
         21   -1    0    0  501  502  0.00000000000E+00  0.00000000000E+00  0.64131689281E+01  0.64131689281E+01  0.00000000000E+00 0. -1.
         13   -1    0    0    0    0 -0.00000000000E+00 -0.00000000000E+00 -0.10000000000E+04  0.10000000000E+04  0.00000000000E+00 0.  1.
    9000005    2    1    2  501    0  0.15124323217E+02 -0.47645895612E+02 -0.88985922377E+03  0.89126850758E+03  0.33523044650E+01 0.  0.
         13    1    3    3    0    0  0.14220816468E+02 -0.45623205028E+02 -0.86040636238E+03  0.86173245087E+03  0.00000000000E+00 0.  1.
          3    1    3    3  501    0  0.90350674914E+00 -0.20226905839E+01 -0.29452861393E+02  0.29536056708E+02  0.00000000000E+00 0.  1.
         -1    1    1    2    0  502 -0.15124323217E+02  0.47645895612E+02 -0.10372760730E+03  0.11514466135E+03  0.00000000000E+00 0. -1.
<mgrwt>
<rscale>  1 0.30000000E+03</rscale>
<asrwt>0</asrwt>
<pdfrwt beam="1">  1       21 0.23320663E-01 0.30000000E+03</pdfrwt>
<pdfrwt beam="2">0</pdfrwt>
<totfact> 0.17857498E+03</totfact>
</mgrwt>
</event>
<event>
 6    1  0.1274196E-001  0.3000000E+03  0.7818608E-02  0.1093470E+00
         21   -1    0    0  501  502  0.00000000000E+00  0.00000000000E+00  0.11025630681E+01  0.11025630681E+01  0.00000000000E+00 0. -1.
         13   -1    0    0    0    0 -0.00000000000E+00 -0.00000000000E+00 -0.10000000000E+04  0.10000000000E+04  0.00000000000E+00 0.  1.
    9000005    2    1    2  501    0  0.31953066691E+02  0.76815368027E+01 -0.56199676459E+03  0.56296765009E+03  0.34938743927E+01 0.  0.
         13    1    3    3    0    0  0.17330470011E+02  0.55814231531E+01 -0.29206864273E+03  0.29263559172E+03  0.00000000000E+00 0.  1.
          1    1    3    3  501    0  0.14622596681E+02  0.21001136496E+01 -0.26992812186E+03  0.27033205837E+03  0.00000000000E+00 0.  1.
         -3    1    1    2    0  502 -0.31953066691E+02 -0.76815368027E+01 -0.43690067234E+03  0.43813491298E+03  0.00000000000E+00 0. -1.
<mgrwt>
<rscale>  1 0.30000000E+03</rscale>
<asrwt>0</asrwt>
<pdfrwt beam="1">  1       21 0.40093287E-02 0.30000000E+03</pdfrwt>
<pdfrwt beam="2">0</pdfrwt>
<totfact> 0.41882690E+04</totfact>
</mgrwt>
</event>
<event>
 6    1  0.1274196E-001  0.3000000E+03  0.7818608E-02  0.1093470E+00
         21   -1    0    0  501  502  0.00000000000E+00  0.00000000000E+00  0.33821754338E+01  0.33821754338E+01  0.00000000000E+00 0. -1.
         13   -1    0    0    0    0 -0.00000000000E+00 -0.00000000000E+00 -0.10000000000E+04  0.10000000000E+04  0.00000000000E+00 0.  1.
    9000005    2    1    2  501    0  0.17263974806E+02  0.25521653684E+02 -0.92370451629E+03  0.92422568387E+03  0.36988751685E+01 0.  0.
         13    1    3    3    0    0  0.16349498928E+02  0.24623789619E+02 -0.85872842509E+03  0.85923695520E+03  0.00000000000E+00 0.  1.
          3    1    3    3  501    0  0.91447587809E+00  0.89786406485E+00 -0.64976091203E+02  0.64988728669E+02  0.00000000000E+00 0.  1.
         -1    1    1    2    0  502 -0.17263974806E+02 -0.25521653684E+02 -0.72913308274E+02  0.79156491562E+02  0.00000000000E+00 0. -1.
<mgrwt>
<rscale>  1 0.30000000E+03</rscale>
<asrwt>0</asrwt>
<pdfrwt beam="1">  1       21 0.12298846E-01 0.30000000E+03</pdfrwt>
<pdfrwt beam="2">0</pdfrwt>
<totfact> 0.59261587E+03</totfact>
</mgrwt>
</event>
<event>
 6    1  0.1274196E-001  0.3000000E+03  0.7818608E-02  0.1093470E+00
         21   -1    0    0  501  502  0.00000000000E+00  0.00000000000E+00  0.20605383218E+01  0.20605383218E+01  0.00000000000E+00 0. -1.
         13   -1    0    0    0    0 -0.00000000000E+00 -0.00000000000E+00 -0.10000000000E+04  0.10000000000E+04  0.00000000000E+00 0.  1.
    9000005    2    1    2  501    0 -0.94114097317E+01 -0.39631486472E+02 -0.71095068875E+03  0.71219542290E+03  0.10592884823E+02 0.  0.
         13    1    3    3    0    0  0.12223308291E+01 -0.13065358704E+02 -0.26836972549E+03  0.26869035570E+03  0.00000000000E+00 0.  1.
          1    1    3    3  501    0 -0.10633740561E+02 -0.26566127768E+02 -0.44258096326E+03  0.44350506719E+03  0.00000000000E+00 0.  1.
         -3    1    1    2    0  502  0.94114097317E+01  0.39631486472E+02 -0.28698877293E+03  0.28986511542E+03  0.00000000000E+00 0. -1.
<mgrwt>
<rscale>  1 0.30000000E+03</rscale>
<asrwt>0</asrwt>
<pdfrwt beam="1">  1       21 0.74928824E-02 0.30000000E+03</pdfrwt>
<pdfrwt beam="2">0</pdfrwt>
<totfact> 0.14328262E+04</totfact>
</mgrwt>
</event>
<event>
 6    1  0.1274196E-001  0.3000000E+03  0.7818608E-02  0.1093470E+00
         21   -1    0    0  501  502  0.00000000000E+00  0.00000000000E+00  0.59632619643E+01  0.59632619643E+01  0.00000000000E+00 0. -1.
         13   -1    0    0    0    0 -0.00000000000E+00 -0.00000000000E+00 -0.10000000000E+04  0.10000000000E+04  0.00000000000E+00 0.  1.
    9000005    2    1    2  501    0 -0.33032631041E+02 -0.28622058796E+01 -0.95121226552E+03  0.95180347631E+03  0.50731157072E+01 0.  0.
         13    1    3    3    0    0 -0.11675180903E+00 -0.23980941913E+00 -0.27356979597E+02  0.27358279774E+02  0.00000000000E+00 0.  1.
          1    1    3    3  501    0 -0.32915879232E+02 -0.26223964605E+01 -0.92385528592E+03  0.92444519653E+03  0.00000000000E+00 0.  1.
         -1    1    1    2    0  502  0.33032631041E+02  0.28622058796E+01 -0.42824472516E+02  0.54159785656E+02  0.00000000000E+00 0. -1.
<mgrwt>
<rscale>  1 0.30000000E+03</rscale>
<asrwt>0</asrwt>
<pdfrwt beam="1">  1       21 0.21684635E-01 0.30000000E+03</pdfrwt>
<pdfrwt beam="2">0</pdfrwt>
<totfact> 0.20548912E+03</totfact>
</mgrwt>
</event>
<event>
 6    1  0.1274196E-001  0.3000000E+03  0.7818608E-02  0.1093470E+00
         21   -1    0    0  501  502  0.00000000000E+00  0.00000000000E+00  0.21625704095E+01  0.21625704095E+01  0.00000000000E+00 0. -1.
         13   -1    0    0    0    0 -0.00000000000E+00 -0.00000000000E+00 -0.10000000000E+04  0.10000000000E+04  0.00000000000E+00 0.  1.
    9000005    2    1    2  501    0 -0.22083270152E+02  0.26043300592E+02 -0.83875524935E+03  0.83945711754E+03  0.34582560053E+01 0.  0.
         13    1    3    3    0    0 -0.10294232526E+02  0.95633707508E+01 -0.33524643279E+03  0.33554075756E+03  0.00000000000E+00 0.  1.
          1    1    3    3  501    0 -0.11789037626E+02  0.16479929842E+02 -0.50350881656E+03  0.50391635998E+03  0.00000000000E+00 0.  1.
         -1    1    1    2    0  502  0.22083270152E+02 -0.26043300592E+02 -0.15908218024E+03  0.16270545287E+03  0.00000000000E+00 0. -1.
<mgrwt>
<rscale>  1 0.30000000E+03</rscale>
<asrwt>0</asrwt>
<pdfrwt beam="1">  1       21 0.78639090E-02 0.30000000E+03</pdfrwt>
<pdfrwt beam="2">0</pdfrwt>
<totfact> 0.13164504E+04</totfact>
</mgrwt>
</event>
<event>
 6    1  0.1274196E-001  0.3000000E+03  0.7818608E-02  0.1093470E+00
         21   -1    0    0  501  502  0.00000000000E+00  0.00000000000E+00  0.21887010573E+01  0.21887010573E+01  0.00000000000E+00 0. -1.
         13   -1    0    0    0    0 -0.00000000000E+00 -0.00000000000E+00 -0.10000000000E+04  0.10000000000E+04  0.00000000000E+00 0.  1.
    9000005    2    1    2  501    0  0.36796815696E+02 -0.16564154803E+01 -0.80745287708E+03  0.80829935599E+03  0.33092033731E+01 0.  0.
         13    1    3    3    0    0  0.28054300715E+02 -0.25577916516E+01 -0.60306679685E+03  0.60372439701E+03  0.00000000000E+00 0.  1.
          3    1    3    3  501    0  0.87425149810E+01  0.90137617128E+00 -0.20438608023E+03  0.20457495897E+03  0.00000000000E+00 0.  1.
         -3    1    1    2    0  502 -0.36796815696E+02  0.16564154803E+01 -0.19035842186E+03  0.19388934507E+03  0.00000000000E+00 0. -1.
<mgrwt>
<rscale>  1 0.30000000E+03</rscale>
<asrwt>0</asrwt>
<pdfrwt beam="1">  1       21 0.79589297E-02 0.30000000E+03</pdfrwt>
<pdfrwt beam="2">0</pdfrwt>
<totfact> 0.12889858E+04</totfact>
</mgrwt>
</event>
<event>
 6    1  0.1274196E-001  0.3000000E+03  0.7818608E-02  0.1093470E+00
         21   -1    0    0  501  502  0.00000000000E+00  0.00000000000E+00  0.14003408335E+01  0.14003408335E+01  0.00000000000E+00 0. -1.
         13   -1    0    0    0    0 -0.00000000000E+00 -0.00000000000E+00 -0.10000000000E+04  0.10000000000E+04  0.00000000000E+00 0.  1.
    9000005    2    1    2  501    0 -0.33034263305E+02 -0.84609632136E+01 -0.70426536345E+03  0.70509723912E+03  0.30925729710E+01 0.  0.
         13    1    3    3    0    0 -0.32633448557E+02 -0.86487937008E+01 -0.69057401925E+03  0.69139874144E+03  0.00000000000E+00 0.  1.
          3    1    3    3  501    0 -0.40081474787E+00  0.18783048718E+00 -0.13691344201E+02  0.13698497683E+02  0.00000000000E+00 0.  1.
         -1    1    1    2    0  502  0.33034263305E+02  0.84609632136E+01 -0.29433429572E+03  0.29630310171E+03  0.00000000000E+00 0. -1.
<mgrwt>
<rscale>  1 0.30000000E+03</rscale>
<asrwt>0</asrwt>
<pdfrwt beam="1">  1       21 0.50921592E-02 0.30000000E+03</pdfrwt>
<pdfrwt beam="2">0</pdfrwt>
<totfact> 0.27921233E+04</totfact>
</mgrwt>
</event>
<event>
 6    1  0.1274196E-001  0.3000000E+03  0.7818608E-02  0.1093470E+00
         21   -1    0    0  501  502  0.00000000000E+00  0.00000000000E+00  0.42203647814E+01  0.42203647814E+01  0.00000000000E+00 0. -1.
         13   -1    0    0    0    0 -0.00000000000E+00 -0.00000000000E+00 -0.10000000000E+04  0.10000000000E+04  0.00000000000E+00 0.  1.
    9000005    2    1    2  501    0  0.44635659867E+02  0.44729179228E+02 -0.61291007661E+03  0.61617121774E+03  0.38943499434E+01 0.  0.
         13    1    3    3    0    0  0.44266671899E+02  0.44131359140E+02 -0.60137221492E+03  0.60461198795E+03  0.00000000000E+00 0.  1.
          3    1    3    3  501    0  0.36898796780E+00  0.59782008871E+00 -0.11537861691E+02  0.11559229791E+02  0.00000000000E+00 0.  1.
         -1    1    1    2    0  502 -0.44635659867E+02 -0.44729179228E+02 -0.38286955861E+03  0.38804914704E+03  0.00000000000E+00 0. -1.
<mgrwt>
<rscale>  1 0.30000000E+03</rscale>
<asrwt>0</asrwt>
<pdfrwt beam="1">  1       21 0.15346813E-01 0.30000000E+03</pdfrwt>
<pdfrwt beam="2">0</pdfrwt>
<totfact> 0.39472135E+03</totfact>
</mgrwt>
</event>
<event>
 6    1  0.1274196E-001  0.3000000E+03  0.7818608E-02  0.1093470E+00
         21   -1    0    0  501  502  0.00000000000E+00  0.00000000000E+00  0.60567505328E+01  0.60567505328E+01  0.00000000000E+00 0. -1.
         13   -1    0    0    0    0 -0.00000000000E+00 -0.00000000000E+00 -0.10000000000E+04  0.10000000000E+04  0.00000000000E+00 0.  1.
    9000005    2    1    2  501    0 -0.76326911817E+01  0.38550817495E+02 -0.93110305983E+03  0.93193986353E+03  0.38180784403E+01 0.  0.
         13    1    3    3    0    0 -0.75704626736E+01  0.34626192569E+02 -0.81470394995E+03  0.81547459261E+03  0.00000000000E+00 0.  1.
          1    1    3    3  501    0 -0.62228508035E-01  0.39246249258E+01 -0.11639910987E+03  0.11646527093E+03  0.00000000000E+00 0.  1.
         -3    1    1    2    0  502  0.76326911817E+01 -0.38550817495E+02 -0.62840189641E+02  0.74116886998E+02  0.00000000000E+00 0. -1.
<mgrwt>
<rscale>  1 0.30000000E+03</rscale>
<asrwt>0</asrwt>
<pdfrwt beam="1">  1       21 0.22024594E-01 0.30000000E+03</pdfrwt>
<pdfrwt beam="2">0</pdfrwt>
<totfact> 0.19942982E+03</totfact>
</mgrwt>
</event>
<event>
 6    1  0.1274196E-001  0.3000000E+03  0.7818608E-02  0.1093470E+00
         21   -1    0    0  501  502  0.00000000000E+00  0.00000000000E+00  0.10700994381E+01  0.10700994381E+01  0.00000000000E+00 0. -1.
         13   -1    0    0    0    0 -0.00000000000E+00 -0.00000000000E+00 -0.10000000000E+04  0.10000000000E+04  0.00000000000E+00 0.  1.
    9000005    2    1    2  501    0  0.69717525739E+01 -0.29946243672E+02 -0.66164478285E+03  0.66238642184E+03  0.60473396142E+01 0.  0.
         13    1    3    3    0    0  0.40721954109E+01 -0.21900032452E+02 -0.52674284269E+03  0.52721363461E+03  0.00000000000E+00 0.  1.
          3    1    3    3  501    0  0.28995571630E+01 -0.80462112193E+01 -0.13490194017E+03  0.13517278723E+03  0.00000000000E+00 0.  1.
         -3    1    1    2    0  502 -0.69717525739E+01  0.29946243672E+02 -0.33728511771E+03  0.33868367760E+03  0.00000000000E+00 0. -1.
<mgrwt>
<rscale>  1 0.30000000E+03</rscale>
<asrwt>0</asrwt>
<pdfrwt beam="1">  1       21 0.38912789E-02 0.30000000E+03</pdfrwt>
<pdfrwt beam="2">0</pdfrwt>
<totfact> 0.44043191E+04</totfact>
</mgrwt>
</event>
<event>
 6    1  0.1274196E-001  0.3000000E+03  0.7818608E-02  0.1093470E+00
         21   -1    0    0  501  502  0.00000000000E+00  0.00000000000E+00  0.40799533552E+01  0.40799533552E+01  0.00000000000E+00 0. -1.
         13   -1    0    0    0    0 -0.00000000000E+00 -0.00000000000E+00 -0.10000000000E+04  0.10000000000E+04  0.00000000000E+00 0.  1.
    9000005    2    1    2  501    0 -0.50205492008E+02 -0.28808851766E+02 -0.70972467878E+03  0.71208966250E+03  0.34679098247E+01 0.  0.
         13    1    3    3    0    0 -0.23917728727E+02 -0.11894828872E+02 -0.33546198720E+03  0.33652383208E+03  0.00000000000E+00 0.  1.
          3    1    3    3  501    0 -0.26287763281E+02 -0.16914022894E+02 -0.37426269158E+03  0.37556583041E+03  0.00000000000E+00 0.  1.
         -3    1    1    2    0  502  0.50205492008E+02  0.28808851766E+02 -0.28619536786E+03  0.29199029086E+03  0.00000000000E+00 0. -1.
<mgrwt>
<rscale>  1 0.30000000E+03</rscale>
<asrwt>0</asrwt>
<pdfrwt beam="1">  1       21 0.14836225E-01 0.30000000E+03</pdfrwt>
<pdfrwt beam="2">0</pdfrwt>
<totfact> 0.42025139E+03</totfact>
</mgrwt>
</event>
<event>
 6    1  0.1274196E-001  0.3000000E+03  0.7818608E-02  0.1093470E+00
         21   -1    0    0  501  502  0.00000000000E+00  0.00000000000E+00  0.15600310829E+01  0.15600310829E+01  0.00000000000E+00 0. -1.
         13   -1    0    0    0    0 -0.00000000000E+00 -0.00000000000E+00 -0.10000000000E+04  0.10000000000E+04  0.00000000000E+00 0.  1.
    9000005    2    1    2  501    0 -0.25696365383E+02  0.29325783143E+02 -0.57531194699E+03  0.57663930002E+03  0.29565557877E+01 0.  0.
         13    1    3    3    0    0 -0.15616317866E+02  0.19060236618E+02 -0.34568635301E+03  0.34656343814E+03  0.00000000000E+00 0.  1.
          1    1    3    3  501    0 -0.10080047517E+02  0.10265546524E+02 -0.22962559398E+03  0.23007586187E+03  0.00000000000E+00 0.  1.
         -3    1    1    2    0  502  0.25696365383E+02 -0.29325783143E+02 -0.42312802193E+03  0.42492073107E+03  0.00000000000E+00 0. -1.
<mgrwt>
<rscale>  1 0.30000000E+03</rscale>
<asrwt>0</asrwt>
<pdfrwt beam="1">  1       21 0.56728523E-02 0.30000000E+03</pdfrwt>
<pdfrwt beam="2">0</pdfrwt>
<totfact> 0.23207963E+04</totfact>
</mgrwt>
</event>
<event>
 6    1  0.1274196E-001  0.3000000E+03  0.7818608E-02  0.1093470E+00
         21   -1    0    0  501  502  0.00000000000E+00  0.00000000000E+00  0.10640212214E+01  0.10640212214E+01  0.00000000000E+00 0. -1.
         13   -1    0    0    0    0 -0.00000000000E+00 -0.00000000000E+00 -0.10000000000E+04  0.10000000000E+04  0.00000000000E+00 0.  1.
    9000005    2    1    2  501    0 -0.19536176797E+02  0.23019426213E+02 -0.31458320733E+03  0.31604557478E+03  0.32641709055E+01 0.  0.
         13    1    3    3    0    0 -0.13697656324E+02  0.13748715923E+02 -0.19848932624E+03  0.19943586841E+03  0.00000000000E+00 0.  1.
          1    1    3    3  501    0 -0.58385204733E+01  0.92707102899E+01 -0.11609388109E+03  0.11660970636E+03  0.00000000000E+00 0.  1.
         -3    1    1    2    0  502  0.19536176797E+02 -0.23019426213E+02 -0.68435277144E+03  0.68501844645E+03  0.00000000000E+00 0. -1.
<mgrwt>
<rscale>  1 0.30000000E+03</rscale>
<asrwt>0</asrwt>
<pdfrwt beam="1">  1       21 0.38691762E-02 0.30000000E+03</pdfrwt>
<pdfrwt beam="2">0</pdfrwt>
<totfact> 0.44467103E+04</totfact>
</mgrwt>
</event>
<event>
 6    1  0.1274196E-001  0.3000000E+03  0.7818608E-02  0.1093470E+00
         21   -1    0    0  501  502  0.00000000000E+00  0.00000000000E+00  0.19596919138E+01  0.19596919138E+01  0.00000000000E+00 0. -1.
         13   -1    0    0    0    0 -0.00000000000E+00 -0.00000000000E+00 -0.10000000000E+04  0.10000000000E+04  0.00000000000E+00 0.  1.
    9000005    2    1    2  501    0  0.33660355003E+02  0.16006857456E+02 -0.76869090373E+03  0.76960137322E+03  0.33658892869E+01 0.  0.
         13    1    3    3    0    0  0.14932313101E+01  0.88967728267E+00 -0.24055428522E+02  0.24118144763E+02  0.00000000000E+00 0.  1.
          1    1    3    3  501    0  0.32167123693E+02  0.15117180173E+02 -0.74463547520E+03  0.74548322846E+03  0.00000000000E+00 0.  1.
         -1    1    1    2    0  502 -0.33660355003E+02 -0.16006857456E+02 -0.22934940436E+03  0.23235831869E+03  0.00000000000E+00 0. -1.
<mgrwt>
<rscale>  1 0.30000000E+03</rscale>
<asrwt>0</asrwt>
<pdfrwt beam="1">  1       21 0.71261674E-02 0.30000000E+03</pdfrwt>
<pdfrwt beam="2">0</pdfrwt>
<totfact> 0.15641026E+04</totfact>
</mgrwt>
</event>
<event>
 6    1  0.1274196E-001  0.3000000E+03  0.7818608E-02  0.1093470E+00
         21   -1    0    0  501  502  0.00000000000E+00  0.00000000000E+00  0.23088437693E+01  0.23088437693E+01  0.00000000000E+00 0. -1.
         13   -1    0    0    0    0 -0.00000000000E+00 -0.00000000000E+00 -0.10000000000E+04  0.10000000000E+04  0.00000000000E+00 0.  1.
    9000005    2    1    2  501    0 -0.32300279688E+02 -0.14265187546E+02 -0.83837892555E+03  0.83913044296E+03  0.37247638079E+01 0.  0.
         13    1    3    3    0    0 -0.11344459136E+02 -0.30995721193E+01 -0.28052176286E+03  0.28076816689E+03  0.00000000000E+00 0.  1.
          3    1    3    3  501    0 -0.20955820552E+02 -0.11165615427E+02 -0.55785716269E+03  0.55836227608E+03  0.00000000000E+00 0.  1.
         -3    1    1    2    0  502  0.32300279688E+02  0.14265187546E+02 -0.15931223068E+03  0.16317840080E+03  0.00000000000E+00 0. -1.
<mgrwt>
<rscale>  1 0.30000000E+03</rscale>
<asrwt>0</asrwt>
<pdfrwt beam="1">  1       21 0.83958132E-02 0.30000000E+03</pdfrwt>
<pdfrwt beam="2">0</pdfrwt>
<totfact> 0.11733574E+04</totfact>
</mgrwt>
</event>
<event>
 6    1  0.1274196E-001  0.3000000E+03  0.7818608E-02  0.1093470E+00
         21   -1    0    0  501  502  0.00000000000E+00  0.00000000000E+00  0.22777521943E+01  0.22777521943E+01  0.00000000000E+00 0. -1.
         13   -1    0    0    0    0 -0.00000000000E+00 -0.00000000000E+00 -0.10000000000E+04  0.10000000000E+04  0.00000000000E+00 0.  1.
    9000005    2    1    2  501    0 -0.34479854978E+02  0.14511759434E+02 -0.80960740217E+03  0.81047929884E+03  0.36189274223E+01 0.  0.
         13    1    3    3    0    0 -0.12975358496E+02  0.42347468510E+01 -0.26682767416E+03  0.26717653472E+03  0.00000000000E+00 0.  1.
          1    1    3    3  501    0 -0.21504496483E+02  0.10277012583E+02 -0.54277972801E+03  0.54330276412E+03  0.00000000000E+00 0.  1.
         -1    1    1    2    0  502  0.34479854978E+02 -0.14511759434E+02 -0.18811484564E+03  0.19179845336E+03  0.00000000000E+00 0. -1.
<mgrwt>
<rscale>  1 0.30000000E+03</rscale>
<asrwt>0</asrwt>
<pdfrwt beam="1">  1       21 0.82827527E-02 0.30000000E+03</pdfrwt>
<pdfrwt beam="2">0</pdfrwt>
<totfact> 0.12017088E+04</totfact>
</mgrwt>
</event>
<event>
 6    1  0.1274196E-001  0.3000000E+03  0.7818608E-02  0.1093470E+00
         21   -1    0    0  501  502  0.00000000000E+00  0.00000000000E+00  0.17208765914E+01  0.17208765914E+01  0.00000000000E+00 0. -1.
         13   -1    0    0    0    0 -0.00000000000E+00 -0.00000000000E+00 -0.10000000000E+04  0.10000000000E+04  0.00000000000E+00 0.  1.
    9000005    2    1    2  501    0  0.38156552756E+02 -0.14012002016E+02 -0.59532511013E+03  0.59672186975E+03  0.35699268168E+01 0.  0.
         13    1    3    3    0    0  0.21416711390E+02 -0.64724883107E+01 -0.34448489562E+03  0.34521067762E+03  0.00000000000E+00 0.  1.
          3    1    3    3  501    0  0.16739841366E+02 -0.75395137054E+01 -0.25084021451E+03  0.25151119214E+03  0.00000000000E+00 0.  1.
         -3    1    1    2    0  502 -0.38156552756E+02  0.14012002016E+02 -0.40295401328E+03  0.40499900684E+03  0.00000000000E+00 0. -1.
<mgrwt>
<rscale>  1 0.30000000E+03</rscale>
<asrwt>0</asrwt>
<pdfrwt beam="1">  1       21 0.62577463E-02 0.30000000E+03</pdfrwt>
<pdfrwt beam="2">0</pdfrwt>
<totfact> 0.19595985E+04</totfact>
</mgrwt>
</event>
<event>
 6    1  0.1274196E-001  0.3000000E+03  0.7818608E-02  0.1093470E+00
         21   -1    0    0  501  502  0.00000000000E+00  0.00000000000E+00  0.14947805859E+01  0.14947805859E+01  0.00000000000E+00 0. -1.
         13   -1    0    0    0    0 -0.00000000000E+00 -0.00000000000E+00 -0.10000000000E+04  0.10000000000E+04  0.00000000000E+00 0.  1.
    9000005    2    1    2  501    0  0.32704916547E+02  0.52405231683E+01 -0.75491070390E+03  0.75565873229E+03  0.57336014530E+01 0.  0.
         13    1    3    3    0    0  0.11445634870E+02  0.42347496403E+01 -0.30757778036E+03  0.30781979571E+03  0.00000000000E+00 0.  1.
          3    1    3    3  501    0  0.21259281677E+02  0.10057735281E+01 -0.44733292354E+03  0.44783893658E+03  0.00000000000E+00 0.  1.
         -1    1    1    2    0  502 -0.32704916547E+02 -0.52405231683E+01 -0.24359451552E+03  0.24583604829E+03  0.00000000000E+00 0. -1.
<mgrwt>
<rscale>  1 0.30000000E+03</rscale>
<asrwt>0</asrwt>
<pdfrwt beam="1">  1       21 0.54355772E-02 0.30000000E+03</pdfrwt>
<pdfrwt beam="2">0</pdfrwt>
<totfact> 0.24973411E+04</totfact>
</mgrwt>
</event>
<event>
 6    1  0.1274196E-001  0.3000000E+03  0.7818608E-02  0.1093470E+00
         21   -1    0    0  501  502  0.00000000000E+00  0.00000000000E+00  0.20413934921E+01  0.20413934921E+01  0.00000000000E+00 0. -1.
         13   -1    0    0    0    0 -0.00000000000E+00 -0.00000000000E+00 -0.10000000000E+04  0.10000000000E+04  0.00000000000E+00 0.  1.
    9000005    2    1    2  501    0 -0.38324189259E+02 -0.11297817208E+02 -0.26700236067E+03  0.26999397871E+03  0.31786446209E+01 0.  0.
         13    1    3    3    0    0 -0.32380283630E+02 -0.92527478557E+01 -0.23204477744E+03  0.23447574469E+03  0.00000000000E+00 0.  1.
          1    1    3    3  501    0 -0.59439056291E+01 -0.20450693525E+01 -0.34957583234E+02  0.35518234027E+02  0.00000000000E+00 0.  1.
         -1    1    1    2    0  502  0.38324189259E+02  0.11297817208E+02 -0.73095624584E+03  0.73204741478E+03  0.00000000000E+00 0. -1.
<mgrwt>
<rscale>  1 0.30000000E+03</rscale>
<asrwt>0</asrwt>
<pdfrwt beam="1">  1       21 0.74232647E-02 0.30000000E+03</pdfrwt>
<pdfrwt beam="2">0</pdfrwt>
<totfact> 0.14564292E+04</totfact>
</mgrwt>
</event>
<event>
 6    1  0.1274196E-001  0.3000000E+03  0.7818608E-02  0.1093470E+00
         21   -1    0    0  501  502  0.00000000000E+00  0.00000000000E+00  0.14911052376E+01  0.14911052376E+01  0.00000000000E+00 0. -1.
         13   -1    0    0    0    0 -0.00000000000E+00 -0.00000000000E+00 -0.10000000000E+04  0.10000000000E+04  0.00000000000E+00 0.  1.
    9000005    2    1    2  501    0  0.25807908433E+02  0.21363274169E+02 -0.74725334226E+03  0.74801173668E+03  0.34004516795E+01 0.  0.
         13    1    3    3    0    0  0.24118644518E+02  0.19049023782E+02 -0.69621560513E+03  0.69689363833E+03  0.00000000000E+00 0.  1.
          1    1    3    3  501    0  0.16892639149E+01  0.23142503873E+01 -0.51037737128E+02  0.51118098347E+02  0.00000000000E+00 0.  1.
         -3    1    1    2    0  502 -0.25807908433E+02 -0.21363274169E+02 -0.25125555250E+03  0.25347936856E+03  0.00000000000E+00 0. -1.
<mgrwt>
<rscale>  1 0.30000000E+03</rscale>
<asrwt>0</asrwt>
<pdfrwt beam="1">  1       21 0.54222123E-02 0.30000000E+03</pdfrwt>
<pdfrwt beam="2">0</pdfrwt>
<totfact> 0.25078953E+04</totfact>
</mgrwt>
</event>
<event>
 6    1  0.1274196E-001  0.3000000E+03  0.7818608E-02  0.1093470E+00
         21   -1    0    0  501  502  0.00000000000E+00  0.00000000000E+00  0.57483356339E+01  0.57483356339E+01  0.00000000000E+00 0. -1.
         13   -1    0    0    0    0 -0.00000000000E+00 -0.00000000000E+00 -0.10000000000E+04  0.10000000000E+04  0.00000000000E+00 0.  1.
    9000005    2    1    2  501    0 -0.35429282954E+02  0.63913084540E+02 -0.63025686244E+03  0.63449056495E+03  0.38010377942E+01 0.  0.
         13    1    3    3    0    0 -0.20894577619E+02  0.40946793851E+02 -0.38786581286E+03  0.39058048094E+03  0.00000000000E+00 0.  1.
          3    1    3    3  501    0 -0.14534705335E+02  0.22966290688E+02 -0.24239104958E+03  0.24391008401E+03  0.00000000000E+00 0.  1.
         -3    1    1    2    0  502  0.35429282954E+02 -0.63913084540E+02 -0.36399480192E+03  0.37125777068E+03  0.00000000000E+00 0. -1.
<mgrwt>
<rscale>  1 0.30000000E+03</rscale>
<asrwt>0</asrwt>
<pdfrwt beam="1">  1       21 0.20903083E-01 0.30000000E+03</pdfrwt>
<pdfrwt beam="2">0</pdfrwt>
<totfact> 0.22048833E+03</totfact>
</mgrwt>
</event>
<event>
 6    1  0.1274196E-001  0.3000000E+03  0.7818608E-02  0.1093470E+00
         21   -1    0    0  501  502  0.00000000000E+00  0.00000000000E+00  0.13244935164E+01  0.13244935164E+01  0.00000000000E+00 0. -1.
         13   -1    0    0    0    0 -0.00000000000E+00 -0.00000000000E+00 -0.10000000000E+04  0.10000000000E+04  0.00000000000E+00 0.  1.
    9000005    2    1    2  501    0  0.34929765321E+02 -0.27214172425E+01 -0.63192260364E+03  0.63290192857E+03  0.33435878596E+01 0.  0.
         13    1    3    3    0    0  0.18440605770E+02 -0.24270788023E+01 -0.35902213945E+03  0.35950360675E+03  0.00000000000E+00 0.  1.
          3    1    3    3  501    0  0.16489159551E+02 -0.29433844018E+00 -0.27290046419E+03  0.27339832182E+03  0.00000000000E+00 0.  1.
         -1    1    1    2    0  502 -0.34929765321E+02  0.27214172425E+01 -0.36675290284E+03  0.36842256495E+03  0.00000000000E+00 0. -1.
<mgrwt>
<rscale>  1 0.30000000E+03</rscale>
<asrwt>0</asrwt>
<pdfrwt beam="1">  1       21 0.48163502E-02 0.30000000E+03</pdfrwt>
<pdfrwt beam="2">0</pdfrwt>
<totfact> 0.30700372E+04</totfact>
</mgrwt>
</event>
<event>
 6    1  0.1274196E-001  0.3000000E+03  0.7818608E-02  0.1093470E+00
         21   -1    0    0  501  502  0.00000000000E+00  0.00000000000E+00  0.56930205209E+01  0.56930205209E+01  0.00000000000E+00 0. -1.
         13   -1    0    0    0    0 -0.00000000000E+00 -0.00000000000E+00 -0.10000000000E+04  0.10000000000E+04  0.00000000000E+00 0.  1.
    9000005    2    1    2  501    0  0.22746752670E+02 -0.40976687392E+02 -0.89117431970E+03  0.89241085432E+03  0.29935169366E+01 0.  0.
         13    1    3    3    0    0  0.20048914760E+02 -0.34578990575E+02 -0.74425155205E+03  0.74532411627E+03  0.00000000000E+00 0.  1.
          1    1    3    3  501    0  0.26978379104E+01 -0.63976968172E+01 -0.14692276766E+03  0.14708673805E+03  0.00000000000E+00 0.  1.
         -1    1    1    2    0  502 -0.22746752670E+02  0.40976687392E+02 -0.10313265978E+03  0.11328216620E+03  0.00000000000E+00 0. -1.
<mgrwt>
<rscale>  1 0.30000000E+03</rscale>
<asrwt>0</asrwt>
<pdfrwt beam="1">  1       21 0.20701936E-01 0.30000000E+03</pdfrwt>
<pdfrwt beam="2">0</pdfrwt>
<totfact> 0.22460982E+03</totfact>
</mgrwt>
</event>
<event>
 6    1  0.1274196E-001  0.3000000E+03  0.7818608E-02  0.1093470E+00
         21   -1    0    0  501  502  0.00000000000E+00  0.00000000000E+00  0.20273517163E+01  0.20273517163E+01  0.00000000000E+00 0. -1.
         13   -1    0    0    0    0 -0.00000000000E+00 -0.00000000000E+00 -0.10000000000E+04  0.10000000000E+04  0.00000000000E+00 0.  1.
    9000005    2    1    2  501    0  0.32713686324E+02  0.17700692323E+02 -0.78082220145E+03  0.78171435541E+03  0.32439782114E+01 0.  0.
         13    1    3    3    0    0  0.23913918340E+02  0.11263896609E+02 -0.55222114759E+03  0.55285345861E+03  0.00000000000E+00 0.  1.
          1    1    3    3  501    0  0.87997679836E+01  0.64367957138E+01 -0.22860105386E+03  0.22886089679E+03  0.00000000000E+00 0.  1.
         -3    1    1    2    0  502 -0.32713686324E+02 -0.17700692323E+02 -0.21715044684E+03  0.22031299631E+03  0.00000000000E+00 0. -1.
<mgrwt>
<rscale>  1 0.30000000E+03</rscale>
<asrwt>0</asrwt>
<pdfrwt beam="1">  1       21 0.73722036E-02 0.30000000E+03</pdfrwt>
<pdfrwt beam="2">0</pdfrwt>
<totfact> 0.14741184E+04</totfact>
</mgrwt>
</event>
<event>
 6    1  0.1274196E-001  0.3000000E+03  0.7818608E-02  0.1093470E+00
         21   -1    0    0  501  502  0.00000000000E+00  0.00000000000E+00  0.16748329706E+01  0.16748329706E+01  0.00000000000E+00 0. -1.
         13   -1    0    0    0    0 -0.00000000000E+00 -0.00000000000E+00 -0.10000000000E+04  0.10000000000E+04  0.00000000000E+00 0.  1.
    9000005    2    1    2  501    0 -0.26952075199E+02  0.28675050395E+02 -0.63472766624E+03  0.63595387999E+03  0.30747852562E+01 0.  0.
         13    1    3    3    0    0 -0.15363608150E+02  0.15243950801E+02 -0.37011671820E+03  0.37074897651E+03  0.00000000000E+00 0.  1.
          1    1    3    3  501    0 -0.11588467049E+02  0.13431099594E+02 -0.26461094804E+03  0.26520490348E+03  0.00000000000E+00 0.  1.
         -3    1    1    2    0  502  0.26952075199E+02 -0.28675050395E+02 -0.36359750079E+03  0.36572095298E+03  0.00000000000E+00 0. -1.
<mgrwt>
<rscale>  1 0.30000000E+03</rscale>
<asrwt>0</asrwt>
<pdfrwt beam="1">  1       21 0.60903146E-02 0.30000000E+03</pdfrwt>
<pdfrwt beam="2">0</pdfrwt>
<totfact> 0.20535495E+04</totfact>
</mgrwt>
</event>
<event>
 6    1  0.1274196E-001  0.3000000E+03  0.7818608E-02  0.1093470E+00
         21   -1    0    0  501  502  0.00000000000E+00  0.00000000000E+00  0.18062336724E+01  0.18062336724E+01  0.00000000000E+00 0. -1.
         13   -1    0    0    0    0 -0.00000000000E+00 -0.00000000000E+00 -0.10000000000E+04  0.10000000000E+04  0.00000000000E+00 0.  1.
    9000005    2    1    2  501    0 -0.34912161214E+02 -0.22234748081E+02 -0.38877642829E+03  0.39098487278E+03  0.29692634066E+01 0.  0.
         13    1    3    3    0    0 -0.34534335694E+01 -0.27039034560E+01 -0.49428824942E+02  0.49623039331E+02  0.00000000000E+00 0.  1.
          1    1    3    3  501    0 -0.31458727644E+02 -0.19530844625E+02 -0.33934760335E+03  0.34136183345E+03  0.00000000000E+00 0.  1.
         -1    1    1    2    0  502  0.34912161214E+02  0.22234748081E+02 -0.60941733804E+03  0.61082136089E+03  0.00000000000E+00 0. -1.
<mgrwt>
<rscale>  1 0.30000000E+03</rscale>
<asrwt>0</asrwt>
<pdfrwt beam="1">  1       21 0.65681363E-02 0.30000000E+03</pdfrwt>
<pdfrwt beam="2">0</pdfrwt>
<totfact> 0.18021609E+04</totfact>
</mgrwt>
</event>
<event>
 6    1  0.1274196E-001  0.3000000E+03  0.7818608E-02  0.1093470E+00
         21   -1    0    0  501  502  0.00000000000E+00  0.00000000000E+00  0.64157156302E+01  0.64157156302E+01  0.00000000000E+00 0. -1.
         13   -1    0    0    0    0 -0.00000000000E+00 -0.00000000000E+00 -0.10000000000E+04  0.10000000000E+04  0.00000000000E+00 0.  1.
    9000005    2    1    2  501    0 -0.57185093604E+02 -0.68138325610E+00 -0.84893625878E+03  0.85087263311E+03  0.45680505976E+01 0.  0.
         13    1    3    3    0    0 -0.42856467499E+02 -0.22446734900E+01 -0.64938295332E+03  0.65079945869E+03  0.00000000000E+00 0.  1.
          3    1    3    3  501    0 -0.14328626105E+02  0.15632902339E+01 -0.19955330546E+03  0.20007317442E+03  0.00000000000E+00 0.  1.
         -1    1    1    2    0  502  0.57185093604E+02  0.68138325610E+00 -0.14464802559E+03  0.15554308252E+03  0.00000000000E+00 0. -1.
<mgrwt>
<rscale>  1 0.30000000E+03</rscale>
<asrwt>0</asrwt>
<pdfrwt beam="1">  1       21 0.23329924E-01 0.30000000E+03</pdfrwt>
<pdfrwt beam="2">0</pdfrwt>
<totfact> 0.17843762E+03</totfact>
</mgrwt>
</event>
<event>
 6    1  0.1274196E-001  0.3000000E+03  0.7818608E-02  0.1093470E+00
         21   -1    0    0  501  502  0.00000000000E+00  0.00000000000E+00  0.11878946479E+01  0.11878946479E+01  0.00000000000E+00 0. -1.
         13   -1    0    0    0    0 -0.00000000000E+00 -0.00000000000E+00 -0.10000000000E+04  0.10000000000E+04  0.00000000000E+00 0.  1.
    9000005    2    1    2  501    0  0.13502640268E+01 -0.33907712540E+02 -0.43694650881E+03  0.43829846966E+03  0.56338942714E+01 0.  0.
         13    1    3    3    0    0 -0.17746651609E+01 -0.19968333309E+02 -0.24154905483E+03  0.24237951576E+03  0.00000000000E+00 0.  1.
          1    1    3    3  501    0  0.31249291877E+01 -0.13939379231E+02 -0.19539745398E+03  0.19591895390E+03  0.00000000000E+00 0.  1.
         -3    1    1    2    0  502 -0.13502640268E+01  0.33907712540E+02 -0.56186559654E+03  0.56288942498E+03  0.00000000000E+00 0. -1.
<mgrwt>
<rscale>  1 0.30000000E+03</rscale>
<asrwt>0</asrwt>
<pdfrwt beam="1">  1       21 0.43196260E-02 0.30000000E+03</pdfrwt>
<pdfrwt beam="2">0</pdfrwt>
<totfact> 0.36931178E+04</totfact>
</mgrwt>
</event>
<event>
 6    1  0.1274196E-001  0.3000000E+03  0.7818608E-02  0.1093470E+00
         21   -1    0    0  501  502  0.00000000000E+00  0.00000000000E+00  0.25234476621E+01  0.25234476621E+01  0.00000000000E+00 0. -1.
         13   -1    0    0    0    0 -0.00000000000E+00 -0.00000000000E+00 -0.10000000000E+04  0.10000000000E+04  0.00000000000E+00 0.  1.
    9000005    2    1    2  501    0  0.44230642260E+02 -0.16293854702E+02 -0.67096672236E+03  0.67262875463E+03  0.33555372729E+01 0.  0.
         13    1    3    3    0    0  0.61202338429E+01 -0.21855496327E+01 -0.11021400112E+03  0.11040543434E+03  0.00000000000E+00 0.  1.
          1    1    3    3  501    0  0.38110408417E+02 -0.14108305070E+02 -0.56075272124E+03  0.56222332029E+03  0.00000000000E+00 0.  1.
         -1    1    1    2    0  502 -0.44230642260E+02  0.16293854702E+02 -0.32650982998E+03  0.32989469303E+03  0.00000000000E+00 0. -1.
<mgrwt>
<rscale>  1 0.30000000E+03</rscale>
<asrwt>0</asrwt>
<pdfrwt beam="1">  1       21 0.91761927E-02 0.30000000E+03</pdfrwt>
<pdfrwt beam="2">0</pdfrwt>
<totfact> 0.10027357E+04</totfact>
</mgrwt>
</event>
<event>
 6    1  0.1274196E-001  0.3000000E+03  0.7818608E-02  0.1093470E+00
         21   -1    0    0  501  502  0.00000000000E+00  0.00000000000E+00  0.15702755969E+01  0.15702755969E+01  0.00000000000E+00 0. -1.
         13   -1    0    0    0    0 -0.00000000000E+00 -0.00000000000E+00 -0.10000000000E+04  0.10000000000E+04  0.00000000000E+00 0.  1.
    9000005    2    1    2  501    0  0.23493175794E+02 -0.27347008037E+02 -0.70603532289E+03  0.70696159583E+03  0.30054373354E+01 0.  0.
         13    1    3    3    0    0  0.82410212259E+01 -0.74778013643E+01 -0.21429684873E+03  0.21458558041E+03  0.00000000000E+00 0.  1.
          3    1    3    3  501    0  0.15252154568E+02 -0.19869206673E+02 -0.49173847416E+03  0.49237601542E+03  0.00000000000E+00 0.  1.
         -3    1    1    2    0  502 -0.23493175794E+02  0.27347008037E+02 -0.29239440152E+03  0.29460867977E+03  0.00000000000E+00 0. -1.
<mgrwt>
<rscale>  1 0.30000000E+03</rscale>
<asrwt>0</asrwt>
<pdfrwt beam="1">  1       21 0.57101051E-02 0.30000000E+03</pdfrwt>
<pdfrwt beam="2">0</pdfrwt>
<totfact> 0.22948254E+04</totfact>
</mgrwt>
</event>
<event>
 6    1  0.1274196E-001  0.3000000E+03  0.7818608E-02  0.1093470E+00
         21   -1    0    0  501  502  0.00000000000E+00  0.00000000000E+00  0.24672993918E+01  0.24672993918E+01  0.00000000000E+00 0. -1.
         13   -1    0    0    0    0 -0.00000000000E+00 -0.00000000000E+00 -0.10000000000E+04  0.10000000000E+04  0.00000000000E+00 0.  1.
    9000005    2    1    2  501    0  0.41745412112E+02  0.23092822896E+02 -0.63668707163E+03  0.63848168724E+03  0.35326841004E+01 0.  0.
         13    1    3    3    0    0  0.10646832776E+02  0.74927841013E+01 -0.16406702482E+03  0.16458276184E+03  0.00000000000E+00 0.  1.
          1    1    3    3  501    0  0.31098579335E+02  0.15600038795E+02 -0.47262004681E+03  0.47389892540E+03  0.00000000000E+00 0.  1.
         -3    1    1    2    0  502 -0.41745412112E+02 -0.23092822896E+02 -0.36084562898E+03  0.36398561216E+03  0.00000000000E+00 0. -1.
<mgrwt>
<rscale>  1 0.30000000E+03</rscale>
<asrwt>0</asrwt>
<pdfrwt beam="1">  1       21 0.89720167E-02 0.30000000E+03</pdfrwt>
<pdfrwt beam="2">0</pdfrwt>
<totfact> 0.10435497E+04</totfact>
</mgrwt>
</event>
<event>
 6    1  0.1274196E-001  0.3000000E+03  0.7818608E-02  0.1093470E+00
         21   -1    0    0  501  502  0.00000000000E+00  0.00000000000E+00  0.85067411374E+01  0.85067411374E+01  0.00000000000E+00 0. -1.
         13   -1    0    0    0    0 -0.00000000000E+00 -0.00000000000E+00 -0.10000000000E+04  0.10000000000E+04  0.00000000000E+00 0.  1.
    9000005    2    1    2  501    0  0.22211133748E+02 -0.48086808921E+02 -0.90852646882E+03  0.91007319043E+03  0.26817425444E+01 0.  0.
         13    1    3    3    0    0  0.12437356663E+02 -0.28689414872E+02 -0.55472148333E+03  0.55560210082E+03  0.00000000000E+00 0.  1.
          3    1    3    3  501    0  0.97737770855E+01 -0.19397394049E+02 -0.35380498548E+03  0.35447108961E+03  0.00000000000E+00 0.  1.
         -3    1    1    2    0  502 -0.22211133748E+02  0.48086808921E+02 -0.82966790047E+02  0.98433550710E+02  0.00000000000E+00 0. -1.
<mgrwt>
<rscale>  1 0.30000000E+03</rscale>
<asrwt>0</asrwt>
<pdfrwt beam="1">  1       21 0.30933669E-01 0.30000000E+03</pdfrwt>
<pdfrwt beam="2">0</pdfrwt>
<totfact> 0.10224772E+03</totfact>
</mgrwt>
</event>
<event>
 6    1  0.1274196E-001  0.3000000E+03  0.7818608E-02  0.1093470E+00
         21   -1    0    0  501  502  0.00000000000E+00  0.00000000000E+00  0.17700118863E+02  0.17700118863E+02  0.00000000000E+00 0. -1.
         13   -1    0    0    0    0 -0.00000000000E+00 -0.00000000000E+00 -0.10000000000E+04  0.10000000000E+04  0.00000000000E+00 0.  1.
    9000005    2    1    2  501    0 -0.70550860265E+02  0.17412486081E+02 -0.91736900632E+03  0.92024942846E+03  0.35352892088E+01 0.  0.
         13    1    3    3    0    0 -0.38112151711E+02  0.84640516283E+01 -0.47358024373E+03  0.47518672491E+03  0.00000000000E+00 0.  1.
          1    1    3    3  501    0 -0.32438708554E+02  0.89484344528E+01 -0.44378876258E+03  0.44506270355E+03  0.00000000000E+00 0.  1.
         -1    1    1    2    0  502  0.70550860265E+02 -0.17412486081E+02 -0.64930874820E+02  0.97450690406E+02  0.00000000000E+00 0. -1.
<mgrwt>
<rscale>  1 0.30000000E+03</rscale>
<asrwt>0</asrwt>
<pdfrwt beam="1">  1       21 0.64364204E-01 0.30000000E+03</pdfrwt>
<pdfrwt beam="2">0</pdfrwt>
<totfact> 0.21418294E+02</totfact>
</mgrwt>
</event>
<event>
 6    1  0.1274196E-001  0.3000000E+03  0.7818608E-02  0.1093470E+00
         21   -1    0    0  501  502  0.00000000000E+00  0.00000000000E+00  0.36531666497E+01  0.36531666497E+01  0.00000000000E+00 0. -1.
         13   -1    0    0    0    0 -0.00000000000E+00 -0.00000000000E+00 -0.10000000000E+04  0.10000000000E+04  0.00000000000E+00 0.  1.
    9000005    2    1    2  501    0  0.14151032892E+02  0.29477586995E+02 -0.92005891262E+03  0.92065300571E+03  0.49370396322E+01 0.  0.
         13    1    3    3    0    0  0.10782835191E+02  0.26296026391E+02 -0.80033840759E+03  0.80084287922E+03  0.00000000000E+00 0.  1.
          1    1    3    3  501    0  0.33681977007E+01  0.31815606039E+01 -0.11972050504E+03  0.11981012649E+03  0.00000000000E+00 0.  1.
         -3    1    1    2    0  502 -0.14151032892E+02 -0.29477586995E+02 -0.76287920725E+02  0.83000160937E+02  0.00000000000E+00 0. -1.
<mgrwt>
<rscale>  1 0.30000000E+03</rscale>
<asrwt>0</asrwt>
<pdfrwt beam="1">  1       21 0.13284270E-01 0.30000000E+03</pdfrwt>
<pdfrwt beam="2">0</pdfrwt>
<totfact> 0.51488941E+03</totfact>
</mgrwt>
</event>
<event>
 6    1  0.1274196E-001  0.3000000E+03  0.7818608E-02  0.1093470E+00
         21   -1    0    0  501  502  0.00000000000E+00  0.00000000000E+00  0.64276421699E+01  0.64276421699E+01  0.00000000000E+00 0. -1.
         13   -1    0    0    0    0 -0.00000000000E+00 -0.00000000000E+00 -0.10000000000E+04  0.10000000000E+04  0.00000000000E+00 0.  1.
    9000005    2    1    2  501    0 -0.27991938190E+02  0.11428584432E+02 -0.96282392930E+03  0.96330424941E+03  0.33161666618E+01 0.  0.
         13    1    3    3    0    0 -0.21510247802E+02  0.73371880210E+01 -0.73632287510E+03  0.73667353793E+03  0.00000000000E+00 0.  1.
          3    1    3    3  501    0 -0.64816903881E+01  0.40913964114E+01 -0.22650105419E+03  0.22663071148E+03  0.00000000000E+00 0.  1.
         -3    1    1    2    0  502  0.27991938190E+02 -0.11428584432E+02 -0.30748428534E+02  0.43123392759E+02  0.00000000000E+00 0. -1.
<mgrwt>
<rscale>  1 0.30000000E+03</rscale>
<asrwt>0</asrwt>
<pdfrwt beam="1">  1       21 0.23373294E-01 0.30000000E+03</pdfrwt>
<pdfrwt beam="2">0</pdfrwt>
<totfact> 0.17779635E+03</totfact>
</mgrwt>
</event>
<event>
 6    1  0.1274196E-001  0.3000000E+03  0.7818608E-02  0.1093470E+00
         21   -1    0    0  501  502  0.00000000000E+00  0.00000000000E+00  0.50141283137E+01  0.50141283137E+01  0.00000000000E+00 0. -1.
         13   -1    0    0    0    0 -0.00000000000E+00 -0.00000000000E+00 -0.10000000000E+04  0.10000000000E+04  0.00000000000E+00 0.  1.
    9000005    2    1    2  501    0  0.62666329987E+02 -0.20942901564E+01 -0.73072857765E+03  0.73341999654E+03  0.30302075135E+01 0.  0.
         13    1    3    3    0    0  0.46739253462E+02 -0.69463153276E+00 -0.55589264563E+03  0.55785452745E+03  0.00000000000E+00 0.  1.
          1    1    3    3  501    0  0.15927076524E+02 -0.13996586236E+01 -0.17483593202E+03  0.17556546909E+03  0.00000000000E+00 0.  1.
         -3    1    1    2    0  502 -0.62666329987E+02  0.20942901564E+01 -0.26425729403E+03  0.27159413178E+03  0.00000000000E+00 0. -1.
<mgrwt>
<rscale>  1 0.30000000E+03</rscale>
<asrwt>0</asrwt>
<pdfrwt beam="1">  1       21 0.18233232E-01 0.30000000E+03</pdfrwt>
<pdfrwt beam="2">0</pdfrwt>
<totfact> 0.28593242E+03</totfact>
</mgrwt>
</event>
<event>
 6    1  0.1274196E-001  0.3000000E+03  0.7818608E-02  0.1093470E+00
         21   -1    0    0  501  502  0.00000000000E+00  0.00000000000E+00  0.28273803996E+01  0.28273803996E+01  0.00000000000E+00 0. -1.
         13   -1    0    0    0    0 -0.00000000000E+00 -0.00000000000E+00 -0.10000000000E+04  0.10000000000E+04  0.00000000000E+00 0.  1.
    9000005    2    1    2  501    0 -0.13849706675E+02 -0.50339682393E+02 -0.59158394668E+03  0.59389209261E+03  0.32177160258E+01 0.  0.
         13    1    3    3    0    0 -0.53645013950E+01 -0.25563422506E+02 -0.29541280197E+03  0.29656532167E+03  0.00000000000E+00 0.  1.
          3    1    3    3  501    0 -0.84852052797E+01 -0.24776259888E+02 -0.29617114471E+03  0.29732677094E+03  0.00000000000E+00 0.  1.
         -3    1    1    2    0  502  0.13849706675E+02  0.50339682393E+02 -0.40558867292E+03  0.40893528779E+03  0.00000000000E+00 0. -1.
<mgrwt>
<rscale>  1 0.30000000E+03</rscale>
<asrwt>0</asrwt>
<pdfrwt beam="1">  1       21 0.10281405E-01 0.30000000E+03</pdfrwt>
<pdfrwt beam="2">0</pdfrwt>
<totfact> 0.81866394E+03</totfact>
</mgrwt>
</event>
<event>
 6    1  0.1274196E-001  0.3000000E+03  0.7818608E-02  0.1093470E+00
         21   -1    0    0  501  502  0.00000000000E+00  0.00000000000E+00  0.17690930080E+01  0.17690930080E+01  0.00000000000E+00 0. -1.
         13   -1    0    0    0    0 -0.00000000000E+00 -0.00000000000E+00 -0.10000000000E+04  0.10000000000E+04  0.00000000000E+00 0.  1.
    9000005    2    1    2  501    0  0.30535384096E+02 -0.12942635381E+02 -0.80671872134E+03  0.80740644550E+03  0.31861237940E+01 0.  0.
         13    1    3    3    0    0  0.16060949982E+02 -0.51808494227E+01 -0.39567968210E+03  0.39603939973E+03  0.00000000000E+00 0.  1.
          3    1    3    3  501    0  0.14474434114E+02 -0.77617859578E+01 -0.41103903924E+03  0.41136704576E+03  0.00000000000E+00 0.  1.
         -1    1    1    2    0  502 -0.30535384096E+02  0.12942635381E+02 -0.19151218566E+03  0.19436264751E+03  0.00000000000E+00 0. -1.
<mgrwt>
<rscale>  1 0.30000000E+03</rscale>
<asrwt>0</asrwt>
<pdfrwt beam="1">  1       21 0.64330790E-02 0.30000000E+03</pdfrwt>
<pdfrwt beam="2">0</pdfrwt>
<totfact> 0.18681704E+04</totfact>
</mgrwt>
</event>
<event>
 6    1  0.1274196E-001  0.3000000E+03  0.7818608E-02  0.1093470E+00
         21   -1    0    0  501  502  0.00000000000E+00  0.00000000000E+00  0.20254447631E+01  0.20254447631E+01  0.00000000000E+00 0. -1.
         13   -1    0    0    0    0 -0.00000000000E+00 -0.00000000000E+00 -0.10000000000E+04  0.10000000000E+04  0.00000000000E+00 0.  1.
    9000005    2    1    2  501    0 -0.30051868353E+02  0.12602408910E+02 -0.84139874495E+03  0.84209446005E+03  0.10454480127E+02 0.  0.
         13    1    3    3    0    0 -0.28484644588E+02  0.86191661224E+01 -0.70323957123E+03  0.70386899316E+03  0.00000000000E+00 0.  1.
          1    1    3    3  501    0 -0.15672237645E+01  0.39832427880E+01 -0.13815917372E+03  0.13822546689E+03  0.00000000000E+00 0.  1.
         -3    1    1    2    0  502  0.30051868353E+02 -0.12602408910E+02 -0.15657581029E+03  0.15993098471E+03  0.00000000000E+00 0. -1.
<mgrwt>
<rscale>  1 0.30000000E+03</rscale>
<asrwt>0</asrwt>
<pdfrwt beam="1">  1       21 0.73652692E-02 0.30000000E+03</pdfrwt>
<pdfrwt beam="2">0</pdfrwt>
<totfact> 0.14765458E+04</totfact>
</mgrwt>
</event>
<event>
 6    1  0.1274196E-001  0.3000000E+03  0.7818608E-02  0.1093470E+00
         21   -1    0    0  501  502  0.00000000000E+00  0.00000000000E+00  0.17121998559E+01  0.17121998559E+01  0.00000000000E+00 0. -1.
         13   -1    0    0    0    0 -0.00000000000E+00 -0.00000000000E+00 -0.10000000000E+04  0.10000000000E+04  0.00000000000E+00 0.  1.
    9000005    2    1    2  501    0 -0.14237151614E+02 -0.33042340481E+02 -0.74546909084E+03  0.74634620265E+03  0.37411327212E+01 0.  0.
         13    1    3    3    0    0 -0.73415567984E+01 -0.20503524788E+02 -0.47451870659E+03  0.47501820585E+03  0.00000000000E+00 0.  1.
          3    1    3    3  501    0 -0.68955948154E+01 -0.12538815693E+02 -0.27095038425E+03  0.27132799681E+03  0.00000000000E+00 0.  1.
         -1    1    1    2    0  502  0.14237151614E+02  0.33042340481E+02 -0.25281870931E+03  0.25536599720E+03  0.00000000000E+00 0. -1.
<mgrwt>
<rscale>  1 0.30000000E+03</rscale>
<asrwt>0</asrwt>
<pdfrwt beam="1">  1       21 0.62261944E-02 0.30000000E+03</pdfrwt>
<pdfrwt beam="2">0</pdfrwt>
<totfact> 0.19767863E+04</totfact>
</mgrwt>
</event>
<event>
 6    1  0.1274196E-001  0.3000000E+03  0.7818608E-02  0.1093470E+00
         21   -1    0    0  501  502  0.00000000000E+00  0.00000000000E+00  0.15997397450E+01  0.15997397450E+01  0.00000000000E+00 0. -1.
         13   -1    0    0    0    0 -0.00000000000E+00 -0.00000000000E+00 -0.10000000000E+04  0.10000000000E+04  0.00000000000E+00 0.  1.
    9000005    2    1    2  501    0 -0.33698118978E+02  0.42673082138E+01 -0.76290702047E+03  0.76366941564E+03  0.31751168200E+01 0.  0.
         13    1    3    3    0    0 -0.27617819999E+02  0.45802701040E+01 -0.63882773834E+03  0.63944085115E+03  0.00000000000E+00 0.  1.
          1    1    3    3  501    0 -0.60802989785E+01 -0.31296189014E+00 -0.12407928213E+03  0.12422856449E+03  0.00000000000E+00 0.  1.
         -1    1    1    2    0  502  0.33698118978E+02 -0.42673082138E+01 -0.23549323979E+03  0.23793032410E+03  0.00000000000E+00 0. -1.
<mgrwt>
<rscale>  1 0.30000000E+03</rscale>
<asrwt>0</asrwt>
<pdfrwt beam="1">  1       21 0.58172477E-02 0.30000000E+03</pdfrwt>
<pdfrwt beam="2">0</pdfrwt>
<totfact> 0.22225613E+04</totfact>
</mgrwt>
</event>
<event>
 6    1  0.1274196E-001  0.3000000E+03  0.7818608E-02  0.1093470E+00
         21   -1    0    0  501  502  0.00000000000E+00  0.00000000000E+00  0.77944339123E+01  0.77944339123E+01  0.00000000000E+00 0. -1.
         13   -1    0    0    0    0 -0.00000000000E+00 -0.00000000000E+00 -0.10000000000E+04  0.10000000000E+04  0.00000000000E+00 0.  1.
    9000005    2    1    2  501    0 -0.32272395285E+02  0.41062713364E+02 -0.90232545091E+03  0.90384209372E+03  0.34142498722E+01 0.  0.
         13    1    3    3    0    0 -0.15620790240E+02  0.18860962548E+02 -0.39573105459E+03  0.39648809889E+03  0.00000000000E+00 0.  1.
          1    1    3    3  501    0 -0.16651605045E+02  0.22201750816E+02 -0.50659439632E+03  0.50735399484E+03  0.00000000000E+00 0.  1.
         -1    1    1    2    0  502  0.32272395285E+02 -0.41062713364E+02 -0.89880115180E+02  0.10395234019E+03  0.00000000000E+00 0. -1.
<mgrwt>
<rscale>  1 0.30000000E+03</rscale>
<asrwt>0</asrwt>
<pdfrwt beam="1">  1       21 0.28343456E-01 0.30000000E+03</pdfrwt>
<pdfrwt beam="2">0</pdfrwt>
<totfact> 0.12175865E+03</totfact>
</mgrwt>
</event>
<event>
 6    1  0.1274196E-001  0.3000000E+03  0.7818608E-02  0.1093470E+00
         21   -1    0    0  501  502  0.00000000000E+00  0.00000000000E+00  0.16040696438E+01  0.16040696438E+01  0.00000000000E+00 0. -1.
         13   -1    0    0    0    0 -0.00000000000E+00 -0.00000000000E+00 -0.10000000000E+04  0.10000000000E+04  0.00000000000E+00 0.  1.
    9000005    2    1    2  501    0  0.20240100734E+02  0.29397639233E+02 -0.71987117641E+03  0.72080178791E+03  0.81745915876E+01 0.  0.
         13    1    3    3    0    0  0.15601484284E+01  0.56150406849E+01 -0.77300156175E+02  0.77519525861E+02  0.00000000000E+00 0.  1.
          3    1    3    3  501    0  0.18679952306E+02  0.23782598548E+02 -0.64257102024E+03  0.64328226205E+03  0.00000000000E+00 0.  1.
         -3    1    1    2    0  502 -0.20240100734E+02 -0.29397639233E+02 -0.27852475394E+03  0.28080228174E+03  0.00000000000E+00 0. -1.
<mgrwt>
<rscale>  1 0.30000000E+03</rscale>
<asrwt>0</asrwt>
<pdfrwt beam="1">  1       21 0.58329928E-02 0.30000000E+03</pdfrwt>
<pdfrwt beam="2">0</pdfrwt>
<totfact> 0.22122358E+04</totfact>
</mgrwt>
</event>
<event>
 6    1  0.1274196E-001  0.3000000E+03  0.7818608E-02  0.1093470E+00
         21   -1    0    0  501  502  0.00000000000E+00  0.00000000000E+00  0.19235936608E+01  0.19235936608E+01  0.00000000000E+00 0. -1.
         13   -1    0    0    0    0 -0.00000000000E+00 -0.00000000000E+00 -0.10000000000E+04  0.10000000000E+04  0.00000000000E+00 0.  1.
    9000005    2    1    2  501    0  0.28412612954E+02  0.33030545848E+02 -0.44858539446E+03  0.45070796827E+03  0.32439188413E+01 0.  0.
         13    1    3    3    0    0  0.21414507829E+02  0.23564175178E+02 -0.31528132187E+03  0.31688509498E+03  0.00000000000E+00 0.  1.
          3    1    3    3  501    0  0.69981051254E+01  0.94663706695E+01 -0.13330407259E+03  0.13382287330E+03  0.00000000000E+00 0.  1.
         -1    1    1    2    0  502 -0.28412612954E+02 -0.33030545848E+02 -0.54949101188E+03  0.55121562539E+03  0.00000000000E+00 0. -1.
<mgrwt>
<rscale>  1 0.30000000E+03</rscale>
<asrwt>0</asrwt>
<pdfrwt beam="1">  1       21 0.69949008E-02 0.30000000E+03</pdfrwt>
<pdfrwt beam="2">0</pdfrwt>
<totfact> 0.16155762E+04</totfact>
</mgrwt>
</event>
<event>
 6    1  0.1274196E-001  0.3000000E+03  0.7818608E-02  0.1093470E+00
         21   -1    0    0  501  502  0.00000000000E+00  0.00000000000E+00  0.22877014016E+01  0.22877014016E+01  0.00000000000E+00 0. -1.
         13   -1    0    0    0    0 -0.00000000000E+00 -0.00000000000E+00 -0.10000000000E+04  0.10000000000E+04  0.00000000000E+00 0.  1.
    9000005    2    1    2  501    0  0.43499744172E+02 -0.18508461891E+02 -0.49469314048E+03  0.49705204912E+03  0.10229632912E+02 0.  0.
         13    1    3    3    0    0  0.28246159978E+02 -0.12292489074E+02 -0.26885876515E+03  0.27061778663E+03  0.00000000000E+00 0.  1.
          3    1    3    3  501    0  0.15253584194E+02 -0.62159728174E+01 -0.22583437533E+03  0.22643426249E+03  0.00000000000E+00 0.  1.
         -3    1    1    2    0  502 -0.43499744172E+02  0.18508461891E+02 -0.50301915812E+03  0.50523565228E+03  0.00000000000E+00 0. -1.
<mgrwt>
<rscale>  1 0.30000000E+03</rscale>
<asrwt>0</asrwt>
<pdfrwt beam="1">  1       21 0.83189317E-02 0.30000000E+03</pdfrwt>
<pdfrwt beam="2">0</pdfrwt>
<totfact> 0.11925235E+04</totfact>
</mgrwt>
</event>
<event>
 6    1  0.1274196E-001  0.3000000E+03  0.7818608E-02  0.1093470E+00
         21   -1    0    0  501  502  0.00000000000E+00  0.00000000000E+00  0.19917176727E+01  0.19917176727E+01  0.00000000000E+00 0. -1.
         13   -1    0    0    0    0 -0.00000000000E+00 -0.00000000000E+00 -0.10000000000E+04  0.10000000000E+04  0.00000000000E+00 0.  1.
    9000005    2    1    2  501    0  0.30240695639E+02  0.11379817023E+02 -0.84425210184E+03  0.84487722774E+03  0.34523306862E+01 0.  0.
         13    1    3    3    0    0  0.85398658455E+01  0.42934949831E+01 -0.21890829507E+03  0.21911687534E+03  0.00000000000E+00 0.  1.
          3    1    3    3  501    0  0.21700829794E+02  0.70863220403E+01 -0.62534380677E+03  0.62576035240E+03  0.00000000000E+00 0.  1.
         -1    1    1    2    0  502 -0.30240695639E+02 -0.11379817023E+02 -0.15375618049E+03  0.15711448993E+03  0.00000000000E+00 0. -1.
<mgrwt>
<rscale>  1 0.30000000E+03</rscale>
<asrwt>0</asrwt>
<pdfrwt beam="1">  1       21 0.72426250E-02 0.30000000E+03</pdfrwt>
<pdfrwt beam="2">0</pdfrwt>
<totfact> 0.15204990E+04</totfact>
</mgrwt>
</event>
<event>
 6    1  0.1274196E-001  0.3000000E+03  0.7818608E-02  0.1093470E+00
         21   -1    0    0  501  502  0.00000000000E+00  0.00000000000E+00  0.99585800497E+00  0.99585800497E+00  0.00000000000E+00 0. -1.
         13   -1    0    0    0    0 -0.00000000000E+00 -0.00000000000E+00 -0.10000000000E+04  0.10000000000E+04  0.00000000000E+00 0.  1.
    9000005    2    1    2  501    0  0.14703031655E+02 -0.27591074829E+02 -0.55911452563E+03  0.55999662770E+03  0.31182858918E+01 0.  0.
         13    1    3    3    0    0  0.95018391915E+01 -0.18728893248E+02 -0.34954808208E+03  0.35017840893E+03  0.00000000000E+00 0.  1.
          3    1    3    3  501    0  0.52011924630E+01 -0.88621815815E+01 -0.20956644355E+03  0.20981821877E+03  0.00000000000E+00 0.  1.
         -3    1    1    2    0  502 -0.14703031655E+02  0.27591074829E+02 -0.43988961636E+03  0.44099923031E+03  0.00000000000E+00 0. -1.
<mgrwt>
<rscale>  1 0.30000000E+03</rscale>
<asrwt>0</asrwt>
<pdfrwt beam="1">  1       21 0.36213095E-02 0.30000000E+03</pdfrwt>
<pdfrwt beam="2">0</pdfrwt>
<totfact> 0.49695977E+04</totfact>
</mgrwt>
</event>
<event>
 6    1  0.1274196E-001  0.3000000E+03  0.7818608E-02  0.1093470E+00
         21   -1    0    0  501  502  0.00000000000E+00  0.00000000000E+00  0.11548047375E+01  0.11548047375E+01  0.00000000000E+00 0. -1.
         13   -1    0    0    0    0 -0.00000000000E+00 -0.00000000000E+00 -0.10000000000E+04  0.10000000000E+04  0.00000000000E+00 0.  1.
    9000005    2    1    2  501    0 -0.98449427325E+01 -0.31388439783E+02 -0.37876771410E+03  0.38020533844E+03  0.29935071151E+01 0.  0.
         13    1    3    3    0    0 -0.68797713410E+01 -0.25839423456E+02 -0.30551782361E+03  0.30668574730E+03  0.00000000000E+00 0.  1.
          1    1    3    3  501    0 -0.29651713915E+01 -0.55490163276E+01 -0.73249890494E+02  0.73519591137E+02  0.00000000000E+00 0.  1.
         -1    1    1    2    0  502  0.98449427325E+01  0.31388439783E+02 -0.62007748116E+03  0.62094946630E+03  0.00000000000E+00 0. -1.
<mgrwt>
<rscale>  1 0.30000000E+03</rscale>
<asrwt>0</asrwt>
<pdfrwt beam="1">  1       21 0.41992988E-02 0.30000000E+03</pdfrwt>
<pdfrwt beam="2">0</pdfrwt>
<totfact> 0.38737378E+04</totfact>
</mgrwt>
</event>
<event>
 6    1  0.1274196E-001  0.3000000E+03  0.7818608E-02  0.1093470E+00
         21   -1    0    0  501  502  0.00000000000E+00  0.00000000000E+00  0.12710160640E+01  0.12710160640E+01  0.00000000000E+00 0. -1.
         13   -1    0    0    0    0 -0.00000000000E+00 -0.00000000000E+00 -0.10000000000E+04  0.10000000000E+04  0.00000000000E+00 0.  1.
    9000005    2    1    2  501    0 -0.33435006312E+02  0.84324039336E+01 -0.41302420606E+03  0.41455209536E+03  0.86856142083E+01 0.  0.
         13    1    3    3    0    0 -0.24121913953E+02  0.97522847167E+01 -0.31853147598E+03  0.31959235751E+03  0.00000000000E+00 0.  1.
          3    1    3    3  501    0 -0.93130923591E+01 -0.13198807831E+01 -0.94492730087E+02  0.94959737857E+02  0.00000000000E+00 0.  1.
         -3    1    1    2    0  502  0.33435006312E+02 -0.84324039336E+01 -0.58570477787E+03  0.58671892070E+03  0.00000000000E+00 0. -1.
<mgrwt>
<rscale>  1 0.30000000E+03</rscale>
<asrwt>0</asrwt>
<pdfrwt beam="1">  1       21 0.46218863E-02 0.30000000E+03</pdfrwt>
<pdfrwt beam="2">0</pdfrwt>
<totfact> 0.32929138E+04</totfact>
</mgrwt>
</event>
<event>
 6    1  0.1274196E-001  0.3000000E+03  0.7818608E-02  0.1093470E+00
         21   -1    0    0  501  502  0.00000000000E+00  0.00000000000E+00  0.96216937497E+00  0.96216937497E+00  0.00000000000E+00 0. -1.
         13   -1    0    0    0    0 -0.00000000000E+00 -0.00000000000E+00 -0.10000000000E+04  0.10000000000E+04  0.00000000000E+00 0.  1.
    9000005    2    1    2  501    0 -0.16278987289E+02 -0.25942004452E+02 -0.43591990773E+03  0.43701200481E+03  0.39157852989E+01 0.  0.
         13    1    3    3    0    0 -0.98894185111E+01 -0.18704783494E+02 -0.28599735547E+03  0.28677893378E+03  0.00000000000E+00 0.  1.
          3    1    3    3  501    0 -0.63895687782E+01 -0.72372209582E+01 -0.14992255226E+03  0.15023307104E+03  0.00000000000E+00 0.  1.
         -3    1    1    2    0  502  0.16278987289E+02  0.25942004452E+02 -0.56311792290E+03  0.56395016456E+03  0.00000000000E+00 0. -1.
<mgrwt>
<rscale>  1 0.30000000E+03</rscale>
<asrwt>0</asrwt>
<pdfrwt beam="1">  1       21 0.34988051E-02 0.30000000E+03</pdfrwt>
<pdfrwt beam="2">0</pdfrwt>
<totfact> 0.52646900E+04</totfact>
</mgrwt>
</event>
<event>
 6    1  0.1274196E-001  0.3000000E+03  0.7818608E-02  0.1093470E+00
         21   -1    0    0  501  502  0.00000000000E+00  0.00000000000E+00  0.87592606589E+01  0.87592606589E+01  0.00000000000E+00 0. -1.
         13   -1    0    0    0    0 -0.00000000000E+00 -0.00000000000E+00 -0.10000000000E+04  0.10000000000E+04  0.00000000000E+00 0.  1.
    9000005    2    1    2  501    0  0.34097148238E+02  0.84147459807E+02 -0.61772865000E+03  0.62437053633E+03  0.25438340583E+01 0.  0.
         13    1    3    3    0    0  0.34037363832E+02  0.83392599678E+02 -0.61268917500E+03  0.61927448921E+03  0.00000000000E+00 0.  1.
          3    1    3    3  501    0  0.59784406151E-01  0.75486012965E+00 -0.50394749996E+01  0.50960471212E+01  0.00000000000E+00 0.  1.
         -1    1    1    2    0  502 -0.34097148238E+02 -0.84147459807E+02 -0.37351208934E+03  0.38438872433E+03  0.00000000000E+00 0. -1.
<mgrwt>
<rscale>  1 0.30000000E+03</rscale>
<asrwt>0</asrwt>
<pdfrwt beam="1">  1       21 0.31851924E-01 0.30000000E+03</pdfrwt>
<pdfrwt beam="2">0</pdfrwt>
<totfact> 0.96395913E+02</totfact>
</mgrwt>
</event>
<event>
 6    1  0.1274196E-001  0.3000000E+03  0.7818608E-02  0.1093470E+00
         21   -1    0    0  501  502  0.00000000000E+00  0.00000000000E+00  0.30982351423E+01  0.30982351423E+01  0.00000000000E+00 0. -1.
         13   -1    0    0    0    0 -0.00000000000E+00 -0.00000000000E+00 -0.10000000000E+04  0.10000000000E+04  0.00000000000E+00 0.  1.
    9000005    2    1    2  501    0 -0.25920897596E+02 -0.26664036602E+02 -0.87159131017E+03  0.87238643830E+03  0.19549893674E+01 0.  0.
         13    1    3    3    0    0 -0.22004081027E+02 -0.22624196495E+02 -0.75530324576E+03  0.75596231845E+03  0.00000000000E+00 0.  1.
          1    1    3    3  501    0 -0.39168165691E+01 -0.40398401070E+01 -0.11628806441E+03  0.11642411985E+03  0.00000000000E+00 0.  1.
         -3    1    1    2    0  502  0.25920897596E+02  0.26664036602E+02 -0.12531045469E+03  0.13071179684E+03  0.00000000000E+00 0. -1.
<mgrwt>
<rscale>  1 0.30000000E+03</rscale>
<asrwt>0</asrwt>
<pdfrwt beam="1">  1       21 0.11266333E-01 0.30000000E+03</pdfrwt>
<pdfrwt beam="2">0</pdfrwt>
<totfact> 0.69461892E+03</totfact>
</mgrwt>
</event>
<event>
 6    1  0.1274196E-001  0.3000000E+03  0.7818608E-02  0.1093470E+00
         21   -1    0    0  501  502  0.00000000000E+00  0.00000000000E+00  0.14802806962E+01  0.14802806962E+01  0.00000000000E+00 0. -1.
         13   -1    0    0    0    0 -0.00000000000E+00 -0.00000000000E+00 -0.10000000000E+04  0.10000000000E+04  0.00000000000E+00 0.  1.
    9000005    2    1    2  501    0  0.33313755084E+02  0.84763337378E+01 -0.72285897854E+03  0.72368449508E+03  0.35342668684E+01 0.  0.
         13    1    3    3    0    0  0.31261573965E+02  0.73196186864E+01 -0.65821803956E+03  0.65900064524E+03  0.00000000000E+00 0.  1.
          3    1    3    3  501    0  0.20521811188E+01  0.11567150515E+01 -0.64640938986E+02  0.64683849839E+02  0.00000000000E+00 0.  1.
         -1    1    1    2    0  502 -0.33313755084E+02 -0.84763337378E+01 -0.27566074076E+03  0.27779578562E+03  0.00000000000E+00 0. -1.
<mgrwt>
<rscale>  1 0.30000000E+03</rscale>
<asrwt>0</asrwt>
<pdfrwt beam="1">  1       21 0.53828502E-02 0.30000000E+03</pdfrwt>
<pdfrwt beam="2">0</pdfrwt>
<totfact> 0.25393824E+04</totfact>
</mgrwt>
</event>
<event>
 6    1  0.1274196E-001  0.3000000E+03  0.7818608E-02  0.1093470E+00
         21   -1    0    0  501  502  0.00000000000E+00  0.00000000000E+00  0.41897395147E+01  0.41897395147E+01  0.00000000000E+00 0. -1.
         13   -1    0    0    0    0 -0.00000000000E+00 -0.00000000000E+00 -0.10000000000E+04  0.10000000000E+04  0.00000000000E+00 0.  1.
    9000005    2    1    2  501    0 -0.37254114244E+02  0.14901167453E+02 -0.89180887364E+03  0.89271686261E+03  0.32273621101E+01 0.  0.
         13    1    3    3    0    0 -0.14199797470E+02  0.42196987128E+01 -0.34559148123E+03  0.34590882036E+03  0.00000000000E+00 0.  1.
          3    1    3    3  501    0 -0.23054316774E+02  0.10681468740E+02 -0.54621739242E+03  0.54680804225E+03  0.00000000000E+00 0.  1.
         -1    1    1    2    0  502  0.37254114244E+02 -0.14901167453E+02 -0.10400138684E+03  0.11147287690E+03  0.00000000000E+00 0. -1.
<mgrwt>
<rscale>  1 0.30000000E+03</rscale>
<asrwt>0</asrwt>
<pdfrwt beam="1">  1       21 0.15235449E-01 0.30000000E+03</pdfrwt>
<pdfrwt beam="2">0</pdfrwt>
<totfact> 0.40009107E+03</totfact>
</mgrwt>
</event>
<event>
 6    1  0.1274196E-001  0.3000000E+03  0.7818608E-02  0.1093470E+00
         21   -1    0    0  501  502  0.00000000000E+00  0.00000000000E+00  0.15204330522E+01  0.15204330522E+01  0.00000000000E+00 0. -1.
         13   -1    0    0    0    0 -0.00000000000E+00 -0.00000000000E+00 -0.10000000000E+04  0.10000000000E+04  0.00000000000E+00 0.  1.
    9000005    2    1    2  501    0 -0.95659513532E+01 -0.34088855721E+02 -0.69436304325E+03  0.69534986377E+03  0.10855399642E+02 0.  0.
         13    1    3    3    0    0 -0.10846380430E+02 -0.32565552557E+02 -0.61122637460E+03  0.61218938262E+03  0.00000000000E+00 0.  1.
          1    1    3    3  501    0  0.12804290772E+01 -0.15233031639E+01 -0.83136668655E+02  0.83160481157E+02  0.00000000000E+00 0.  1.
         -1    1    1    2    0  502  0.95659513532E+01  0.34088855721E+02 -0.30411652369E+03  0.30617056928E+03  0.00000000000E+00 0. -1.
<mgrwt>
<rscale>  1 0.30000000E+03</rscale>
<asrwt>0</asrwt>
<pdfrwt beam="1">  1       21 0.55288591E-02 0.30000000E+03</pdfrwt>
<pdfrwt beam="2">0</pdfrwt>
<totfact> 0.24255469E+04</totfact>
</mgrwt>
</event>
<event>
 6    1  0.1274196E-001  0.3000000E+03  0.7818608E-02  0.1093470E+00
         21   -1    0    0  501  502  0.00000000000E+00  0.00000000000E+00  0.14894806581E+02  0.14894806581E+02  0.00000000000E+00 0. -1.
         13   -1    0    0    0    0 -0.00000000000E+00 -0.00000000000E+00 -0.10000000000E+04  0.10000000000E+04  0.00000000000E+00 0.  1.
    9000005    2    1    2  501    0  0.86392939832E+02 -0.71906829821E+02 -0.69014442405E+03  0.69924280247E+03  0.26150603310E+01 0.  0.
         13    1    3    3    0    0  0.28483501996E+02 -0.23725619152E+02 -0.23531938055E+03  0.23822137972E+03  0.00000000000E+00 0.  1.
          3    1    3    3  501    0  0.57909437836E+02 -0.48181210670E+02 -0.45482504349E+03  0.46102142276E+03  0.00000000000E+00 0.  1.
         -3    1    1    2    0  502 -0.86392939832E+02  0.71906829821E+02 -0.29496076937E+03  0.31565200411E+03  0.00000000000E+00 0. -1.
<mgrwt>
<rscale>  1 0.30000000E+03</rscale>
<asrwt>0</asrwt>
<pdfrwt beam="1">  1       21 0.54163047E-01 0.30000000E+03</pdfrwt>
<pdfrwt beam="2">0</pdfrwt>
<totfact> 0.31540722E+02</totfact>
</mgrwt>
</event>
<event>
 6    1  0.1274196E-001  0.3000000E+03  0.7818608E-02  0.1093470E+00
         21   -1    0    0  501  502  0.00000000000E+00  0.00000000000E+00  0.36968421504E+02  0.36968421504E+02  0.00000000000E+00 0. -1.
         13   -1    0    0    0    0 -0.00000000000E+00 -0.00000000000E+00 -0.10000000000E+04  0.10000000000E+04  0.00000000000E+00 0.  1.
    9000005    2    1    2  501    0 -0.76656483378E+02 -0.13540123521E+01 -0.95699268118E+03  0.96006251748E+03  0.26449641056E+01 0.  0.
         13    1    3    3    0    0 -0.20373846156E+02  0.77421479168E+00 -0.25788552062E+03  0.25869022935E+03  0.00000000000E+00 0.  1.
          3    1    3    3  501    0 -0.56282637222E+02 -0.21282271438E+01 -0.69910716056E+03  0.70137228812E+03  0.00000000000E+00 0.  1.
         -3    1    1    2    0  502  0.76656483378E+02  0.13540123521E+01 -0.60388973132E+01  0.76905904026E+02  0.00000000000E+00 0. -1.
<mgrwt>
<rscale>  1 0.30000000E+03</rscale>
<asrwt>0</asrwt>
<pdfrwt beam="1">  1       21 0.13443091E+00 0.30000000E+03</pdfrwt>
<pdfrwt beam="2">0</pdfrwt>
<totfact> 0.33015757E+01</totfact>
</mgrwt>
</event>
<event>
 6    1  0.1274196E-001  0.3000000E+03  0.7818608E-02  0.1093470E+00
         21   -1    0    0  501  502  0.00000000000E+00  0.00000000000E+00  0.20090653249E+01  0.20090653249E+01  0.00000000000E+00 0. -1.
         13   -1    0    0    0    0 -0.00000000000E+00 -0.00000000000E+00 -0.10000000000E+04  0.10000000000E+04  0.00000000000E+00 0.  1.
    9000005    2    1    2  501    0  0.35515915177E+02  0.27122317018E+02 -0.46896550491E+03  0.47109955736E+03  0.30245390146E+01 0.  0.
         13    1    3    3    0    0  0.13502831453E+01  0.13364048166E+01 -0.26696612875E+02  0.26764124896E+02  0.00000000000E+00 0.  1.
          3    1    3    3  501    0  0.34165632032E+02  0.25785912202E+02 -0.44226889203E+03  0.44433543246E+03  0.00000000000E+00 0.  1.
         -3    1    1    2    0  502 -0.35515915177E+02 -0.27122317018E+02 -0.52902542977E+03  0.53090950797E+03  0.00000000000E+00 0. -1.
<mgrwt>
<rscale>  1 0.30000000E+03</rscale>
<asrwt>0</asrwt>
<pdfrwt beam="1">  1       21 0.73057075E-02 0.30000000E+03</pdfrwt>
<pdfrwt beam="2">0</pdfrwt>
<totfact> 0.14976472E+04</totfact>
</mgrwt>
</event>
<event>
 6    1  0.1274196E-001  0.3000000E+03  0.7818608E-02  0.1093470E+00
         21   -1    0    0  501  502  0.00000000000E+00  0.00000000000E+00  0.16081798213E+01  0.16081798213E+01  0.00000000000E+00 0. -1.
         13   -1    0    0    0    0 -0.00000000000E+00 -0.00000000000E+00 -0.10000000000E+04  0.10000000000E+04  0.00000000000E+00 0.  1.
    9000005    2    1    2  501    0  0.34605252760E+02 -0.14921051251E+02 -0.66203658988E+03  0.66314843001E+03  0.72960676777E+01 0.  0.
         13    1    3    3    0    0  0.96806715733E+01 -0.53511886663E+01 -0.25278196392E+03  0.25302385639E+03  0.00000000000E+00 0.  1.
          1    1    3    3  501    0  0.24924581187E+02 -0.95698625846E+01 -0.40925462596E+03  0.41012457362E+03  0.00000000000E+00 0.  1.
         -3    1    1    2    0  502 -0.34605252760E+02  0.14921051251E+02 -0.33635523030E+03  0.33845974981E+03  0.00000000000E+00 0. -1.
<mgrwt>
<rscale>  1 0.30000000E+03</rscale>
<asrwt>0</asrwt>
<pdfrwt beam="1">  1       21 0.58479390E-02 0.30000000E+03</pdfrwt>
<pdfrwt beam="2">0</pdfrwt>
<totfact> 0.22025033E+04</totfact>
</mgrwt>
</event>
<event>
 6    1  0.1274196E-001  0.3000000E+03  0.7818608E-02  0.1093470E+00
         21   -1    0    0  501  502  0.00000000000E+00  0.00000000000E+00  0.54728374974E+01  0.54728374974E+01  0.00000000000E+00 0. -1.
         13   -1    0    0    0    0 -0.00000000000E+00 -0.00000000000E+00 -0.10000000000E+04  0.10000000000E+04  0.00000000000E+00 0.  1.
    9000005    2    1    2  501    0  0.64103430908E+02 -0.24719578877E+02 -0.68317097686E+03  0.68662650809E+03  0.36153234949E+01 0.  0.
         13    1    3    3    0    0  0.34719287954E+02 -0.14909643807E+02 -0.38639202169E+03  0.38823513605E+03  0.00000000000E+00 0.  1.
          1    1    3    3  501    0  0.29384142954E+02 -0.98099350707E+01 -0.29677895516E+03  0.29839137205E+03  0.00000000000E+00 0.  1.
         -3    1    1    2    0  502 -0.64103430908E+02  0.24719578877E+02 -0.31135618565E+03  0.31884632940E+03  0.00000000000E+00 0. -1.
<mgrwt>
<rscale>  1 0.30000000E+03</rscale>
<asrwt>0</asrwt>
<pdfrwt beam="1">  1       21 0.19901269E-01 0.30000000E+03</pdfrwt>
<pdfrwt beam="2">0</pdfrwt>
<totfact> 0.24219870E+03</totfact>
</mgrwt>
</event>
<event>
 6    1  0.1274196E-001  0.3000000E+03  0.7818608E-02  0.1093470E+00
         21   -1    0    0  501  502  0.00000000000E+00  0.00000000000E+00  0.14531028614E+01  0.14531028614E+01  0.00000000000E+00 0. -1.
         13   -1    0    0    0    0 -0.00000000000E+00 -0.00000000000E+00 -0.10000000000E+04  0.10000000000E+04  0.00000000000E+00 0.  1.
    9000005    2    1    2  501    0  0.13210725288E+00  0.32183690703E+02 -0.24082134375E+03  0.24304435973E+03  0.63114017146E+01 0.  0.
         13    1    3    3    0    0 -0.26691933610E+00 -0.21294926631E+00 -0.14125816760E+01  0.14532653968E+01  0.00000000000E+00 0.  1.
          3    1    3    3  501    0  0.39902658898E+00  0.32396639969E+02 -0.23940876208E+03  0.24159109434E+03  0.00000000000E+00 0.  1.
         -1    1    1    2    0  502 -0.13210725288E+00 -0.32183690703E+02 -0.75772555339E+03  0.75840874313E+03  0.00000000000E+00 0. -1.
<mgrwt>
<rscale>  1 0.30000000E+03</rscale>
<asrwt>0</asrwt>
<pdfrwt beam="1">  1       21 0.52840215E-02 0.30000000E+03</pdfrwt>
<pdfrwt beam="2">0</pdfrwt>
<totfact> 0.26211862E+04</totfact>
</mgrwt>
</event>
<event>
 6    1  0.1274196E-001  0.3000000E+03  0.7818608E-02  0.1093470E+00
         21   -1    0    0  501  502  0.00000000000E+00  0.00000000000E+00  0.84831289927E+01  0.84831289927E+01  0.00000000000E+00 0. -1.
         13   -1    0    0    0    0 -0.00000000000E+00 -0.00000000000E+00 -0.10000000000E+04  0.10000000000E+04  0.00000000000E+00 0.  1.
    9000005    2    1    2  501    0  0.56112031687E+02 -0.44864042318E+01 -0.89482321515E+03  0.89659769203E+03  0.31854426495E+01 0.  0.
         13    1    3    3    0    0  0.34924258079E+02 -0.39710868160E+01 -0.57398513732E+03  0.57506035440E+03  0.00000000000E+00 0.  1.
          1    1    3    3  501    0  0.21187773608E+02 -0.51531741574E+00 -0.32083807783E+03  0.32153733763E+03  0.00000000000E+00 0.  1.
         -3    1    1    2    0  502 -0.56112031687E+02  0.44864042318E+01 -0.96693655852E+02  0.11188543697E+03  0.00000000000E+00 0. -1.
<mgrwt>
<rscale>  1 0.30000000E+03</rscale>
<asrwt>0</asrwt>
<pdfrwt beam="1">  1       21 0.30847807E-01 0.30000000E+03</pdfrwt>
<pdfrwt beam="2">0</pdfrwt>
<totfact> 0.10282038E+03</totfact>
</mgrwt>
</event>
<event>
 6    1  0.1274196E-001  0.3000000E+03  0.7818608E-02  0.1093470E+00
         21   -1    0    0  501  502  0.00000000000E+00  0.00000000000E+00  0.11451648161E+01  0.11451648161E+01  0.00000000000E+00 0. -1.
         13   -1    0    0    0    0 -0.00000000000E+00 -0.00000000000E+00 -0.10000000000E+04  0.10000000000E+04  0.00000000000E+00 0.  1.
    9000005    2    1    2  501    0  0.13875776622E+02  0.30361496320E+02 -0.57656738952E+03  0.57754034379E+03  0.29217127313E+01 0.  0.
         13    1    3    3    0    0  0.13637068859E+02  0.28396730793E+02 -0.53637187811E+03  0.53729613398E+03  0.00000000000E+00 0.  1.
          1    1    3    3  501    0  0.23870776315E+00  0.19647655273E+01 -0.40195511417E+02  0.40244209808E+02  0.00000000000E+00 0.  1.
         -3    1    1    2    0  502 -0.13875776622E+02 -0.30361496320E+02 -0.42228744566E+03  0.42360482103E+03  0.00000000000E+00 0. -1.
<mgrwt>
<rscale>  1 0.30000000E+03</rscale>
<asrwt>0</asrwt>
<pdfrwt beam="1">  1       21 0.41642445E-02 0.30000000E+03</pdfrwt>
<pdfrwt beam="2">0</pdfrwt>
<totfact> 0.39289470E+04</totfact>
</mgrwt>
</event>
<event>
 6    1  0.1274196E-001  0.3000000E+03  0.7818608E-02  0.1093470E+00
         21   -1    0    0  501  502  0.00000000000E+00  0.00000000000E+00  0.20692051040E+01  0.20692051040E+01  0.00000000000E+00 0. -1.
         13   -1    0    0    0    0 -0.00000000000E+00 -0.00000000000E+00 -0.10000000000E+04  0.10000000000E+04  0.00000000000E+00 0.  1.
    9000005    2    1    2  501    0  0.10900369772E+02 -0.33634885666E+02 -0.81385433825E+03  0.81462783964E+03  0.30837698677E+01 0.  0.
         13    1    3    3    0    0  0.96810445803E+01 -0.26079801104E+02 -0.62681848020E+03  0.62743548335E+03  0.00000000000E+00 0.  1.
          1    1    3    3  501    0  0.12193251920E+01 -0.75550845614E+01 -0.18703585805E+03  0.18719235629E+03  0.00000000000E+00 0.  1.
         -3    1    1    2    0  502 -0.10900369772E+02  0.33634885666E+02 -0.18407645665E+03  0.18744136546E+03  0.00000000000E+00 0. -1.
<mgrwt>
<rscale>  1 0.30000000E+03</rscale>
<asrwt>0</asrwt>
<pdfrwt beam="1">  1       21 0.75243981E-02 0.30000000E+03</pdfrwt>
<pdfrwt beam="2">0</pdfrwt>
<totfact> 0.14223346E+04</totfact>
</mgrwt>
</event>
<event>
 6    1  0.1274196E-001  0.3000000E+03  0.7818608E-02  0.1093470E+00
         21   -1    0    0  501  502  0.00000000000E+00  0.00000000000E+00  0.17757263985E+01  0.17757263985E+01  0.00000000000E+00 0. -1.
         13   -1    0    0    0    0 -0.00000000000E+00 -0.00000000000E+00 -0.10000000000E+04  0.10000000000E+04  0.00000000000E+00 0.  1.
    9000005    2    1    2  501    0 -0.22370991989E+02  0.23991681649E+02 -0.81310290297E+03  0.81377045005E+03  0.31547556229E+01 0.  0.
         13    1    3    3    0    0 -0.15280337403E+02  0.17229590976E+02 -0.60187637297E+03  0.60231679029E+03  0.00000000000E+00 0.  1.
          1    1    3    3  501    0 -0.70906545866E+01  0.67620906730E+01 -0.21122653000E+03  0.21145365976E+03  0.00000000000E+00 0.  1.
         -1    1    1    2    0  502  0.22370991989E+02 -0.23991681649E+02 -0.18512137063E+03  0.18800527635E+03  0.00000000000E+00 0. -1.
<mgrwt>
<rscale>  1 0.30000000E+03</rscale>
<asrwt>0</asrwt>
<pdfrwt beam="1">  1       21 0.64572005E-02 0.30000000E+03</pdfrwt>
<pdfrwt beam="2">0</pdfrwt>
<totfact> 0.18561099E+04</totfact>
</mgrwt>
</event>
<event>
 6    1  0.1274196E-001  0.3000000E+03  0.7818608E-02  0.1093470E+00
         21   -1    0    0  501  502  0.00000000000E+00  0.00000000000E+00  0.16006547747E+01  0.16006547747E+01  0.00000000000E+00 0. -1.
         13   -1    0    0    0    0 -0.00000000000E+00 -0.00000000000E+00 -0.10000000000E+04  0.10000000000E+04  0.00000000000E+00 0.  1.
    9000005    2    1    2  501    0 -0.96472615898E+00 -0.39851846610E+02 -0.46992787783E+03  0.47162783262E+03  0.33914248517E+01 0.  0.
         13    1    3    3    0    0  0.39384867390E+00 -0.89430555882E+00 -0.83903255214E+01  0.84470386269E+01  0.00000000000E+00 0.  1.
          3    1    3    3  501    0 -0.13585748329E+01 -0.38957541051E+02 -0.46153755231E+03  0.46318079399E+03  0.00000000000E+00 0.  1.
         -1    1    1    2    0  502  0.96472615898E+00  0.39851846610E+02 -0.52847146740E+03  0.52997282216E+03  0.00000000000E+00 0. -1.
<mgrwt>
<rscale>  1 0.30000000E+03</rscale>
<asrwt>0</asrwt>
<pdfrwt beam="1">  1       21 0.58205751E-02 0.30000000E+03</pdfrwt>
<pdfrwt beam="2">0</pdfrwt>
<totfact> 0.22203730E+04</totfact>
</mgrwt>
</event>
<event>
 6    1  0.1274196E-001  0.3000000E+03  0.7818608E-02  0.1093470E+00
         21   -1    0    0  501  502  0.00000000000E+00  0.00000000000E+00  0.12925417632E+01  0.12925417632E+01  0.00000000000E+00 0. -1.
         13   -1    0    0    0    0 -0.00000000000E+00 -0.00000000000E+00 -0.10000000000E+04  0.10000000000E+04  0.00000000000E+00 0.  1.
    9000005    2    1    2  501    0  0.30155768154E+02  0.18201997586E+02 -0.40982457125E+03  0.41135717441E+03  0.42264250522E+01 0.  0.
         13    1    3    3    0    0  0.12205663817E+02  0.95705675743E+01 -0.19010558341E+03  0.19073727176E+03  0.00000000000E+00 0.  1.
          1    1    3    3  501    0  0.17950104336E+02  0.86314300114E+01 -0.21971898784E+03  0.22061990265E+03  0.00000000000E+00 0.  1.
         -3    1    1    2    0  502 -0.30155768154E+02 -0.18201997586E+02 -0.58888288699E+03  0.58993536735E+03  0.00000000000E+00 0. -1.
<mgrwt>
<rscale>  1 0.30000000E+03</rscale>
<asrwt>0</asrwt>
<pdfrwt beam="1">  1       21 0.47001618E-02 0.30000000E+03</pdfrwt>
<pdfrwt beam="2">0</pdfrwt>
<totfact> 0.32002460E+04</totfact>
</mgrwt>
</event>
<event>
 6    1  0.1274196E-001  0.3000000E+03  0.7818608E-02  0.1093470E+00
         21   -1    0    0  501  502  0.00000000000E+00  0.00000000000E+00  0.20981943428E+01  0.20981943428E+01  0.00000000000E+00 0. -1.
         13   -1    0    0    0    0 -0.00000000000E+00 -0.00000000000E+00 -0.10000000000E+04  0.10000000000E+04  0.00000000000E+00 0.  1.
    9000005    2    1    2  501    0 -0.27370898057E+02 -0.36322718593E+02 -0.44366376896E+03  0.44599720777E+03  0.27319413652E+01 0.  0.
         13    1    3    3    0    0 -0.14262494916E+02 -0.18377930430E+02 -0.23985857606E+03  0.24098403183E+03  0.00000000000E+00 0.  1.
          1    1    3    3  501    0 -0.13108403140E+02 -0.17944788163E+02 -0.20380519290E+03  0.20501317594E+03  0.00000000000E+00 0.  1.
         -1    1    1    2    0  502  0.27370898057E+02  0.36322718593E+02 -0.55423803669E+03  0.55610098657E+03  0.00000000000E+00 0. -1.
<mgrwt>
<rscale>  1 0.30000000E+03</rscale>
<asrwt>0</asrwt>
<pdfrwt beam="1">  1       21 0.76298137E-02 0.30000000E+03</pdfrwt>
<pdfrwt beam="2">0</pdfrwt>
<totfact> 0.13880913E+04</totfact>
</mgrwt>
</event>
<event>
 6    1  0.1274196E-001  0.3000000E+03  0.7818608E-02  0.1093470E+00
         21   -1    0    0  501  502  0.00000000000E+00  0.00000000000E+00  0.63605320922E+01  0.63605320922E+01  0.00000000000E+00 0. -1.
         13   -1    0    0    0    0 -0.00000000000E+00 -0.00000000000E+00 -0.10000000000E+04  0.10000000000E+04  0.00000000000E+00 0.  1.
    9000005    2    1    2  501    0  0.32335850952E+02  0.23817890809E+02 -0.93150489976E+03  0.93237672482E+03  0.34755620604E+01 0.  0.
         13    1    3    3    0    0  0.15278504510E+01  0.20800322757E+01 -0.52102036835E+02  0.52165918986E+02  0.00000000000E+00 0.  1.
          3    1    3    3  501    0  0.30808000501E+02  0.21737858533E+02 -0.87940286293E+03  0.88021080584E+03  0.00000000000E+00 0.  1.
         -3    1    1    2    0  502 -0.32335850952E+02 -0.23817890809E+02 -0.62134568144E+02  0.73983807267E+02  0.00000000000E+00 0. -1.
<mgrwt>
<rscale>  1 0.30000000E+03</rscale>
<asrwt>0</asrwt>
<pdfrwt beam="1">  1       21 0.23129256E-01 0.30000000E+03</pdfrwt>
<pdfrwt beam="2">0</pdfrwt>
<totfact> 0.18144887E+03</totfact>
</mgrwt>
</event>
<event>
 6    1  0.1274196E-001  0.3000000E+03  0.7818608E-02  0.1093470E+00
         21   -1    0    0  501  502  0.00000000000E+00  0.00000000000E+00  0.16757699309E+01  0.16757699309E+01  0.00000000000E+00 0. -1.
         13   -1    0    0    0    0 -0.00000000000E+00 -0.00000000000E+00 -0.10000000000E+04  0.10000000000E+04  0.00000000000E+00 0.  1.
    9000005    2    1    2  501    0 -0.35005461846E+02  0.14124749836E+02 -0.30825644347E+03  0.31057632628E+03  0.32754520146E+01 0.  0.
         13    1    3    3    0    0 -0.35030568869E+02  0.14127828417E+02 -0.30824098621E+03  0.31054668227E+03  0.00000000000E+00 0.  1.
          3    1    3    3  501    0  0.25107022726E-01 -0.30785803627E-02 -0.15457265884E-01  0.29644009780E-01  0.00000000000E+00 0.  1.
         -1    1    1    2    0  502  0.35005461846E+02 -0.14124749836E+02 -0.69006778659E+03  0.69109944365E+03  0.00000000000E+00 0. -1.
<mgrwt>
<rscale>  1 0.30000000E+03</rscale>
<asrwt>0</asrwt>
<pdfrwt beam="1">  1       21 0.60937217E-02 0.30000000E+03</pdfrwt>
<pdfrwt beam="2">0</pdfrwt>
<totfact> 0.20515684E+04</totfact>
</mgrwt>
</event>
<event>
 6    1  0.1274196E-001  0.3000000E+03  0.7818608E-02  0.1093470E+00
         21   -1    0    0  501  502  0.00000000000E+00  0.00000000000E+00  0.11816177936E+01  0.11816177936E+01  0.00000000000E+00 0. -1.
         13   -1    0    0    0    0 -0.00000000000E+00 -0.00000000000E+00 -0.10000000000E+04  0.10000000000E+04  0.00000000000E+00 0.  1.
    9000005    2    1    2  501    0 -0.13980452797E+02  0.28675003698E+02 -0.31530315400E+03  0.31692232769E+03  0.24441708491E+01 0.  0.
         13    1    3    3    0    0 -0.10196459734E+02  0.20687882357E+02 -0.21674714385E+03  0.21797082519E+03  0.00000000000E+00 0.  1.
          1    1    3    3  501    0 -0.37839930631E+01  0.79871213409E+01 -0.98556010148E+02  0.98951502500E+02  0.00000000000E+00 0.  1.
         -3    1    1    2    0  502  0.13980452797E+02 -0.28675003698E+02 -0.68351522821E+03  0.68425929010E+03  0.00000000000E+00 0. -1.
<mgrwt>
<rscale>  1 0.30000000E+03</rscale>
<asrwt>0</asrwt>
<pdfrwt beam="1">  1       21 0.42968010E-02 0.30000000E+03</pdfrwt>
<pdfrwt beam="2">0</pdfrwt>
<totfact> 0.37263615E+04</totfact>
</mgrwt>
</event>
<event>
 6    1  0.1274196E-001  0.3000000E+03  0.7818608E-02  0.1093470E+00
         21   -1    0    0  501  502  0.00000000000E+00  0.00000000000E+00  0.41253441786E+01  0.41253441786E+01  0.00000000000E+00 0. -1.
         13   -1    0    0    0    0 -0.00000000000E+00 -0.00000000000E+00 -0.10000000000E+04  0.10000000000E+04  0.00000000000E+00 0.  1.
    9000005    2    1    2  501    0  0.25487241411E+02  0.53846076603E+02 -0.68538320633E+03  0.68797041436E+03  0.20376646738E+01 0.  0.
         13    1    3    3    0    0  0.11348275268E+02  0.24897473732E+02 -0.32559154836E+03  0.32673922922E+03  0.00000000000E+00 0.  1.
          1    1    3    3  501    0  0.14138966143E+02  0.28948602871E+02 -0.35979165797E+03  0.36123118514E+03  0.00000000000E+00 0.  1.
         -3    1    1    2    0  502 -0.25487241411E+02 -0.53846076603E+02 -0.31049144949E+03  0.31615492982E+03  0.00000000000E+00 0. -1.
<mgrwt>
<rscale>  1 0.30000000E+03</rscale>
<asrwt>0</asrwt>
<pdfrwt beam="1">  1       21 0.15001283E-01 0.30000000E+03</pdfrwt>
<pdfrwt beam="2">0</pdfrwt>
<totfact> 0.41173841E+03</totfact>
</mgrwt>
</event>
<event>
 6    1  0.1274196E-001  0.3000000E+03  0.7818608E-02  0.1093470E+00
         21   -1    0    0  501  502  0.00000000000E+00  0.00000000000E+00  0.31151781976E+01  0.31151781976E+01  0.00000000000E+00 0. -1.
         13   -1    0    0    0    0 -0.00000000000E+00 -0.00000000000E+00 -0.10000000000E+04  0.10000000000E+04  0.00000000000E+00 0.  1.
    9000005    2    1    2  501    0  0.84319501809E+01  0.38277635124E+02 -0.85535100816E+03  0.85625437493E+03  0.31515517539E+01 0.  0.
         13    1    3    3    0    0  0.56883164435E+01  0.31239534971E+02 -0.69999586212E+03  0.70071568591E+03  0.00000000000E+00 0.  1.
          1    1    3    3  501    0  0.27436337374E+01  0.70381001531E+01 -0.15535514604E+03  0.15553868902E+03  0.00000000000E+00 0.  1.
         -3    1    1    2    0  502 -0.84319501809E+01 -0.38277635124E+02 -0.14153381364E+03  0.14686080327E+03  0.00000000000E+00 0. -1.
<mgrwt>
<rscale>  1 0.30000000E+03</rscale>
<asrwt>0</asrwt>
<pdfrwt beam="1">  1       21 0.11327945E-01 0.30000000E+03</pdfrwt>
<pdfrwt beam="2">0</pdfrwt>
<totfact> 0.68782048E+03</totfact>
</mgrwt>
</event>
<event>
 6    1  0.1274196E-001  0.3000000E+03  0.7818608E-02  0.1093470E+00
         21   -1    0    0  501  502  0.00000000000E+00  0.00000000000E+00  0.34557373843E+01  0.34557373843E+01  0.00000000000E+00 0. -1.
         13   -1    0    0    0    0 -0.00000000000E+00 -0.00000000000E+00 -0.10000000000E+04  0.10000000000E+04  0.00000000000E+00 0.  1.
    9000005    2    1    2  501    0 -0.21808524361E+02  0.24715285753E+02 -0.91361618402E+03  0.91421716218E+03  0.34685499665E+01 0.  0.
         13    1    3    3    0    0 -0.36785301124E+01  0.60879111570E+01 -0.21454577513E+03  0.21466365289E+03  0.00000000000E+00 0.  1.
          3    1    3    3  501    0 -0.18129994249E+02  0.18627374596E+02 -0.69907040889E+03  0.69955350929E+03  0.00000000000E+00 0.  1.
         -1    1    1    2    0  502  0.21808524361E+02 -0.24715285753E+02 -0.82928078594E+02  0.89238575201E+02  0.00000000000E+00 0. -1.
<mgrwt>
<rscale>  1 0.30000000E+03</rscale>
<asrwt>0</asrwt>
<pdfrwt beam="1">  1       21 0.12566344E-01 0.30000000E+03</pdfrwt>
<pdfrwt beam="2">0</pdfrwt>
<totfact> 0.56984777E+03</totfact>
</mgrwt>
</event>
<event>
 6    1  0.1274196E-001  0.3000000E+03  0.7818608E-02  0.1093470E+00
         21   -1    0    0  501  502  0.00000000000E+00  0.00000000000E+00  0.23165298795E+01  0.23165298795E+01  0.00000000000E+00 0. -1.
         13   -1    0    0    0    0 -0.00000000000E+00 -0.00000000000E+00 -0.10000000000E+04  0.10000000000E+04  0.00000000000E+00 0.  1.
    9000005    2    1    2  501    0  0.31905330578E+02  0.52584132223E+01 -0.86981871713E+03  0.87042643894E+03  0.34617797445E+01 0.  0.
         13    1    3    3    0    0  0.49540387932E+01 -0.36867892841E+00 -0.12225050800E+03  0.12235140020E+03  0.00000000000E+00 0.  1.
          1    1    3    3  501    0  0.26951291785E+02  0.56270921507E+01 -0.74756820913E+03  0.74807503874E+03  0.00000000000E+00 0.  1.
         -1    1    1    2    0  502 -0.31905330578E+02 -0.52584132223E+01 -0.12786475299E+03  0.13189009094E+03  0.00000000000E+00 0. -1.
<mgrwt>
<rscale>  1 0.30000000E+03</rscale>
<asrwt>0</asrwt>
<pdfrwt beam="1">  1       21 0.84237628E-02 0.30000000E+03</pdfrwt>
<pdfrwt beam="2">0</pdfrwt>
<totfact> 0.11665063E+04</totfact>
</mgrwt>
</event>
<event>
 6    1  0.1274196E-001  0.3000000E+03  0.7818608E-02  0.1093470E+00
         21   -1    0    0  501  502  0.00000000000E+00  0.00000000000E+00  0.25233202336E+01  0.25233202336E+01  0.00000000000E+00 0. -1.
         13   -1    0    0    0    0 -0.00000000000E+00 -0.00000000000E+00 -0.10000000000E+04  0.10000000000E+04  0.00000000000E+00 0.  1.
    9000005    2    1    2  501    0  0.19942597807E+02 -0.26361657567E+02 -0.12256356121E+03  0.12698599424E+03  0.33124006576E+01 0.  0.
         13    1    3    3    0    0  0.15703205379E+02 -0.22457069222E+02 -0.10389087167E+03  0.10744404978E+03  0.00000000000E+00 0.  1.
          1    1    3    3  501    0  0.42393924278E+01 -0.39045883446E+01 -0.18672689544E+02  0.19541944456E+02  0.00000000000E+00 0.  1.
         -3    1    1    2    0  502 -0.19942597807E+02  0.26361657567E+02 -0.87491311855E+03  0.87553732600E+03  0.00000000000E+00 0. -1.
<mgrwt>
<rscale>  1 0.30000000E+03</rscale>
<asrwt>0</asrwt>
<pdfrwt beam="1">  1       21 0.91757293E-02 0.30000000E+03</pdfrwt>
<pdfrwt beam="2">0</pdfrwt>
<totfact> 0.10028256E+04</totfact>
</mgrwt>
</event>
<event>
 6    1  0.1274196E-001  0.3000000E+03  0.7818608E-02  0.1093470E+00
         21   -1    0    0  501  502  0.00000000000E+00  0.00000000000E+00  0.16730385369E+01  0.16730385369E+01  0.00000000000E+00 0. -1.
         13   -1    0    0    0    0 -0.00000000000E+00 -0.00000000000E+00 -0.10000000000E+04  0.10000000000E+04  0.00000000000E+00 0.  1.
    9000005    2    1    2  501    0  0.28338990310E+02 -0.24032650535E+02 -0.29313522084E+03  0.29550304647E+03  0.36229971213E+01 0.  0.
         13    1    3    3    0    0  0.20527797095E+02 -0.16225256403E+02 -0.19474889460E+03  0.19649880750E+03  0.00000000000E+00 0.  1.
          3    1    3    3  501    0  0.78111932142E+01 -0.78073941321E+01 -0.98386326242E+02  0.99004238970E+02  0.00000000000E+00 0.  1.
         -3    1    1    2    0  502 -0.28338990310E+02  0.24032650535E+02 -0.70519174062E+03  0.70616999207E+03  0.00000000000E+00 0. -1.
<mgrwt>
<rscale>  1 0.30000000E+03</rscale>
<asrwt>0</asrwt>
<pdfrwt beam="1">  1       21 0.60837893E-02 0.30000000E+03</pdfrwt>
<pdfrwt beam="2">0</pdfrwt>
<totfact> 0.20573518E+04</totfact>
</mgrwt>
</event>
<event>
 6    1  0.1274196E-001  0.3000000E+03  0.7818608E-02  0.1093470E+00
         21   -1    0    0  501  502  0.00000000000E+00  0.00000000000E+00  0.16713593611E+01  0.16713593611E+01  0.00000000000E+00 0. -1.
         13   -1    0    0    0    0 -0.00000000000E+00 -0.00000000000E+00 -0.10000000000E+04  0.10000000000E+04  0.00000000000E+00 0.  1.
    9000005    2    1    2  501    0  0.59760824010E+01 -0.34945082954E+02 -0.74770507644E+03  0.74855272449E+03  0.33804784866E+01 0.  0.
         13    1    3    3    0    0  0.56054547881E+01 -0.23693312686E+02 -0.51858986636E+03  0.51916109608E+03  0.00000000000E+00 0.  1.
          1    1    3    3  501    0  0.37062761286E+00 -0.11251770268E+02 -0.22911521007E+03  0.22939162841E+03  0.00000000000E+00 0.  1.
         -1    1    1    2    0  502 -0.59760824010E+01  0.34945082954E+02 -0.25062356420E+03  0.25311863487E+03  0.00000000000E+00 0. -1.
<mgrwt>
<rscale>  1 0.30000000E+03</rscale>
<asrwt>0</asrwt>
<pdfrwt beam="1">  1       21 0.60776832E-02 0.30000000E+03</pdfrwt>
<pdfrwt beam="2">0</pdfrwt>
<totfact> 0.20609199E+04</totfact>
</mgrwt>
</event>
<event>
 6    1  0.1274196E-001  0.3000000E+03  0.7818608E-02  0.1093470E+00
         21   -1    0    0  501  502  0.00000000000E+00  0.00000000000E+00  0.97618615277E+00  0.97618615277E+00  0.00000000000E+00 0. -1.
         13   -1    0    0    0    0 -0.00000000000E+00 -0.00000000000E+00 -0.10000000000E+04  0.10000000000E+04  0.00000000000E+00 0.  1.
    9000005    2    1    2  501    0 -0.38183364562E+00 -0.30741116735E+02 -0.42233851518E+03  0.42347199071E+03  0.36801435345E+01 0.  0.
         13    1    3    3    0    0 -0.61364433436E+00 -0.12200522420E+02 -0.14450010389E+03  0.14501554859E+03  0.00000000000E+00 0.  1.
          3    1    3    3  501    0  0.23181068874E+00 -0.18540594315E+02 -0.27783841128E+03  0.27845644212E+03  0.00000000000E+00 0.  1.
         -3    1    1    2    0  502  0.38183364562E+00  0.30741116735E+02 -0.57668529867E+03  0.57750419544E+03  0.00000000000E+00 0. -1.
<mgrwt>
<rscale>  1 0.30000000E+03</rscale>
<asrwt>0</asrwt>
<pdfrwt beam="1">  1       21 0.35497753E-02 0.30000000E+03</pdfrwt>
<pdfrwt beam="2">0</pdfrwt>
<totfact> 0.51386603E+04</totfact>
</mgrwt>
</event>
<event>
 6    1  0.1274196E-001  0.3000000E+03  0.7818608E-02  0.1093470E+00
         21   -1    0    0  501  502  0.00000000000E+00  0.00000000000E+00  0.51503894103E+01  0.51503894103E+01  0.00000000000E+00 0. -1.
         13   -1    0    0    0    0 -0.00000000000E+00 -0.00000000000E+00 -0.10000000000E+04  0.10000000000E+04  0.00000000000E+00 0.  1.
    9000005    2    1    2  501    0 -0.60122091276E+02  0.19583056236E+02 -0.26042143518E+03  0.26800528376E+03  0.30571670518E+01 0.  0.
         13    1    3    3    0    0 -0.19567911768E+02  0.71572101226E+01 -0.91064409562E+02  0.93417640286E+02  0.00000000000E+00 0.  1.
          3    1    3    3  501    0 -0.40554179508E+02  0.12425846113E+02 -0.16935702562E+03  0.17458764348E+03  0.00000000000E+00 0.  1.
         -3    1    1    2    0  502  0.60122091276E+02 -0.19583056236E+02 -0.73442817540E+03  0.73714510565E+03  0.00000000000E+00 0. -1.
<mgrwt>
<rscale>  1 0.30000000E+03</rscale>
<asrwt>0</asrwt>
<pdfrwt beam="1">  1       21 0.18728728E-01 0.30000000E+03</pdfrwt>
<pdfrwt beam="2">0</pdfrwt>
<totfact> 0.27181091E+03</totfact>
</mgrwt>
</event>
<event>
 6    1  0.1274196E-001  0.3000000E+03  0.7818608E-02  0.1093470E+00
         21   -1    0    0  501  502  0.00000000000E+00  0.00000000000E+00  0.15120293000E+01  0.15120293000E+01  0.00000000000E+00 0. -1.
         13   -1    0    0    0    0 -0.00000000000E+00 -0.00000000000E+00 -0.10000000000E+04  0.10000000000E+04  0.00000000000E+00 0.  1.
    9000005    2    1    2  501    0 -0.24015788565E+02 -0.22000196108E+02 -0.77213636681E+03  0.77282924614E+03  0.31157684407E+01 0.  0.
         13    1    3    3    0    0 -0.21827968515E+02 -0.20712722150E+02 -0.72561675246E+03  0.72624042060E+03  0.00000000000E+00 0.  1.
          1    1    3    3  501    0 -0.21878200500E+01 -0.12874739578E+01 -0.46519614355E+02  0.46588825543E+02  0.00000000000E+00 0.  1.
         -1    1    1    2    0  502  0.24015788565E+02  0.22000196108E+02 -0.22635160389E+03  0.22868278316E+03  0.00000000000E+00 0. -1.
<mgrwt>
<rscale>  1 0.30000000E+03</rscale>
<asrwt>0</asrwt>
<pdfrwt beam="1">  1       21 0.54983000E-02 0.30000000E+03</pdfrwt>
<pdfrwt beam="2">0</pdfrwt>
<totfact> 0.24487126E+04</totfact>
</mgrwt>
</event>
<event>
 6    1  0.1274196E-001  0.3000000E+03  0.7818608E-02  0.1093470E+00
         21   -1    0    0  501  502  0.00000000000E+00  0.00000000000E+00  0.50883126173E+01  0.50883126173E+01  0.00000000000E+00 0. -1.
         13   -1    0    0    0    0 -0.00000000000E+00 -0.00000000000E+00 -0.10000000000E+04  0.10000000000E+04  0.00000000000E+00 0.  1.
    9000005    2    1    2  501    0 -0.54891690659E+02 -0.27490964691E+01 -0.81758839981E+03  0.81944294222E+03  0.39100912164E+01 0.  0.
         13    1    3    3    0    0 -0.13004886012E+02  0.88718263102E+00 -0.18427483623E+03  0.18473529555E+03  0.00000000000E+00 0.  1.
          1    1    3    3  501    0 -0.41886804648E+02 -0.36362791001E+01 -0.63331356358E+03  0.63470764667E+03  0.00000000000E+00 0.  1.
         -3    1    1    2    0  502  0.54891690659E+02  0.27490964691E+01 -0.17732328757E+03  0.18564537039E+03  0.00000000000E+00 0. -1.
<mgrwt>
<rscale>  1 0.30000000E+03</rscale>
<asrwt>0</asrwt>
<pdfrwt beam="1">  1       21 0.18502994E-01 0.30000000E+03</pdfrwt>
<pdfrwt beam="2">0</pdfrwt>
<totfact> 0.27811433E+03</totfact>
</mgrwt>
</event>
<event>
 6    1  0.1274196E-001  0.3000000E+03  0.7818608E-02  0.1093470E+00
         21   -1    0    0  501  502  0.00000000000E+00  0.00000000000E+00  0.15699044069E+01  0.15699044069E+01  0.00000000000E+00 0. -1.
         13   -1    0    0    0    0 -0.00000000000E+00 -0.00000000000E+00 -0.10000000000E+04  0.10000000000E+04  0.00000000000E+00 0.  1.
    9000005    2    1    2  501    0 -0.36384334905E+02 -0.11871214804E+02 -0.62670410298E+03  0.62787891020E+03  0.30245022882E+01 0.  0.
         13    1    3    3    0    0 -0.72401464294E+00 -0.24573828862E+00 -0.21554091357E+02  0.21567647965E+02  0.00000000000E+00 0.  1.
          3    1    3    3  501    0 -0.35660320262E+02 -0.11625476516E+02 -0.60515001162E+03  0.60631126223E+03  0.00000000000E+00 0.  1.
         -3    1    1    2    0  502  0.36384334905E+02  0.11871214804E+02 -0.37172599262E+03  0.37369099421E+03  0.00000000000E+00 0. -1.
<mgrwt>
<rscale>  1 0.30000000E+03</rscale>
<asrwt>0</asrwt>
<pdfrwt beam="1">  1       21 0.57087553E-02 0.30000000E+03</pdfrwt>
<pdfrwt beam="2">0</pdfrwt>
<totfact> 0.22957586E+04</totfact>
</mgrwt>
</event>
<event>
 6    1  0.1274196E-001  0.3000000E+03  0.7818608E-02  0.1093470E+00
         21   -1    0    0  501  502  0.00000000000E+00  0.00000000000E+00  0.13064535368E+01  0.13064535368E+01  0.00000000000E+00 0. -1.
         13   -1    0    0    0    0 -0.00000000000E+00 -0.00000000000E+00 -0.10000000000E+04  0.10000000000E+04  0.00000000000E+00 0.  1.
    9000005    2    1    2  501    0 -0.25801923504E+02  0.25129638855E+02 -0.47065796912E+03  0.47204393933E+03  0.30526636589E+01 0.  0.
         13    1    3    3    0    0 -0.10506330579E+02  0.10491139654E+02 -0.21377577517E+03  0.21429075819E+03  0.00000000000E+00 0.  1.
          3    1    3    3  501    0 -0.15295592925E+02  0.14638499201E+02 -0.25688219395E+03  0.25775318115E+03  0.00000000000E+00 0.  1.
         -3    1    1    2    0  502  0.25801923504E+02 -0.25129638855E+02 -0.52803557734E+03  0.52926251420E+03  0.00000000000E+00 0. -1.
<mgrwt>
<rscale>  1 0.30000000E+03</rscale>
<asrwt>0</asrwt>
<pdfrwt beam="1">  1       21 0.47507502E-02 0.30000000E+03</pdfrwt>
<pdfrwt beam="2">0</pdfrwt>
<totfact> 0.31425108E+04</totfact>
</mgrwt>
</event>
<event>
 6    1  0.1274196E-001  0.3000000E+03  0.7818608E-02  0.1093470E+00
         21   -1    0    0  501  502  0.00000000000E+00  0.00000000000E+00  0.37247118521E+01  0.37247118521E+01  0.00000000000E+00 0. -1.
         13   -1    0    0    0    0 -0.00000000000E+00 -0.00000000000E+00 -0.10000000000E+04  0.10000000000E+04  0.00000000000E+00 0.  1.
    9000005    2    1    2  501    0  0.15653656482E+02  0.51376488761E+02 -0.73323908102E+03  0.73526125658E+03  0.92187269974E+01 0.  0.
         13    1    3    3    0    0  0.12936172346E+02  0.49562818924E+02 -0.69118001937E+03  0.69307549138E+03  0.00000000000E+00 0.  1.
          3    1    3    3  501    0  0.27174841351E+01  0.18136698377E+01 -0.42059061651E+02  0.42185765197E+02  0.00000000000E+00 0.  1.
         -1    1    1    2    0  502 -0.15653656482E+02 -0.51376488761E+02 -0.26303620713E+03  0.26846345528E+03  0.00000000000E+00 0. -1.
<mgrwt>
<rscale>  1 0.30000000E+03</rscale>
<asrwt>0</asrwt>
<pdfrwt beam="1">  1       21 0.13544435E-01 0.30000000E+03</pdfrwt>
<pdfrwt beam="2">0</pdfrwt>
<totfact> 0.49693000E+03</totfact>
</mgrwt>
</event>
<event>
 6    1  0.1274196E-001  0.3000000E+03  0.7818608E-02  0.1093470E+00
         21   -1    0    0  501  502  0.00000000000E+00  0.00000000000E+00  0.86906140691E+01  0.86906140691E+01  0.00000000000E+00 0. -1.
         13   -1    0    0    0    0 -0.00000000000E+00 -0.00000000000E+00 -0.10000000000E+04  0.10000000000E+04  0.00000000000E+00 0.  1.
    9000005    2    1    2  501    0 -0.54638670748E+02  0.53482764093E+02 -0.78394073335E+03  0.78767579902E+03  0.49295605317E+01 0.  0.
         13    1    3    3    0    0 -0.26987258753E+02  0.24020011776E+02 -0.35193981522E+03  0.35378935349E+03  0.00000000000E+00 0.  1.
          1    1    3    3  501    0 -0.27651411996E+02  0.29462752317E+02 -0.43200091812E+03  0.43388644554E+03  0.00000000000E+00 0.  1.
         -1    1    1    2    0  502  0.54638670748E+02 -0.53482764093E+02 -0.20736865258E+03  0.22101481505E+03  0.00000000000E+00 0. -1.
<mgrwt>
<rscale>  1 0.30000000E+03</rscale>
<asrwt>0</asrwt>
<pdfrwt beam="1">  1       21 0.31602300E-01 0.30000000E+03</pdfrwt>
<pdfrwt beam="2">0</pdfrwt>
<totfact> 0.97938907E+02</totfact>
</mgrwt>
</event>
<event>
 6    1  0.1274196E-001  0.3000000E+03  0.7818608E-02  0.1093470E+00
         21   -1    0    0  501  502  0.00000000000E+00  0.00000000000E+00  0.10406875277E+01  0.10406875277E+01  0.00000000000E+00 0. -1.
         13   -1    0    0    0    0 -0.00000000000E+00 -0.00000000000E+00 -0.10000000000E+04  0.10000000000E+04  0.00000000000E+00 0.  1.
    9000005    2    1    2  501    0 -0.20646888407E+02  0.24629912626E+02 -0.51975577240E+03  0.52076060319E+03  0.35519419272E+01 0.  0.
         13    1    3    3    0    0 -0.20733269161E+02  0.24218180392E+02 -0.51519489646E+03  0.51618036581E+03  0.00000000000E+00 0.  1.
          1    1    3    3  501    0  0.86380754133E-01  0.41173223394E+00 -0.45608759488E+01  0.45802373833E+01  0.00000000000E+00 0.  1.
         -3    1    1    2    0  502  0.20646888407E+02 -0.24629912626E+02 -0.47920354007E+03  0.48028008434E+03  0.00000000000E+00 0. -1.
<mgrwt>
<rscale>  1 0.30000000E+03</rscale>
<asrwt>0</asrwt>
<pdfrwt beam="1">  1       21 0.37843263E-02 0.30000000E+03</pdfrwt>
<pdfrwt beam="2">0</pdfrwt>
<totfact> 0.46155464E+04</totfact>
</mgrwt>
</event>
<event>
 6    1  0.1274196E-001  0.3000000E+03  0.7818608E-02  0.1093470E+00
         21   -1    0    0  501  502  0.00000000000E+00  0.00000000000E+00  0.37281317146E+01  0.37281317146E+01  0.00000000000E+00 0. -1.
         13   -1    0    0    0    0 -0.00000000000E+00 -0.00000000000E+00 -0.10000000000E+04  0.10000000000E+04  0.00000000000E+00 0.  1.
    9000005    2    1    2  501    0 -0.47209566967E+02  0.16413712716E+02 -0.78616371836E+03  0.78775686547E+03  0.30551351223E+01 0.  0.
         13    1    3    3    0    0 -0.40113274845E+02  0.13570020309E+02 -0.64863729983E+03  0.65001812821E+03  0.00000000000E+00 0.  1.
          3    1    3    3  501    0 -0.70962921222E+01  0.28436924070E+01 -0.13752641853E+03  0.13773873726E+03  0.00000000000E+00 0.  1.
         -3    1    1    2    0  502  0.47209566967E+02 -0.16413712716E+02 -0.21010814992E+03  0.21597126624E+03  0.00000000000E+00 0. -1.
<mgrwt>
<rscale>  1 0.30000000E+03</rscale>
<asrwt>0</asrwt>
<pdfrwt beam="1">  1       21 0.13556871E-01 0.30000000E+03</pdfrwt>
<pdfrwt beam="2">0</pdfrwt>
<totfact> 0.49609521E+03</totfact>
</mgrwt>
</event>
<event>
 6    1  0.1274196E-001  0.3000000E+03  0.7818608E-02  0.1093470E+00
         21   -1    0    0  501  502  0.00000000000E+00  0.00000000000E+00  0.41771493264E+01  0.41771493264E+01  0.00000000000E+00 0. -1.
         13   -1    0    0    0    0 -0.00000000000E+00 -0.00000000000E+00 -0.10000000000E+04  0.10000000000E+04  0.00000000000E+00 0.  1.
    9000005    2    1    2  501    0 -0.22403421921E+02  0.28841488163E+02 -0.91208296911E+03  0.91282008875E+03  0.33804035552E+01 0.  0.
         13    1    3    3    0    0 -0.19511538844E+02  0.23059330872E+02 -0.74541980550E+03  0.74603158065E+03  0.00000000000E+00 0.  1.
          3    1    3    3  501    0 -0.28918830774E+01  0.57821572911E+01 -0.16666316361E+03  0.16678850810E+03  0.00000000000E+00 0.  1.
         -1    1    1    2    0  502  0.22403421921E+02 -0.28841488163E+02 -0.83739881564E+02  0.91357060579E+02  0.00000000000E+00 0. -1.
<mgrwt>
<rscale>  1 0.30000000E+03</rscale>
<asrwt>0</asrwt>
<pdfrwt beam="1">  1       21 0.15189666E-01 0.30000000E+03</pdfrwt>
<pdfrwt beam="2">0</pdfrwt>
<totfact> 0.40232979E+03</totfact>
</mgrwt>
</event>
<event>
 6    1  0.1274196E-001  0.3000000E+03  0.7818608E-02  0.1093470E+00
         21   -1    0    0  501  502  0.00000000000E+00  0.00000000000E+00  0.12287992140E+01  0.12287992140E+01  0.00000000000E+00 0. -1.
         13   -1    0    0    0    0 -0.00000000000E+00 -0.00000000000E+00 -0.10000000000E+04  0.10000000000E+04  0.00000000000E+00 0.  1.
    9000005    2    1    2  501    0 -0.14246357515E+02 -0.31645317397E+02 -0.44136386344E+03  0.44274216147E+03  0.37652056470E+01 0.  0.
         13    1    3    3    0    0 -0.40505170709E+01 -0.10916334335E+02 -0.16880829687E+03  0.16920937957E+03  0.00000000000E+00 0.  1.
          3    1    3    3  501    0 -0.10195840444E+02 -0.20728983062E+02 -0.27255556658E+03  0.27353278190E+03  0.00000000000E+00 0.  1.
         -1    1    1    2    0  502  0.14246357515E+02  0.31645317397E+02 -0.55740733734E+03  0.55848663774E+03  0.00000000000E+00 0. -1.
<mgrwt>
<rscale>  1 0.30000000E+03</rscale>
<asrwt>0</asrwt>
<pdfrwt beam="1">  1       21 0.44683702E-02 0.30000000E+03</pdfrwt>
<pdfrwt beam="2">0</pdfrwt>
<totfact> 0.34872993E+04</totfact>
</mgrwt>
</event>
<event>
 6    1  0.1274196E-001  0.3000000E+03  0.7818608E-02  0.1093470E+00
         21   -1    0    0  501  502  0.00000000000E+00  0.00000000000E+00  0.25561028351E+01  0.25561028351E+01  0.00000000000E+00 0. -1.
         13   -1    0    0    0    0 -0.00000000000E+00 -0.00000000000E+00 -0.10000000000E+04  0.10000000000E+04  0.00000000000E+00 0.  1.
    9000005    2    1    2  501    0 -0.16071310500E+02 -0.29200510667E+02 -0.87528165772E+03  0.87592842185E+03  0.46543556739E+01 0.  0.
         13    1    3    3    0    0 -0.14128796701E+02 -0.23636499232E+02 -0.75583184283E+03  0.75633331384E+03  0.00000000000E+00 0.  1.
          1    1    3    3  501    0 -0.19425137990E+01 -0.55640114350E+01 -0.11944981489E+03  0.11959510801E+03  0.00000000000E+00 0.  1.
         -3    1    1    2    0  502  0.16071310500E+02  0.29200510667E+02 -0.12216223945E+03  0.12662768098E+03  0.00000000000E+00 0. -1.
<mgrwt>
<rscale>  1 0.30000000E+03</rscale>
<asrwt>0</asrwt>
<pdfrwt beam="1">  1       21 0.92949390E-02 0.30000000E+03</pdfrwt>
<pdfrwt beam="2">0</pdfrwt>
<totfact> 0.98009682E+03</totfact>
</mgrwt>
</event>
<event>
 6    1  0.1274196E-001  0.3000000E+03  0.7818608E-02  0.1093470E+00
         21   -1    0    0  501  502  0.00000000000E+00  0.00000000000E+00  0.27519589406E+01  0.27519589406E+01  0.00000000000E+00 0. -1.
         13   -1    0    0    0    0 -0.00000000000E+00 -0.00000000000E+00 -0.10000000000E+04  0.10000000000E+04  0.00000000000E+00 0.  1.
    9000005    2    1    2  501    0  0.37652688036E+02 -0.35167194310E+02 -0.43536580497E+03  0.43851255612E+03  0.97683805355E+01 0.  0.
         13    1    3    3    0    0  0.36056678713E+02 -0.30347432562E+02 -0.37909832772E+03  0.38201648239E+03  0.00000000000E+00 0.  1.
          3    1    3    3  501    0  0.15960093233E+01 -0.48197617485E+01 -0.56267477258E+02  0.56496073723E+02  0.00000000000E+00 0.  1.
         -1    1    1    2    0  502 -0.37652688036E+02  0.35167194310E+02 -0.56188223609E+03  0.56423940283E+03  0.00000000000E+00 0. -1.
<mgrwt>
<rscale>  1 0.30000000E+03</rscale>
<asrwt>0</asrwt>
<pdfrwt beam="1">  1       21 0.10007145E-01 0.30000000E+03</pdfrwt>
<pdfrwt beam="2">0</pdfrwt>
<totfact> 0.85922254E+03</totfact>
</mgrwt>
</event>
<event>
 6    1  0.1274196E-001  0.3000000E+03  0.7818608E-02  0.1093470E+00
         21   -1    0    0  501  502  0.00000000000E+00  0.00000000000E+00  0.16194672542E+01  0.16194672542E+01  0.00000000000E+00 0. -1.
         13   -1    0    0    0    0 -0.00000000000E+00 -0.00000000000E+00 -0.10000000000E+04  0.10000000000E+04  0.00000000000E+00 0.  1.
    9000005    2    1    2  501    0  0.99525333082E+01  0.31946881692E+02 -0.77693793455E+03  0.77766304188E+03  0.27561566879E+01 0.  0.
         13    1    3    3    0    0  0.10049903125E+02  0.30303709872E+02 -0.73706383221E+03  0.73775497838E+03  0.00000000000E+00 0.  1.
          3    1    3    3  501    0 -0.97369816344E-01  0.16431718200E+01 -0.39874102346E+02  0.39908063501E+02  0.00000000000E+00 0.  1.
         -1    1    1    2    0  502 -0.99525333082E+01 -0.31946881692E+02 -0.22144259820E+03  0.22395642537E+03  0.00000000000E+00 0. -1.
<mgrwt>
<rscale>  1 0.30000000E+03</rscale>
<asrwt>0</asrwt>
<pdfrwt beam="1">  1       21 0.58889843E-02 0.30000000E+03</pdfrwt>
<pdfrwt beam="2">0</pdfrwt>
<totfact> 0.21761167E+04</totfact>
</mgrwt>
</event>
<event>
 6    1  0.1274196E-001  0.3000000E+03  0.7818608E-02  0.1093470E+00
         21   -1    0    0  501  502  0.00000000000E+00  0.00000000000E+00  0.13460320543E+01  0.13460320543E+01  0.00000000000E+00 0. -1.
         13   -1    0    0    0    0 -0.00000000000E+00 -0.00000000000E+00 -0.10000000000E+04  0.10000000000E+04  0.00000000000E+00 0.  1.
    9000005    2    1    2  501    0 -0.37109608490E+01 -0.35219860314E+02 -0.37954941511E+03  0.38122938404E+03  0.48862011250E+01 0.  0.
         13    1    3    3    0    0 -0.42623460453E+01 -0.18644805751E+02 -0.21227458523E+03  0.21313445501E+03  0.00000000000E+00 0.  1.
          1    1    3    3  501    0  0.55138519626E+00 -0.16575054563E+02 -0.16727482987E+03  0.16809492904E+03  0.00000000000E+00 0.  1.
         -3    1    1    2    0  502  0.37109608490E+01  0.35219860314E+02 -0.61910455284E+03  0.62011664801E+03  0.00000000000E+00 0. -1.
<mgrwt>
<rscale>  1 0.30000000E+03</rscale>
<asrwt>0</asrwt>
<pdfrwt beam="1">  1       21 0.48946723E-02 0.30000000E+03</pdfrwt>
<pdfrwt beam="2">0</pdfrwt>
<totfact> 0.29868761E+04</totfact>
</mgrwt>
</event>
<event>
 6    1  0.1274196E-001  0.3000000E+03  0.7818608E-02  0.1093470E+00
         21   -1    0    0  501  502  0.00000000000E+00  0.00000000000E+00  0.23171780964E+01  0.23171780964E+01  0.00000000000E+00 0. -1.
         13   -1    0    0    0    0 -0.00000000000E+00 -0.00000000000E+00 -0.10000000000E+04  0.10000000000E+04  0.00000000000E+00 0.  1.
    9000005    2    1    2  501    0 -0.13190374426E+02 -0.38186562509E+02 -0.76966092543E+03  0.77074389638E+03  0.60011780912E+01 0.  0.
         13    1    3    3    0    0 -0.34989460628E+01 -0.83299585425E+01 -0.13029857865E+03  0.13061144832E+03  0.00000000000E+00 0.  1.
          3    1    3    3  501    0 -0.96914283635E+01 -0.29856603966E+02 -0.63936234678E+03  0.64013244807E+03  0.00000000000E+00 0.  1.
         -3    1    1    2    0  502  0.13190374426E+02  0.38186562509E+02 -0.22802189647E+03  0.23157328171E+03  0.00000000000E+00 0. -1.
<mgrwt>
<rscale>  1 0.30000000E+03</rscale>
<asrwt>0</asrwt>
<pdfrwt beam="1">  1       21 0.84261199E-02 0.30000000E+03</pdfrwt>
<pdfrwt beam="2">0</pdfrwt>
<totfact> 0.11659313E+04</totfact>
</mgrwt>
</event>
<event>
 6    1  0.1274196E-001  0.3000000E+03  0.7818608E-02  0.1093470E+00
         21   -1    0    0  501  502  0.00000000000E+00  0.00000000000E+00  0.21603198060E+01  0.21603198060E+01  0.00000000000E+00 0. -1.
         13   -1    0    0    0    0 -0.00000000000E+00 -0.00000000000E+00 -0.10000000000E+04  0.10000000000E+04  0.00000000000E+00 0.  1.
    9000005    2    1    2  501    0 -0.25331629311E+02  0.18848736143E+02 -0.14102205797E+03  0.14476111054E+03  0.84612051557E+01 0.  0.
         13    1    3    3    0    0 -0.99912323876E+01  0.11616903701E+02 -0.78392666112E+02  0.79876074493E+02  0.00000000000E+00 0.  1.
          1    1    3    3  501    0 -0.15340396923E+02  0.72318324419E+01 -0.62629391854E+02  0.64885036043E+02  0.00000000000E+00 0.  1.
         -3    1    1    2    0  502  0.25331629311E+02 -0.18848736143E+02 -0.85681762223E+03  0.85739920927E+03  0.00000000000E+00 0. -1.
<mgrwt>
<rscale>  1 0.30000000E+03</rscale>
<asrwt>0</asrwt>
<pdfrwt beam="1">  1       21 0.78557250E-02 0.30000000E+03</pdfrwt>
<pdfrwt beam="2">0</pdfrwt>
<totfact> 0.13188579E+04</totfact>
</mgrwt>
</event>
<event>
 6    1  0.1274196E-001  0.3000000E+03  0.7818608E-02  0.1093470E+00
         21   -1    0    0  501  502  0.00000000000E+00  0.00000000000E+00  0.10316937233E+01  0.10316937233E+01  0.00000000000E+00 0. -1.
         13   -1    0    0    0    0 -0.00000000000E+00 -0.00000000000E+00 -0.10000000000E+04  0.10000000000E+04  0.00000000000E+00 0.  1.
    9000005    2    1    2  501    0 -0.18604614047E+02  0.23999086747E+02 -0.34147766575E+03  0.34284020927E+03  0.32132626276E+01 0.  0.
         13    1    3    3    0    0 -0.15277801334E+02  0.20881251145E+02 -0.27946743813E+03  0.28066258539E+03  0.00000000000E+00 0.  1.
          3    1    3    3  501    0 -0.33268127135E+01  0.31178356014E+01 -0.62010227626E+02  0.62177623884E+02  0.00000000000E+00 0.  1.
         -1    1    1    2    0  502  0.18604614047E+02 -0.23999086747E+02 -0.65749064052E+03  0.65819148445E+03  0.00000000000E+00 0. -1.
<mgrwt>
<rscale>  1 0.30000000E+03</rscale>
<asrwt>0</asrwt>
<pdfrwt beam="1">  1       21 0.37516215E-02 0.30000000E+03</pdfrwt>
<pdfrwt beam="2">0</pdfrwt>
<totfact> 0.46833263E+04</totfact>
</mgrwt>
</event>
<event>
 6    1  0.1274196E-001  0.3000000E+03  0.7818608E-02  0.1093470E+00
         21   -1    0    0  501  502  0.00000000000E+00  0.00000000000E+00  0.15506317685E+01  0.15506317685E+01  0.00000000000E+00 0. -1.
         13   -1    0    0    0    0 -0.00000000000E+00 -0.00000000000E+00 -0.10000000000E+04  0.10000000000E+04  0.00000000000E+00 0.  1.
    9000005    2    1    2  501    0  0.37403334022E+02 -0.99761699209E+01 -0.58685885943E+03  0.58814371323E+03  0.33426269877E+01 0.  0.
         13    1    3    3    0    0  0.74692979141E+00 -0.24066915111E+00 -0.21365915156E+02  0.21380321705E+02  0.00000000000E+00 0.  1.
          1    1    3    3  501    0  0.36656404230E+02 -0.97355007698E+01 -0.56549294428E+03  0.56676339153E+03  0.00000000000E+00 0.  1.
         -1    1    1    2    0  502 -0.37403334022E+02  0.99761699209E+01 -0.41159050880E+03  0.41340691854E+03  0.00000000000E+00 0. -1.
<mgrwt>
<rscale>  1 0.30000000E+03</rscale>
<asrwt>0</asrwt>
<pdfrwt beam="1">  1       21 0.56386729E-02 0.30000000E+03</pdfrwt>
<pdfrwt beam="2">0</pdfrwt>
<totfact> 0.23450231E+04</totfact>
</mgrwt>
</event>
<event>
 6    1  0.1274196E-001  0.3000000E+03  0.7818608E-02  0.1093470E+00
         21   -1    0    0  501  502  0.00000000000E+00  0.00000000000E+00  0.30746251088E+01  0.30746251088E+01  0.00000000000E+00 0. -1.
         13   -1    0    0    0    0 -0.00000000000E+00 -0.00000000000E+00 -0.10000000000E+04  0.10000000000E+04  0.00000000000E+00 0.  1.
    9000005    2    1    2  501    0 -0.36618542798E+02  0.41547614401E+02 -0.50542716891E+03  0.50846608452E+03  0.37435407592E+01 0.  0.
         13    1    3    3    0    0 -0.16901164316E+02  0.21985520445E+02 -0.25040492765E+03  0.25193578598E+03  0.00000000000E+00 0.  1.
          3    1    3    3  501    0 -0.19717378482E+02  0.19562093956E+02 -0.25502224126E+03  0.25653029854E+03  0.00000000000E+00 0.  1.
         -3    1    1    2    0  502  0.36618542798E+02 -0.41547614401E+02 -0.49149820598E+03  0.49460854059E+03  0.00000000000E+00 0. -1.
<mgrwt>
<rscale>  1 0.30000000E+03</rscale>
<asrwt>0</asrwt>
<pdfrwt beam="1">  1       21 0.11180479E-01 0.30000000E+03</pdfrwt>
<pdfrwt beam="2">0</pdfrwt>
<totfact> 0.70426220E+03</totfact>
</mgrwt>
</event>
<event>
 6    1  0.1274196E-001  0.3000000E+03  0.7818608E-02  0.1093470E+00
         21   -1    0    0  501  502  0.00000000000E+00  0.00000000000E+00  0.14452364914E+01  0.14452364914E+01  0.00000000000E+00 0. -1.
         13   -1    0    0    0    0 -0.00000000000E+00 -0.00000000000E+00 -0.10000000000E+04  0.10000000000E+04  0.00000000000E+00 0.  1.
    9000005    2    1    2  501    0 -0.36180354969E+02 -0.54944778546E+01 -0.63263801784E+03  0.63370310927E+03  0.30922013857E+01 0.  0.
         13    1    3    3    0    0 -0.79705335353E+01 -0.66015743549E+00 -0.11923462000E+03  0.11950255151E+03  0.00000000000E+00 0.  1.
          3    1    3    3  501    0 -0.28209821433E+02 -0.48343204191E+01 -0.51340339784E+03  0.51420055776E+03  0.00000000000E+00 0.  1.
         -1    1    1    2    0  502  0.36180354969E+02  0.54944778546E+01 -0.36591674567E+03  0.36774212722E+03  0.00000000000E+00 0. -1.
<mgrwt>
<rscale>  1 0.30000000E+03</rscale>
<asrwt>0</asrwt>
<pdfrwt beam="1">  1       21 0.52554165E-02 0.30000000E+03</pdfrwt>
<pdfrwt beam="2">0</pdfrwt>
<totfact> 0.26456257E+04</totfact>
</mgrwt>
</event>
<event>
 6    1  0.1274196E-001  0.3000000E+03  0.7818608E-02  0.1093470E+00
         21   -1    0    0  501  502  0.00000000000E+00  0.00000000000E+00  0.10894371361E+01  0.10894371361E+01  0.00000000000E+00 0. -1.
         13   -1    0    0    0    0 -0.00000000000E+00 -0.00000000000E+00 -0.10000000000E+04  0.10000000000E+04  0.00000000000E+00 0.  1.
    9000005    2    1    2  501    0 -0.18769008990E+02 -0.26641739874E+02 -0.57238012002E+03  0.57331580929E+03  0.31555338531E+01 0.  0.
         13    1    3    3    0    0 -0.68456147188E+01 -0.74914794302E+01 -0.19003469180E+03  0.19030546181E+03  0.00000000000E+00 0.  1.
          3    1    3    3  501    0 -0.11923394271E+02 -0.19150260444E+02 -0.38234542821E+03  0.38301034749E+03  0.00000000000E+00 0.  1.
         -1    1    1    2    0  502  0.18769008990E+02  0.26641739874E+02 -0.42653044285E+03  0.42777362784E+03  0.00000000000E+00 0. -1.
<mgrwt>
<rscale>  1 0.30000000E+03</rscale>
<asrwt>0</asrwt>
<pdfrwt beam="1">  1       21 0.39615979E-02 0.30000000E+03</pdfrwt>
<pdfrwt beam="2">0</pdfrwt>
<totfact> 0.42735823E+04</totfact>
</mgrwt>
</event>
<event>
 6    1  0.1274196E-001  0.3000000E+03  0.7818608E-02  0.1093470E+00
         21   -1    0    0  501  502  0.00000000000E+00  0.00000000000E+00  0.14672242009E+01  0.14672242009E+01  0.00000000000E+00 0. -1.
         13   -1    0    0    0    0 -0.00000000000E+00 -0.00000000000E+00 -0.10000000000E+04  0.10000000000E+04  0.00000000000E+00 0.  1.
    9000005    2    1    2  501    0  0.21053865978E+02 -0.25707531904E+02 -0.74288982114E+03  0.74367377444E+03  0.78264920349E+01 0.  0.
         13    1    3    3    0    0  0.93714511760E+01 -0.15662082184E+02 -0.34012050126E+03  0.34060986523E+03  0.00000000000E+00 0.  1.
          3    1    3    3  501    0  0.11682414802E+02 -0.10045449720E+02 -0.40276931988E+03  0.40306390921E+03  0.00000000000E+00 0.  1.
         -1    1    1    2    0  502 -0.21053865978E+02  0.25707531904E+02 -0.25564295466E+03  0.25779344976E+03  0.00000000000E+00 0. -1.
<mgrwt>
<rscale>  1 0.30000000E+03</rscale>
<asrwt>0</asrwt>
<pdfrwt beam="1">  1       21 0.53353720E-02 0.30000000E+03</pdfrwt>
<pdfrwt beam="2">0</pdfrwt>
<totfact> 0.25781814E+04</totfact>
</mgrwt>
</event>
<event>
 6    1  0.1274196E-001  0.3000000E+03  0.7818608E-02  0.1093470E+00
         21   -1    0    0  501  502  0.00000000000E+00  0.00000000000E+00  0.17744349755E+02  0.17744349755E+02  0.00000000000E+00 0. -1.
         13   -1    0    0    0    0 -0.00000000000E+00 -0.00000000000E+00 -0.10000000000E+04  0.10000000000E+04  0.00000000000E+00 0.  1.
    9000005    2    1    2  501    0 -0.37307348404E+01 -0.56651965452E+02 -0.95145100600E+03  0.95315108634E+03  0.38226951880E+01 0.  0.
         13    1    3    3    0    0 -0.35804676345E+01 -0.31304452536E+02 -0.54638122033E+03  0.54728897890E+03  0.00000000000E+00 0.  1.
          1    1    3    3  501    0 -0.15026720594E+00 -0.25347512916E+02 -0.40506978567E+03  0.40586210744E+03  0.00000000000E+00 0.  1.
         -3    1    1    2    0  502  0.37307348404E+01  0.56651965452E+02 -0.30804644248E+02  0.64593263420E+02  0.00000000000E+00 0. -1.
<mgrwt>
<rscale>  1 0.30000000E+03</rscale>
<asrwt>0</asrwt>
<pdfrwt beam="1">  1       21 0.64525044E-01 0.30000000E+03</pdfrwt>
<pdfrwt beam="2">0</pdfrwt>
<totfact> 0.21296489E+02</totfact>
</mgrwt>
</event>
<event>
 6    1  0.1274196E-001  0.3000000E+03  0.7818608E-02  0.1093470E+00
         21   -1    0    0  501  502  0.00000000000E+00  0.00000000000E+00  0.28508790695E+01  0.28508790695E+01  0.00000000000E+00 0. -1.
         13   -1    0    0    0    0 -0.00000000000E+00 -0.00000000000E+00 -0.10000000000E+04  0.10000000000E+04  0.00000000000E+00 0.  1.
    9000005    2    1    2  501    0  0.30982466689E+02  0.89869441625E+01 -0.89789300713E+03  0.89848395646E+03  0.45704881599E+01 0.  0.
         13    1    3    3    0    0  0.25058871941E+02  0.72637123280E+01 -0.77059564868E+03  0.77103719907E+03  0.00000000000E+00 0.  1.
          1    1    3    3  501    0  0.59235947471E+01  0.17232318344E+01 -0.12729735844E+03  0.12744675739E+03  0.00000000000E+00 0.  1.
         -3    1    1    2    0  502 -0.30982466689E+02 -0.89869441625E+01 -0.99256113804E+02  0.10436692261E+03  0.00000000000E+00 0. -1.
<mgrwt>
<rscale>  1 0.30000000E+03</rscale>
<asrwt>0</asrwt>
<pdfrwt beam="1">  1       21 0.10366855E-01 0.30000000E+03</pdfrwt>
<pdfrwt beam="2">0</pdfrwt>
<totfact> 0.80662148E+03</totfact>
</mgrwt>
</event>
<event>
 6    1  0.1274196E-001  0.3000000E+03  0.7818608E-02  0.1093470E+00
         21   -1    0    0  501  502  0.00000000000E+00  0.00000000000E+00  0.17708699570E+01  0.17708699570E+01  0.00000000000E+00 0. -1.
         13   -1    0    0    0    0 -0.00000000000E+00 -0.00000000000E+00 -0.10000000000E+04  0.10000000000E+04  0.00000000000E+00 0.  1.
    9000005    2    1    2  501    0  0.23389960844E+01  0.31346909466E+02 -0.83176680890E+03  0.83236660792E+03  0.31695359286E+01 0.  0.
         13    1    3    3    0    0  0.70820577312E+00  0.35213745933E+01 -0.73580903961E+02  0.73668521515E+02  0.00000000000E+00 0.  1.
          3    1    3    3  501    0  0.16307903113E+01  0.27825534873E+02 -0.75818590494E+03  0.75869808640E+03  0.00000000000E+00 0.  1.
         -1    1    1    2    0  502 -0.23389960844E+01 -0.31346909466E+02 -0.16646232114E+03  0.16940426204E+03  0.00000000000E+00 0. -1.
<mgrwt>
<rscale>  1 0.30000000E+03</rscale>
<asrwt>0</asrwt>
<pdfrwt beam="1">  1       21 0.64395407E-02 0.30000000E+03</pdfrwt>
<pdfrwt beam="2">0</pdfrwt>
<totfact> 0.18649278E+04</totfact>
</mgrwt>
</event>
<event>
 6    1  0.1274196E-001  0.3000000E+03  0.7818608E-02  0.1093470E+00
         21   -1    0    0  501  502  0.00000000000E+00  0.00000000000E+00  0.31295526447E+01  0.31295526447E+01  0.00000000000E+00 0. -1.
         13   -1    0    0    0    0 -0.00000000000E+00 -0.00000000000E+00 -0.10000000000E+04  0.10000000000E+04  0.00000000000E+00 0.  1.
    9000005    2    1    2  501    0 -0.11177171873E+02  0.37767433080E+02 -0.85444012375E+03  0.85535369110E+03  0.32716410202E+01 0.  0.
         13    1    3    3    0    0 -0.32775921852E+01  0.97185129772E+01 -0.19378268655E+03  0.19405391445E+03  0.00000000000E+00 0.  1.
          3    1    3    3  501    0 -0.78995796879E+01  0.28048920102E+02 -0.66065743719E+03  0.66129977665E+03  0.00000000000E+00 0.  1.
         -3    1    1    2    0  502  0.11177171873E+02 -0.37767433080E+02 -0.14243032361E+03  0.14777586155E+03  0.00000000000E+00 0. -1.
<mgrwt>
<rscale>  1 0.30000000E+03</rscale>
<asrwt>0</asrwt>
<pdfrwt beam="1">  1       21 0.11380215E-01 0.30000000E+03</pdfrwt>
<pdfrwt beam="2">0</pdfrwt>
<totfact> 0.68213075E+03</totfact>
</mgrwt>
</event>
<event>
 6    1  0.1274196E-001  0.3000000E+03  0.7818608E-02  0.1093470E+00
         21   -1    0    0  501  502  0.00000000000E+00  0.00000000000E+00  0.13414617837E+01  0.13414617837E+01  0.00000000000E+00 0. -1.
         13   -1    0    0    0    0 -0.00000000000E+00 -0.00000000000E+00 -0.10000000000E+04  0.10000000000E+04  0.00000000000E+00 0.  1.
    9000005    2    1    2  501    0  0.23649200885E+02  0.22743531335E+02 -0.71930399143E+03  0.72006665714E+03  0.46049658139E+01 0.  0.
         13    1    3    3    0    0  0.22443353369E+02  0.19725405612E+02 -0.65140327171E+03  0.65208819812E+03  0.00000000000E+00 0.  1.
          3    1    3    3  501    0  0.12058475159E+01  0.30181257231E+01 -0.67900719726E+02  0.67978459018E+02  0.00000000000E+00 0.  1.
         -3    1    1    2    0  502 -0.23649200885E+02 -0.22743531335E+02 -0.27935454678E+03  0.28127480465E+03  0.00000000000E+00 0. -1.
<mgrwt>
<rscale>  1 0.30000000E+03</rscale>
<asrwt>0</asrwt>
<pdfrwt beam="1">  1       21 0.48780531E-02 0.30000000E+03</pdfrwt>
<pdfrwt beam="2">0</pdfrwt>
<totfact> 0.30042256E+04</totfact>
</mgrwt>
</event>
<event>
 6    1  0.1274196E-001  0.3000000E+03  0.7818608E-02  0.1093470E+00
         21   -1    0    0  501  502  0.00000000000E+00  0.00000000000E+00  0.51810503555E+01  0.51810503555E+01  0.00000000000E+00 0. -1.
         13   -1    0    0    0    0 -0.00000000000E+00 -0.00000000000E+00 -0.10000000000E+04  0.10000000000E+04  0.00000000000E+00 0.  1.
    9000005    2    1    2  501    0 -0.26308766884E+02  0.61827566101E+02 -0.67306677609E+03  0.67648778859E+03  0.10101677401E+02 0.  0.
         13    1    3    3    0    0 -0.40674035716E+01  0.21305776774E+02 -0.20533574257E+03  0.20647820000E+03  0.00000000000E+00 0.  1.
          1    1    3    3  501    0 -0.22241363313E+02  0.40521789326E+02 -0.46773103352E+03  0.47000958859E+03  0.00000000000E+00 0.  1.
         -3    1    1    2    0  502  0.26308766884E+02 -0.61827566101E+02 -0.32175217355E+03  0.32869326177E+03  0.00000000000E+00 0. -1.
<mgrwt>
<rscale>  1 0.30000000E+03</rscale>
<asrwt>0</asrwt>
<pdfrwt beam="1">  1       21 0.18840223E-01 0.30000000E+03</pdfrwt>
<pdfrwt beam="2">0</pdfrwt>
<totfact> 0.26877448E+03</totfact>
</mgrwt>
</event>
<event>
 6    1  0.1274196E-001  0.3000000E+03  0.7818608E-02  0.1093470E+00
         21   -1    0    0  501  502  0.00000000000E+00  0.00000000000E+00  0.96326256158E+00  0.96326256158E+00  0.00000000000E+00 0. -1.
         13   -1    0    0    0    0 -0.00000000000E+00 -0.00000000000E+00 -0.10000000000E+04  0.10000000000E+04  0.00000000000E+00 0.  1.
    9000005    2    1    2  501    0 -0.30421809214E+02  0.50608165974E+01 -0.45701800590E+03  0.45806787330E+03  0.31016921797E+01 0.  0.
         13    1    3    3    0    0 -0.28650318141E+02  0.40005954829E+01 -0.42504358217E+03  0.42602686798E+03  0.00000000000E+00 0.  1.
          3    1    3    3  501    0 -0.17714910727E+01  0.10602211144E+01 -0.31974423726E+02  0.32041005322E+02  0.00000000000E+00 0.  1.
         -1    1    1    2    0  502  0.30421809214E+02 -0.50608165974E+01 -0.54201873154E+03  0.54289538926E+03  0.00000000000E+00 0. -1.
<mgrwt>
<rscale>  1 0.30000000E+03</rscale>
<asrwt>0</asrwt>
<pdfrwt beam="1">  1       21 0.35027803E-02 0.30000000E+03</pdfrwt>
<pdfrwt beam="2">0</pdfrwt>
<totfact> 0.52546890E+04</totfact>
</mgrwt>
</event>
<event>
 6    1  0.1274196E-001  0.3000000E+03  0.7818608E-02  0.1093470E+00
         21   -1    0    0  501  502  0.00000000000E+00  0.00000000000E+00  0.25826543226E+01  0.25826543226E+01  0.00000000000E+00 0. -1.
         13   -1    0    0    0    0 -0.00000000000E+00 -0.00000000000E+00 -0.10000000000E+04  0.10000000000E+04  0.00000000000E+00 0.  1.
    9000005    2    1    2  501    0 -0.36832298173E+02 -0.82504136946E+01 -0.83420931836E+03  0.83506684105E+03  0.25989750649E+01 0.  0.
         13    1    3    3    0    0 -0.40508917678E+01 -0.16924924408E+01 -0.10413538819E+03  0.10422789131E+03  0.00000000000E+00 0.  1.
          1    1    3    3  501    0 -0.32781406405E+02 -0.65579212538E+01 -0.73007393017E+03  0.73083894974E+03  0.00000000000E+00 0.  1.
         -3    1    1    2    0  502  0.36832298173E+02  0.82504136946E+01 -0.16320802732E+03  0.16751581327E+03  0.00000000000E+00 0. -1.
<mgrwt>
<rscale>  1 0.30000000E+03</rscale>
<asrwt>0</asrwt>
<pdfrwt beam="1">  1       21 0.93914901E-02 0.30000000E+03</pdfrwt>
<pdfrwt beam="2">0</pdfrwt>
<totfact> 0.96225162E+03</totfact>
</mgrwt>
</event>
<event>
 6    1  0.1274196E-001  0.3000000E+03  0.7818608E-02  0.1093470E+00
         21   -1    0    0  501  502  0.00000000000E+00  0.00000000000E+00  0.18877819559E+01  0.18877819559E+01  0.00000000000E+00 0. -1.
         13   -1    0    0    0    0 -0.00000000000E+00 -0.00000000000E+00 -0.10000000000E+04  0.10000000000E+04  0.00000000000E+00 0.  1.
    9000005    2    1    2  501    0 -0.27544319464E+02 -0.24065682070E+02 -0.76890894156E+03  0.76978438143E+03  0.30309870180E+01 0.  0.
         13    1    3    3    0    0 -0.13341836384E+02 -0.13560682554E+02 -0.38844242528E+03  0.38890797686E+03  0.00000000000E+00 0.  1.
          1    1    3    3  501    0 -0.14202483080E+02 -0.10504999516E+02 -0.38046651629E+03  0.38087640457E+03  0.00000000000E+00 0.  1.
         -1    1    1    2    0  502  0.27544319464E+02  0.24065682070E+02 -0.22920327648E+03  0.23210340053E+03  0.00000000000E+00 0. -1.
<mgrwt>
<rscale>  1 0.30000000E+03</rscale>
<asrwt>0</asrwt>
<pdfrwt beam="1">  1       21 0.68646761E-02 0.30000000E+03</pdfrwt>
<pdfrwt beam="2">0</pdfrwt>
<totfact> 0.16692441E+04</totfact>
</mgrwt>
</event>
<event>
 6    1  0.1274196E-001  0.3000000E+03  0.7818608E-02  0.1093470E+00
         21   -1    0    0  501  502  0.00000000000E+00  0.00000000000E+00  0.25710043153E+01  0.25710043153E+01  0.00000000000E+00 0. -1.
         13   -1    0    0    0    0 -0.00000000000E+00 -0.00000000000E+00 -0.10000000000E+04  0.10000000000E+04  0.00000000000E+00 0.  1.
    9000005    2    1    2  501    0  0.15336422922E+02  0.39795893182E+02 -0.76944296522E+03  0.77063017335E+03  0.30770712776E+01 0.  0.
         13    1    3    3    0    0  0.72786442522E+01  0.19640400039E+02 -0.40518437722E+03  0.40572540409E+03  0.00000000000E+00 0.  1.
          1    1    3    3  501    0  0.80577786696E+01  0.20155493142E+02 -0.36425858799E+03  0.36490476926E+03  0.00000000000E+00 0.  1.
         -3    1    1    2    0  502 -0.15336422922E+02 -0.39795893182E+02 -0.22798603047E+03  0.23194083097E+03  0.00000000000E+00 0. -1.
<mgrwt>
<rscale>  1 0.30000000E+03</rscale>
<asrwt>0</asrwt>
<pdfrwt beam="1">  1       21 0.93491263E-02 0.30000000E+03</pdfrwt>
<pdfrwt beam="2">0</pdfrwt>
<totfact> 0.97002091E+03</totfact>
</mgrwt>
</event>
<event>
 6    1  0.1274196E-001  0.3000000E+03  0.7818608E-02  0.1093470E+00
         21   -1    0    0  501  502  0.00000000000E+00  0.00000000000E+00  0.15029165854E+02  0.15029165854E+02  0.00000000000E+00 0. -1.
         13   -1    0    0    0    0 -0.00000000000E+00 -0.00000000000E+00 -0.10000000000E+04  0.10000000000E+04  0.00000000000E+00 0.  1.
    9000005    2    1    2  501    0 -0.51638052040E+02  0.25909611978E+02 -0.94009157605E+03  0.94187218247E+03  0.36387261264E+01 0.  0.
         13    1    3    3    0    0 -0.39773061837E+02  0.18966667873E+02 -0.73658788391E+03  0.73790469686E+03  0.00000000000E+00 0.  1.
          3    1    3    3  501    0 -0.11864990203E+02  0.69429441050E+01 -0.20350369215E+03  0.20396748560E+03  0.00000000000E+00 0.  1.
         -1    1    1    2    0  502  0.51638052040E+02 -0.25909611978E+02 -0.44879258091E+02  0.73156983386E+02  0.00000000000E+00 0. -1.
<mgrwt>
<rscale>  1 0.30000000E+03</rscale>
<asrwt>0</asrwt>
<pdfrwt beam="1">  1       21 0.54651627E-01 0.30000000E+03</pdfrwt>
<pdfrwt beam="2">0</pdfrwt>
<totfact> 0.30920810E+02</totfact>
</mgrwt>
</event>
<event>
 6    1  0.1274196E-001  0.3000000E+03  0.7818608E-02  0.1093470E+00
         21   -1    0    0  501  502  0.00000000000E+00  0.00000000000E+00  0.29953044020E+01  0.29953044020E+01  0.00000000000E+00 0. -1.
         13   -1    0    0    0    0 -0.00000000000E+00 -0.00000000000E+00 -0.10000000000E+04  0.10000000000E+04  0.00000000000E+00 0.  1.
    9000005    2    1    2  501    0 -0.50225877981E+01  0.31501873683E+02 -0.90585305768E+03  0.90642297126E+03  0.39046488726E+01 0.  0.
         13    1    3    3    0    0 -0.14494486674E+00  0.10211516348E+02 -0.31986378998E+03  0.32002678046E+03  0.00000000000E+00 0.  1.
          1    1    3    3  501    0 -0.48776429313E+01  0.21290357335E+02 -0.58598926770E+03  0.58639619079E+03  0.00000000000E+00 0.  1.
         -1    1    1    2    0  502  0.50225877981E+01 -0.31501873683E+02 -0.91151637920E+02  0.96572333145E+02  0.00000000000E+00 0. -1.
<mgrwt>
<rscale>  1 0.30000000E+03</rscale>
<asrwt>0</asrwt>
<pdfrwt beam="1">  1       21 0.10892039E-01 0.30000000E+03</pdfrwt>
<pdfrwt beam="2">0</pdfrwt>
<totfact> 0.73818042E+03</totfact>
</mgrwt>
</event>
<event>
 6    1  0.1274196E-001  0.3000000E+03  0.7818608E-02  0.1093470E+00
         21   -1    0    0  501  502  0.00000000000E+00  0.00000000000E+00  0.79849701605E+01  0.79849701605E+01  0.00000000000E+00 0. -1.
         13   -1    0    0    0    0 -0.00000000000E+00 -0.00000000000E+00 -0.10000000000E+04  0.10000000000E+04  0.00000000000E+00 0.  1.
    9000005    2    1    2  501    0  0.26104341247E+02 -0.58472497074E+02 -0.84686612262E+03  0.84933858724E+03  0.96610864359E+01 0.  0.
         13    1    3    3    0    0  0.47516793096E+01 -0.44811513693E+01 -0.10589163833E+03  0.10609287554E+03  0.00000000000E+00 0.  1.
          1    1    3    3  501    0  0.21352661937E+02 -0.53991345704E+02 -0.74097448430E+03  0.74324571170E+03  0.00000000000E+00 0.  1.
         -3    1    1    2    0  502 -0.26104341247E+02  0.58472497074E+02 -0.14514890722E+03  0.15864638292E+03  0.00000000000E+00 0. -1.
<mgrwt>
<rscale>  1 0.30000000E+03</rscale>
<asrwt>0</asrwt>
<pdfrwt beam="1">  1       21 0.29036316E-01 0.30000000E+03</pdfrwt>
<pdfrwt beam="2">0</pdfrwt>
<totfact> 0.11604936E+03</totfact>
</mgrwt>
</event>
<event>
 6    1  0.1274196E-001  0.3000000E+03  0.7818608E-02  0.1093470E+00
         21   -1    0    0  501  502  0.00000000000E+00  0.00000000000E+00  0.12877922457E+01  0.12877922457E+01  0.00000000000E+00 0. -1.
         13   -1    0    0    0    0 -0.00000000000E+00 -0.00000000000E+00 -0.10000000000E+04  0.10000000000E+04  0.00000000000E+00 0.  1.
    9000005    2    1    2  501    0  0.17741065468E+02  0.30425824437E+02 -0.40890719659E+03  0.41043211834E+03  0.29920130595E+01 0.  0.
         13    1    3    3    0    0  0.69898543496E+00  0.72681344046E+00 -0.17952697105E+02  0.17980994738E+02  0.00000000000E+00 0.  1.
          3    1    3    3  501    0  0.17042080033E+02  0.29699010997E+02 -0.39095449948E+03  0.39245112360E+03  0.00000000000E+00 0.  1.
         -1    1    1    2    0  502 -0.17741065468E+02 -0.30425824437E+02 -0.58980501117E+03  0.59085567391E+03  0.00000000000E+00 0. -1.
<mgrwt>
<rscale>  1 0.30000000E+03</rscale>
<asrwt>0</asrwt>
<pdfrwt beam="1">  1       21 0.46828908E-02 0.30000000E+03</pdfrwt>
<pdfrwt beam="2">0</pdfrwt>
<totfact> 0.32203381E+04</totfact>
</mgrwt>
</event>
<event>
 6    1  0.1274196E-001  0.3000000E+03  0.7818608E-02  0.1093470E+00
         21   -1    0    0  501  502  0.00000000000E+00  0.00000000000E+00  0.17990631155E+01  0.17990631155E+01  0.00000000000E+00 0. -1.
         13   -1    0    0    0    0 -0.00000000000E+00 -0.00000000000E+00 -0.10000000000E+04  0.10000000000E+04  0.00000000000E+00 0.  1.
    9000005    2    1    2  501    0 -0.33733929571E+02  0.47609165220E+01 -0.79692399506E+03  0.79765927856E+03  0.34389578189E+01 0.  0.
         13    1    3    3    0    0 -0.29652699622E+02  0.32922711451E+01 -0.67768111718E+03  0.67833754004E+03  0.00000000000E+00 0.  1.
          1    1    3    3  501    0 -0.40812299488E+01  0.14686453769E+01 -0.11924287788E+03  0.11932173852E+03  0.00000000000E+00 0.  1.
         -3    1    1    2    0  502  0.33733929571E+02 -0.47609165220E+01 -0.20127694182E+03  0.20413978456E+03  0.00000000000E+00 0. -1.
<mgrwt>
<rscale>  1 0.30000000E+03</rscale>
<asrwt>0</asrwt>
<pdfrwt beam="1">  1       21 0.65420615E-02 0.30000000E+03</pdfrwt>
<pdfrwt beam="2">0</pdfrwt>
<totfact> 0.18146218E+04</totfact>
</mgrwt>
</event>
<event>
 6    1  0.1274196E-001  0.3000000E+03  0.7818608E-02  0.1093470E+00
         21   -1    0    0  501  502  0.00000000000E+00  0.00000000000E+00  0.49640000897E+01  0.49640000897E+01  0.00000000000E+00 0. -1.
         13   -1    0    0    0    0 -0.00000000000E+00 -0.00000000000E+00 -0.10000000000E+04  0.10000000000E+04  0.00000000000E+00 0.  1.
    9000005    2    1    2  501    0 -0.76403181082E+01  0.56786261495E+02 -0.78972351223E+03  0.79180614414E+03  0.32695832239E+01 0.  0.
         13    1    3    3    0    0 -0.51449259540E+01  0.36480948352E+02 -0.48603440685E+03  0.48742873786E+03  0.00000000000E+00 0.  1.
          3    1    3    3  501    0 -0.24953921543E+01  0.20305313143E+02 -0.30368910538E+03  0.30437740627E+03  0.00000000000E+00 0.  1.
         -3    1    1    2    0  502  0.76403181082E+01 -0.56786261495E+02 -0.20531248768E+03  0.21315785595E+03  0.00000000000E+00 0. -1.
<mgrwt>
<rscale>  1 0.30000000E+03</rscale>
<asrwt>0</asrwt>
<pdfrwt beam="1">  1       21 0.18050947E-01 0.30000000E+03</pdfrwt>
<pdfrwt beam="2">0</pdfrwt>
<totfact> 0.29139964E+03</totfact>
</mgrwt>
</event>
<event>
 6    1  0.1274196E-001  0.3000000E+03  0.7818608E-02  0.1093470E+00
         21   -1    0    0  501  502  0.00000000000E+00  0.00000000000E+00  0.25965526438E+01  0.25965526438E+01  0.00000000000E+00 0. -1.
         13   -1    0    0    0    0 -0.00000000000E+00 -0.00000000000E+00 -0.10000000000E+04  0.10000000000E+04  0.00000000000E+00 0.  1.
    9000005    2    1    2  501    0 -0.14392064111E+01 -0.43807074787E+02 -0.75389786737E+03  0.75517767988E+03  0.31941577519E+01 0.  0.
         13    1    3    3    0    0  0.99292079165E+00 -0.94806429299E+01 -0.16649391525E+03  0.16676658028E+03  0.00000000000E+00 0.  1.
          1    1    3    3  501    0 -0.24321272028E+01 -0.34326431857E+02 -0.58740395212E+03  0.58841109960E+03  0.00000000000E+00 0.  1.
         -3    1    1    2    0  502  0.14392064111E+01  0.43807074787E+02 -0.24350557998E+03  0.24741887276E+03  0.00000000000E+00 0. -1.
<mgrwt>
<rscale>  1 0.30000000E+03</rscale>
<asrwt>0</asrwt>
<pdfrwt beam="1">  1       21 0.94420295E-02 0.30000000E+03</pdfrwt>
<pdfrwt beam="2">0</pdfrwt>
<totfact> 0.95310459E+03</totfact>
</mgrwt>
</event>
<event>
 6    1  0.1274196E-001  0.3000000E+03  0.7818608E-02  0.1093470E+00
         21   -1    0    0  501  502  0.00000000000E+00  0.00000000000E+00  0.23687862786E+01  0.23687862786E+01  0.00000000000E+00 0. -1.
         13   -1    0    0    0    0 -0.00000000000E+00 -0.00000000000E+00 -0.10000000000E+04  0.10000000000E+04  0.00000000000E+00 0.  1.
    9000005    2    1    2  501    0  0.73569903510E+00  0.47632390961E+02 -0.59925774206E+03  0.60115711042E+03  0.32625248009E+01 0.  0.
         13    1    3    3    0    0  0.15969519388E+01  0.16265110820E+02 -0.21496805970E+03  0.21558842913E+03  0.00000000000E+00 0.  1.
          3    1    3    3  501    0 -0.86125290373E+00  0.31367280140E+02 -0.38428968236E+03  0.38556868129E+03  0.00000000000E+00 0.  1.
         -1    1    1    2    0  502 -0.73569903510E+00 -0.47632390961E+02 -0.39837347166E+03  0.40121167586E+03  0.00000000000E+00 0. -1.
<mgrwt>
<rscale>  1 0.30000000E+03</rscale>
<asrwt>0</asrwt>
<pdfrwt beam="1">  1       21 0.86137865E-02 0.30000000E+03</pdfrwt>
<pdfrwt beam="2">0</pdfrwt>
<totfact> 0.11215039E+04</totfact>
</mgrwt>
</event>
<event>
 6    1  0.1274196E-001  0.3000000E+03  0.7818608E-02  0.1093470E+00
         21   -1    0    0  501  502  0.00000000000E+00  0.00000000000E+00  0.15338165638E+01  0.15338165638E+01  0.00000000000E+00 0. -1.
         13   -1    0    0    0    0 -0.00000000000E+00 -0.00000000000E+00 -0.10000000000E+04  0.10000000000E+04  0.00000000000E+00 0.  1.
    9000005    2    1    2  501    0 -0.34716152458E+02 -0.15995370593E+02 -0.60508702808E+03  0.60630195677E+03  0.32692688680E+01 0.  0.
         13    1    3    3    0    0 -0.27732038967E+02 -0.13026458229E+02 -0.50401949047E+03  0.50494989987E+03  0.00000000000E+00 0.  1.
          3    1    3    3  501    0 -0.69841134915E+01 -0.29689123636E+01 -0.10106753760E+03  0.10135205691E+03  0.00000000000E+00 0.  1.
         -1    1    1    2    0  502  0.34716152458E+02  0.15995370593E+02 -0.39337915536E+03  0.39523185979E+03  0.00000000000E+00 0. -1.
<mgrwt>
<rscale>  1 0.30000000E+03</rscale>
<asrwt>0</asrwt>
<pdfrwt beam="1">  1       21 0.55775265E-02 0.30000000E+03</pdfrwt>
<pdfrwt beam="2">0</pdfrwt>
<totfact> 0.23893440E+04</totfact>
</mgrwt>
</event>
<event>
 6    1  0.1274196E-001  0.3000000E+03  0.7818608E-02  0.1093470E+00
         21   -1    0    0  501  502  0.00000000000E+00  0.00000000000E+00  0.15778869196E+01  0.15778869196E+01  0.00000000000E+00 0. -1.
         13   -1    0    0    0    0 -0.00000000000E+00 -0.00000000000E+00 -0.10000000000E+04  0.10000000000E+04  0.00000000000E+00 0.  1.
    9000005    2    1    2  501    0 -0.24921584036E+02  0.25558126667E+02 -0.71789925597E+03  0.71879285098E+03  0.30850784465E+01 0.  0.
         13    1    3    3    0    0 -0.17936030277E+02  0.19112796251E+02 -0.55122654930E+03  0.55184935337E+03  0.00000000000E+00 0.  1.
          1    1    3    3  501    0 -0.69855537591E+01  0.64453304163E+01 -0.16667270667E+03  0.16694349761E+03  0.00000000000E+00 0.  1.
         -1    1    1    2    0  502  0.24921584036E+02 -0.25558126667E+02 -0.28052285711E+03  0.28278503594E+03  0.00000000000E+00 0. -1.
<mgrwt>
<rscale>  1 0.30000000E+03</rscale>
<asrwt>0</asrwt>
<pdfrwt beam="1">  1       21 0.57377827E-02 0.30000000E+03</pdfrwt>
<pdfrwt beam="2">0</pdfrwt>
<totfact> 0.22758171E+04</totfact>
</mgrwt>
</event>
<event>
 6    1  0.1274196E-001  0.3000000E+03  0.7818608E-02  0.1093470E+00
         21   -1    0    0  501  502  0.00000000000E+00  0.00000000000E+00  0.19524874893E+01  0.19524874893E+01  0.00000000000E+00 0. -1.
         13   -1    0    0    0    0 -0.00000000000E+00 -0.00000000000E+00 -0.10000000000E+04  0.10000000000E+04  0.00000000000E+00 0.  1.
    9000005    2    1    2  501    0 -0.23628374861E+02 -0.36667546842E+02 -0.57403667599E+03  0.57570373550E+03  0.37251296672E+01 0.  0.
         13    1    3    3    0    0 -0.16035942209E+02 -0.22627582098E+02 -0.38130279422E+03  0.38231005714E+03  0.00000000000E+00 0.  1.
          3    1    3    3  501    0 -0.75924326522E+01 -0.14039964744E+02 -0.19273388178E+03  0.19339367836E+03  0.00000000000E+00 0.  1.
         -1    1    1    2    0  502  0.23628374861E+02  0.36667546842E+02 -0.42401083652E+03  0.42624875199E+03  0.00000000000E+00 0. -1.
<mgrwt>
<rscale>  1 0.30000000E+03</rscale>
<asrwt>0</asrwt>
<pdfrwt beam="1">  1       21 0.70999695E-02 0.30000000E+03</pdfrwt>
<pdfrwt beam="2">0</pdfrwt>
<totfact> 0.15741738E+04</totfact>
</mgrwt>
</event>
<event>
 6    1  0.1274196E-001  0.3000000E+03  0.7818608E-02  0.1093470E+00
         21   -1    0    0  501  502  0.00000000000E+00  0.00000000000E+00  0.54928754759E+01  0.54928754759E+01  0.00000000000E+00 0. -1.
         13   -1    0    0    0    0 -0.00000000000E+00 -0.00000000000E+00 -0.10000000000E+04  0.10000000000E+04  0.00000000000E+00 0.  1.
    9000005    2    1    2  501    0  0.67397292768E+02  0.15732597325E+02 -0.31837470245E+03  0.32582754469E+03  0.33508250042E+01 0.  0.
         13    1    3    3    0    0  0.56140651030E+01  0.11480834765E+01 -0.22371795063E+02  0.23094004352E+02  0.00000000000E+00 0.  1.
          1    1    3    3  501    0  0.61783227665E+02  0.14584513848E+02 -0.29600290738E+03  0.30273354034E+03  0.00000000000E+00 0.  1.
         -3    1    1    2    0  502 -0.67397292768E+02 -0.15732597325E+02 -0.67613242208E+03  0.67966533079E+03  0.00000000000E+00 0. -1.
<mgrwt>
<rscale>  1 0.30000000E+03</rscale>
<asrwt>0</asrwt>
<pdfrwt beam="1">  1       21 0.19974135E-01 0.30000000E+03</pdfrwt>
<pdfrwt beam="2">0</pdfrwt>
<totfact> 0.24051561E+03</totfact>
</mgrwt>
</event>
<event>
 6    1  0.1274196E-001  0.3000000E+03  0.7818608E-02  0.1093470E+00
         21   -1    0    0  501  502  0.00000000000E+00  0.00000000000E+00  0.39590773147E+01  0.39590773147E+01  0.00000000000E+00 0. -1.
         13   -1    0    0    0    0 -0.00000000000E+00 -0.00000000000E+00 -0.10000000000E+04  0.10000000000E+04  0.00000000000E+00 0.  1.
    9000005    2    1    2  501    0 -0.10773407072E+02  0.61282162156E+02 -0.56943617571E+03  0.57284055552E+03  0.41441687919E+01 0.  0.
         13    1    3    3    0    0 -0.46151973300E+00  0.77769874097E+00 -0.54554225294E+01  0.55298689650E+01  0.00000000000E+00 0.  1.
          3    1    3    3  501    0 -0.10311887339E+02  0.60504463415E+02 -0.56398075318E+03  0.56731068655E+03  0.00000000000E+00 0.  1.
         -1    1    1    2    0  502  0.10773407072E+02 -0.61282162156E+02 -0.42660474697E+03  0.43111852180E+03  0.00000000000E+00 0. -1.
<mgrwt>
<rscale>  1 0.30000000E+03</rscale>
<asrwt>0</asrwt>
<pdfrwt beam="1">  1       21 0.14396675E-01 0.30000000E+03</pdfrwt>
<pdfrwt beam="2">0</pdfrwt>
<totfact> 0.44423466E+03</totfact>
</mgrwt>
</event>
<event>
 6    1  0.1274196E-001  0.3000000E+03  0.7818608E-02  0.1093470E+00
         21   -1    0    0  501  502  0.00000000000E+00  0.00000000000E+00  0.18531910300E+01  0.18531910300E+01  0.00000000000E+00 0. -1.
         13   -1    0    0    0    0 -0.00000000000E+00 -0.00000000000E+00 -0.10000000000E+04  0.10000000000E+04  0.00000000000E+00 0.  1.
    9000005    2    1    2  501    0 -0.20934734055E+02 -0.31227853586E+02 -0.74172851587E+03  0.74269342763E+03  0.43467527822E+01 0.  0.
         13    1    3    3    0    0 -0.19343412822E+02 -0.26911190102E+02 -0.63173294128E+03  0.63260168263E+03  0.00000000000E+00 0.  1.
          1    1    3    3  501    0 -0.15913212339E+01 -0.43166634834E+01 -0.10999557459E+03  0.11009174500E+03  0.00000000000E+00 0.  1.
         -1    1    1    2    0  502  0.20934734055E+02  0.31227853586E+02 -0.25641829310E+03  0.25915976340E+03  0.00000000000E+00 0. -1.
<mgrwt>
<rscale>  1 0.30000000E+03</rscale>
<asrwt>0</asrwt>
<pdfrwt beam="1">  1       21 0.67388907E-02 0.30000000E+03</pdfrwt>
<pdfrwt beam="2">0</pdfrwt>
<totfact> 0.17237211E+04</totfact>
</mgrwt>
</event>
<event>
 6    1  0.1274196E-001  0.3000000E+03  0.7818608E-02  0.1093470E+00
         21   -1    0    0  501  502  0.00000000000E+00  0.00000000000E+00  0.94636366131E+00  0.94636366131E+00  0.00000000000E+00 0. -1.
         13   -1    0    0    0    0 -0.00000000000E+00 -0.00000000000E+00 -0.10000000000E+04  0.10000000000E+04  0.00000000000E+00 0.  1.
    9000005    2    1    2  501    0  0.82661718498E+01  0.29444754803E+02 -0.47471902876E+03  0.47572059898E+03  0.40753947900E+01 0.  0.
         13    1    3    3    0    0  0.68266051144E+01  0.25731426820E+02 -0.43061577172E+03  0.43143788860E+03  0.00000000000E+00 0.  1.
          1    1    3    3  501    0  0.14395667354E+01  0.37133279828E+01 -0.44103257040E+02  0.44282710381E+02  0.00000000000E+00 0.  1.
         -1    1    1    2    0  502 -0.82661718498E+01 -0.29444754803E+02 -0.52433460758E+03  0.52522576468E+03  0.00000000000E+00 0. -1.
<mgrwt>
<rscale>  1 0.30000000E+03</rscale>
<asrwt>0</asrwt>
<pdfrwt beam="1">  1       21 0.34413297E-02 0.30000000E+03</pdfrwt>
<pdfrwt beam="2">0</pdfrwt>
<totfact> 0.54126584E+04</totfact>
</mgrwt>
</event>
<event>
 6    1  0.1274196E-001  0.3000000E+03  0.7818608E-02  0.1093470E+00
         21   -1    0    0  501  502  0.00000000000E+00  0.00000000000E+00  0.12636108215E+01  0.12636108215E+01  0.00000000000E+00 0. -1.
         13   -1    0    0    0    0 -0.00000000000E+00 -0.00000000000E+00 -0.10000000000E+04  0.10000000000E+04  0.00000000000E+00 0.  1.
    9000005    2    1    2  501    0 -0.28198906018E+02 -0.20976456931E+02 -0.56583475760E+03  0.56693768174E+03  0.37645752234E+01 0.  0.
         13    1    3    3    0    0 -0.21720452747E+02 -0.15833107902E+02 -0.40569823874E+03  0.40658766126E+03  0.00000000000E+00 0.  1.
          3    1    3    3  501    0 -0.64784532713E+01 -0.51433490295E+01 -0.16013651887E+03  0.16035002049E+03  0.00000000000E+00 0.  1.
         -1    1    1    2    0  502  0.28198906018E+02  0.20976456931E+02 -0.43290163158E+03  0.43432592908E+03  0.00000000000E+00 0. -1.
<mgrwt>
<rscale>  1 0.30000000E+03</rscale>
<asrwt>0</asrwt>
<pdfrwt beam="1">  1       21 0.45949581E-02 0.30000000E+03</pdfrwt>
<pdfrwt beam="2">0</pdfrwt>
<totfact> 0.33257691E+04</totfact>
</mgrwt>
</event>
<event>
 6    1  0.1274196E-001  0.3000000E+03  0.7818608E-02  0.1093470E+00
         21   -1    0    0  501  502  0.00000000000E+00  0.00000000000E+00  0.41197517260E+01  0.41197517260E+01  0.00000000000E+00 0. -1.
         13   -1    0    0    0    0 -0.00000000000E+00 -0.00000000000E+00 -0.10000000000E+04  0.10000000000E+04  0.00000000000E+00 0.  1.
    9000005    2    1    2  501    0 -0.17483397191E+02  0.44172179237E+02 -0.83536288569E+03  0.83672000774E+03  0.35170963845E+01 0.  0.
         13    1    3    3    0    0 -0.16699250290E+02  0.43522891157E+02 -0.81646647536E+03  0.81779619246E+03  0.00000000000E+00 0.  1.
          3    1    3    3  501    0 -0.78414690046E+00  0.64928808022E+00 -0.18896410326E+02  0.18923815275E+02  0.00000000000E+00 0.  1.
         -3    1    1    2    0  502  0.17483397191E+02 -0.44172179237E+02 -0.16051736259E+03  0.16739974399E+03  0.00000000000E+00 0. -1.
<mgrwt>
<rscale>  1 0.30000000E+03</rscale>
<asrwt>0</asrwt>
<pdfrwt beam="1">  1       21 0.14980947E-01 0.30000000E+03</pdfrwt>
<pdfrwt beam="2">0</pdfrwt>
<totfact> 0.41277344E+03</totfact>
</mgrwt>
</event>
<event>
 6    1  0.1274196E-001  0.3000000E+03  0.7818608E-02  0.1093470E+00
         21   -1    0    0  501  502  0.00000000000E+00  0.00000000000E+00  0.15411268866E+01  0.15411268866E+01  0.00000000000E+00 0. -1.
         13   -1    0    0    0    0 -0.00000000000E+00 -0.00000000000E+00 -0.10000000000E+04  0.10000000000E+04  0.00000000000E+00 0.  1.
    9000005    2    1    2  501    0 -0.12030210734E+01 -0.30567938731E+02 -0.81203549702E+03  0.81262442225E+03  0.45778896283E+01 0.  0.
         13    1    3    3    0    0 -0.97434145560E+00 -0.30267038246E+02 -0.78137114945E+03  0.78195774575E+03  0.00000000000E+00 0.  1.
          1    1    3    3  501    0 -0.22867961782E+00 -0.30090048422E+00 -0.30664347575E+02  0.30666676502E+02  0.00000000000E+00 0.  1.
         -1    1    1    2    0  502  0.12030210734E+01  0.30567938731E+02 -0.18642337609E+03  0.18891670464E+03  0.00000000000E+00 0. -1.
<mgrwt>
<rscale>  1 0.30000000E+03</rscale>
<asrwt>0</asrwt>
<pdfrwt beam="1">  1       21 0.56041096E-02 0.30000000E+03</pdfrwt>
<pdfrwt beam="2">0</pdfrwt>
<totfact> 0.23699190E+04</totfact>
</mgrwt>
</event>
<event>
 6    1  0.1274196E-001  0.3000000E+03  0.7818608E-02  0.1093470E+00
         21   -1    0    0  501  502  0.00000000000E+00  0.00000000000E+00  0.15125926488E+01  0.15125926488E+01  0.00000000000E+00 0. -1.
         13   -1    0    0    0    0 -0.00000000000E+00 -0.00000000000E+00 -0.10000000000E+04  0.10000000000E+04  0.00000000000E+00 0.  1.
    9000005    2    1    2  501    0  0.21667842292E+02  0.31629262701E+02 -0.57834772755E+03  0.57962723358E+03  0.34249529907E+01 0.  0.
         13    1    3    3    0    0  0.19650997007E+02  0.30155949870E+02 -0.54167750560E+03  0.54287205037E+03  0.00000000000E+00 0.  1.
          1    1    3    3  501    0  0.20168452857E+01  0.14733128317E+01 -0.36670221944E+02  0.36755183213E+02  0.00000000000E+00 0.  1.
         -1    1    1    2    0  502 -0.21667842292E+02 -0.31629262701E+02 -0.42013967980E+03  0.42188535907E+03  0.00000000000E+00 0. -1.
<mgrwt>
<rscale>  1 0.30000000E+03</rscale>
<asrwt>0</asrwt>
<pdfrwt beam="1">  1       21 0.55003485E-02 0.30000000E+03</pdfrwt>
<pdfrwt beam="2">0</pdfrwt>
<totfact> 0.24471490E+04</totfact>
</mgrwt>
</event>
<event>
 6    1  0.1274196E-001  0.3000000E+03  0.7818608E-02  0.1093470E+00
         21   -1    0    0  501  502  0.00000000000E+00  0.00000000000E+00  0.23655235211E+01  0.23655235211E+01  0.00000000000E+00 0. -1.
         13   -1    0    0    0    0 -0.00000000000E+00 -0.00000000000E+00 -0.10000000000E+04  0.10000000000E+04  0.00000000000E+00 0.  1.
    9000005    2    1    2  501    0  0.13208195950E+02 -0.29924740890E+02 -0.86956075707E+03  0.87018071289E+03  0.29353530288E+01 0.  0.
         13    1    3    3    0    0  0.36545380670E+00 -0.36487149470E+00 -0.75341128767E+01  0.75517908162E+01  0.00000000000E+00 0.  1.
          3    1    3    3  501    0  0.12842742143E+02 -0.29559869395E+02 -0.86202664419E+03  0.86262892208E+03  0.00000000000E+00 0.  1.
         -3    1    1    2    0  502 -0.13208195950E+02  0.29924740890E+02 -0.12807371941E+03  0.13218481063E+03  0.00000000000E+00 0. -1.
<mgrwt>
<rscale>  1 0.30000000E+03</rscale>
<asrwt>0</asrwt>
<pdfrwt beam="1">  1       21 0.86019219E-02 0.30000000E+03</pdfrwt>
<pdfrwt beam="2">0</pdfrwt>
<totfact> 0.11242356E+04</totfact>
</mgrwt>
</event>
<event>
 6    1  0.1274196E-001  0.3000000E+03  0.7818608E-02  0.1093470E+00
         21   -1    0    0  501  502  0.00000000000E+00  0.00000000000E+00  0.12218517600E+01  0.12218517600E+01  0.00000000000E+00 0. -1.
         13   -1    0    0    0    0 -0.00000000000E+00 -0.00000000000E+00 -0.10000000000E+04  0.10000000000E+04  0.00000000000E+00 0.  1.
    9000005    2    1    2  501    0  0.31259327903E+02  0.66984263329E+01 -0.69741651992E+03  0.69816930595E+03  0.53444383766E+01 0.  0.
         13    1    3    3    0    0 -0.76279027232E-01 -0.29422445946E+00 -0.73954560040E+01  0.74016995365E+01  0.00000000000E+00 0.  1.
          3    1    3    3  501    0  0.31335606931E+02  0.69926507923E+01 -0.69002106391E+03  0.69076760641E+03  0.00000000000E+00 0.  1.
         -1    1    1    2    0  502 -0.31259327903E+02 -0.66984263329E+01 -0.30136162832E+03  0.30305254581E+03  0.00000000000E+00 0. -1.
<mgrwt>
<rscale>  1 0.30000000E+03</rscale>
<asrwt>0</asrwt>
<pdfrwt beam="1">  1       21 0.44431067E-02 0.30000000E+03</pdfrwt>
<pdfrwt beam="2">0</pdfrwt>
<totfact> 0.35209871E+04</totfact>
</mgrwt>
</event>
<event>
 6    1  0.1274196E-001  0.3000000E+03  0.7818608E-02  0.1093470E+00
         21   -1    0    0  501  502  0.00000000000E+00  0.00000000000E+00  0.37961144424E+01  0.37961144424E+01  0.00000000000E+00 0. -1.
         13   -1    0    0    0    0 -0.00000000000E+00 -0.00000000000E+00 -0.10000000000E+04  0.10000000000E+04  0.00000000000E+00 0.  1.
    9000005    2    1    2  501    0  0.15721046254E+02  0.49416975410E+02 -0.76881470939E+03  0.77056870141E+03  0.32980988880E+01 0.  0.
         13    1    3    3    0    0  0.14253126009E+02  0.43847691634E+02 -0.66753374189E+03  0.66912410525E+03  0.00000000000E+00 0.  1.
          1    1    3    3  501    0  0.14679202455E+01  0.55692837757E+01 -0.10128096751E+03  0.10144459616E+03  0.00000000000E+00 0.  1.
         -3    1    1    2    0  502 -0.15721046254E+02 -0.49416975410E+02 -0.22738917616E+03  0.23322741303E+03  0.00000000000E+00 0. -1.
<mgrwt>
<rscale>  1 0.30000000E+03</rscale>
<asrwt>0</asrwt>
<pdfrwt beam="1">  1       21 0.13804082E-01 0.30000000E+03</pdfrwt>
<pdfrwt beam="2">0</pdfrwt>
<totfact> 0.47992736E+03</totfact>
</mgrwt>
</event>
<event>
 6    1  0.1274196E-001  0.3000000E+03  0.7818608E-02  0.1093470E+00
         21   -1    0    0  501  502  0.00000000000E+00  0.00000000000E+00  0.19547996115E+01  0.19547996115E+01  0.00000000000E+00 0. -1.
         13   -1    0    0    0    0 -0.00000000000E+00 -0.00000000000E+00 -0.10000000000E+04  0.10000000000E+04  0.00000000000E+00 0.  1.
    9000005    2    1    2  501    0 -0.27454581712E+02  0.19612405051E+02 -0.82220834496E+03  0.82291011184E+03  0.40111311911E+01 0.  0.
         13    1    3    3    0    0 -0.10212349511E+01  0.16850885858E+01 -0.36953380719E+02  0.37005875087E+02  0.00000000000E+00 0.  1.
          3    1    3    3  501    0 -0.26433346761E+02  0.17927316466E+02 -0.78525496424E+03  0.78590423676E+03  0.00000000000E+00 0.  1.
         -1    1    1    2    0  502  0.27454581712E+02 -0.19612405051E+02 -0.17583685543E+03  0.17904468777E+03  0.00000000000E+00 0. -1.
<mgrwt>
<rscale>  1 0.30000000E+03</rscale>
<asrwt>0</asrwt>
<pdfrwt beam="1">  1       21 0.71083772E-02 0.30000000E+03</pdfrwt>
<pdfrwt beam="2">0</pdfrwt>
<totfact> 0.15709309E+04</totfact>
</mgrwt>
</event>
<event>
 6    1  0.1274196E-001  0.3000000E+03  0.7818608E-02  0.1093470E+00
         21   -1    0    0  501  502  0.00000000000E+00  0.00000000000E+00  0.38747998711E+01  0.38747998711E+01  0.00000000000E+00 0. -1.
         13   -1    0    0    0    0 -0.00000000000E+00 -0.00000000000E+00 -0.10000000000E+04  0.10000000000E+04  0.00000000000E+00 0.  1.
    9000005    2    1    2  501    0  0.35736477842E+02 -0.27714083311E+02 -0.84294389174E+03  0.84415730082E+03  0.14062892576E+01 0.  0.
         13    1    3    3    0    0  0.14762751423E+02 -0.10715850417E+02 -0.33293426816E+03  0.33343364436E+03  0.00000000000E+00 0.  1.
          1    1    3    3  501    0  0.20973726420E+02 -0.16998232894E+02 -0.51000962358E+03  0.51072365646E+03  0.00000000000E+00 0.  1.
         -1    1    1    2    0  502 -0.35736477842E+02  0.27714083311E+02 -0.15318130839E+03  0.15971749905E+03  0.00000000000E+00 0. -1.
<mgrwt>
<rscale>  1 0.30000000E+03</rscale>
<asrwt>0</asrwt>
<pdfrwt beam="1">  1       21 0.14090211E-01 0.30000000E+03</pdfrwt>
<pdfrwt beam="2">0</pdfrwt>
<totfact> 0.46217943E+03</totfact>
</mgrwt>
</event>
<event>
 6    1  0.1274196E-001  0.3000000E+03  0.7818608E-02  0.1093470E+00
         21   -1    0    0  501  502  0.00000000000E+00  0.00000000000E+00  0.31823286930E+01  0.31823286930E+01  0.00000000000E+00 0. -1.
         13   -1    0    0    0    0 -0.00000000000E+00 -0.00000000000E+00 -0.10000000000E+04  0.10000000000E+04  0.00000000000E+00 0.  1.
    9000005    2    1    2  501    0  0.17057644575E+02  0.31696086255E+02 -0.88450775658E+03  0.88524538762E+03  0.31336464540E+01 0.  0.
         13    1    3    3    0    0  0.34277618542E+01  0.86833865103E+01 -0.20923076347E+03  0.20943892459E+03  0.00000000000E+00 0.  1.
          3    1    3    3  501    0  0.13629882721E+02  0.23012699744E+02 -0.67527699311E+03  0.67580646303E+03  0.00000000000E+00 0.  1.
         -1    1    1    2    0  502 -0.17057644575E+02 -0.31696086255E+02 -0.11230991473E+03  0.11793694107E+03  0.00000000000E+00 0. -1.
<mgrwt>
<rscale>  1 0.30000000E+03</rscale>
<asrwt>0</asrwt>
<pdfrwt beam="1">  1       21 0.11572129E-01 0.30000000E+03</pdfrwt>
<pdfrwt beam="2">0</pdfrwt>
<totfact> 0.66183478E+03</totfact>
</mgrwt>
</event>
<event>
 6    1  0.1274196E-001  0.3000000E+03  0.7818608E-02  0.1093470E+00
         21   -1    0    0  501  502  0.00000000000E+00  0.00000000000E+00  0.69349635659E+01  0.69349635659E+01  0.00000000000E+00 0. -1.
         13   -1    0    0    0    0 -0.00000000000E+00 -0.00000000000E+00 -0.10000000000E+04  0.10000000000E+04  0.00000000000E+00 0.  1.
    9000005    2    1    2  501    0 -0.33475022670E+02  0.53976136125E+02 -0.82200181376E+03  0.82446133105E+03  0.39375309166E+01 0.  0.
         13    1    3    3    0    0 -0.20607579685E+02  0.35155387305E+02 -0.54741423165E+03  0.54892887938E+03  0.00000000000E+00 0.  1.
          3    1    3    3  501    0 -0.12867442984E+02  0.18820748820E+02 -0.27458758211E+03  0.27553245167E+03  0.00000000000E+00 0.  1.
         -3    1    1    2    0  502  0.33475022670E+02 -0.53976136125E+02 -0.17106322267E+03  0.18247363252E+03  0.00000000000E+00 0. -1.
<mgrwt>
<rscale>  1 0.30000000E+03</rscale>
<asrwt>0</asrwt>
<pdfrwt beam="1">  1       21 0.25218103E-01 0.30000000E+03</pdfrwt>
<pdfrwt beam="2">0</pdfrwt>
<totfact> 0.15332888E+03</totfact>
</mgrwt>
</event>
<event>
 6    1  0.1274196E-001  0.3000000E+03  0.7818608E-02  0.1093470E+00
         21   -1    0    0  501  502  0.00000000000E+00  0.00000000000E+00  0.17806436662E+01  0.17806436662E+01  0.00000000000E+00 0. -1.
         13   -1    0    0    0    0 -0.00000000000E+00 -0.00000000000E+00 -0.10000000000E+04  0.10000000000E+04  0.00000000000E+00 0.  1.
    9000005    2    1    2  501    0 -0.12554874773E+02 -0.39167232562E+02 -0.60833225178E+03  0.60973007131E+03  0.33067079275E+01 0.  0.
         13    1    3    3    0    0  0.17900878162E+00 -0.10826975469E+01 -0.18304851966E+02  0.18337717514E+02  0.00000000000E+00 0.  1.
          1    1    3    3  501    0 -0.12733883555E+02 -0.38084535015E+02 -0.59002739981E+03  0.59139235380E+03  0.00000000000E+00 0.  1.
         -3    1    1    2    0  502  0.12554874773E+02  0.39167232562E+02 -0.38988710455E+03  0.39205057236E+03  0.00000000000E+00 0. -1.
<mgrwt>
<rscale>  1 0.30000000E+03</rscale>
<asrwt>0</asrwt>
<pdfrwt beam="1">  1       21 0.64750815E-02 0.30000000E+03</pdfrwt>
<pdfrwt beam="2">0</pdfrwt>
<totfact> 0.18472470E+04</totfact>
</mgrwt>
</event>
<event>
 6    1  0.1274196E-001  0.3000000E+03  0.7818608E-02  0.1093470E+00
         21   -1    0    0  501  502  0.00000000000E+00  0.00000000000E+00  0.63179688661E+01  0.63179688661E+01  0.00000000000E+00 0. -1.
         13   -1    0    0    0    0 -0.00000000000E+00 -0.00000000000E+00 -0.10000000000E+04  0.10000000000E+04  0.00000000000E+00 0.  1.
    9000005    2    1    2  501    0  0.45335492407E+02 -0.39031450817E+02 -0.82798772230E+03  0.83015507549E+03  0.38755706890E+01 0.  0.
         13    1    3    3    0    0  0.37988997975E+02 -0.33448697314E+02 -0.68154458031E+03  0.68342153483E+03  0.00000000000E+00 0.  1.
          1    1    3    3  501    0  0.73464944318E+01 -0.55827535028E+01 -0.14644314199E+03  0.14673354065E+03  0.00000000000E+00 0.  1.
         -1    1    1    2    0  502 -0.45335492407E+02  0.39031450817E+02 -0.16569430883E+03  0.17616289338E+03  0.00000000000E+00 0. -1.
<mgrwt>
<rscale>  1 0.30000000E+03</rscale>
<asrwt>0</asrwt>
<pdfrwt beam="1">  1       21 0.22974481E-01 0.30000000E+03</pdfrwt>
<pdfrwt beam="2">0</pdfrwt>
<totfact> 0.18382218E+03</totfact>
</mgrwt>
</event>
<event>
 6    1  0.1274196E-001  0.3000000E+03  0.7818608E-02  0.1093470E+00
         21   -1    0    0  501  502  0.00000000000E+00  0.00000000000E+00  0.19330160792E+01  0.19330160792E+01  0.00000000000E+00 0. -1.
         13   -1    0    0    0    0 -0.00000000000E+00 -0.00000000000E+00 -0.10000000000E+04  0.10000000000E+04  0.00000000000E+00 0.  1.
    9000005    2    1    2  501    0 -0.16826286931E+02  0.40392665363E+02 -0.54161575553E+03  0.54338921747E+03  0.30860448977E+01 0.  0.
         13    1    3    3    0    0 -0.17141469802E+01  0.22291257209E+01 -0.32394753626E+02  0.32516570604E+02  0.00000000000E+00 0.  1.
          3    1    3    3  501    0 -0.15112139951E+02  0.38163539642E+02 -0.50922100191E+03  0.51087264687E+03  0.00000000000E+00 0.  1.
         -3    1    1    2    0  502  0.16826286931E+02 -0.40392665363E+02 -0.45645122839E+03  0.45854379861E+03  0.00000000000E+00 0. -1.
<mgrwt>
<rscale>  1 0.30000000E+03</rscale>
<asrwt>0</asrwt>
<pdfrwt beam="1">  1       21 0.70291642E-02 0.30000000E+03</pdfrwt>
<pdfrwt beam="2">0</pdfrwt>
<totfact> 0.16018938E+04</totfact>
</mgrwt>
</event>
<event>
 6    1  0.1274196E-001  0.3000000E+03  0.7818608E-02  0.1093470E+00
         21   -1    0    0  501  502  0.00000000000E+00  0.00000000000E+00  0.30149530455E+01  0.30149530455E+01  0.00000000000E+00 0. -1.
         13   -1    0    0    0    0 -0.00000000000E+00 -0.00000000000E+00 -0.10000000000E+04  0.10000000000E+04  0.00000000000E+00 0.  1.
    9000005    2    1    2  501    0  0.29178321245E+02  0.32327462233E+02 -0.80376357712E+03  0.80494684443E+03  0.26636835163E+01 0.  0.
         13    1    3    3    0    0  0.28179693103E+02  0.31831480151E+02 -0.78207043065E+03  0.78322506135E+03  0.00000000000E+00 0.  1.
          1    1    3    3  501    0  0.99862814209E+00  0.49598208176E+00 -0.21693146471E+02  0.21721783080E+02  0.00000000000E+00 0.  1.
         -1    1    1    2    0  502 -0.29178321245E+02 -0.32327462233E+02 -0.19322146983E+03  0.19806810861E+03  0.00000000000E+00 0. -1.
<mgrwt>
<rscale>  1 0.30000000E+03</rscale>
<asrwt>0</asrwt>
<pdfrwt beam="1">  1       21 0.10963489E-01 0.30000000E+03</pdfrwt>
<pdfrwt beam="2">0</pdfrwt>
<totfact> 0.72955254E+03</totfact>
</mgrwt>
</event>
<event>
 6    1  0.1274196E-001  0.3000000E+03  0.7818608E-02  0.1093470E+00
         21   -1    0    0  501  502  0.00000000000E+00  0.00000000000E+00  0.15737763017E+01  0.15737763017E+01  0.00000000000E+00 0. -1.
         13   -1    0    0    0    0 -0.00000000000E+00 -0.00000000000E+00 -0.10000000000E+04  0.10000000000E+04  0.00000000000E+00 0.  1.
    9000005    2    1    2  501    0 -0.26077565694E+02  0.24164293150E+02 -0.27996885153E+03  0.28223731252E+03  0.33749456725E+01 0.  0.
         13    1    3    3    0    0 -0.33537274394E+01  0.39142326741E+01 -0.33048812966E+02  0.33448359356E+02  0.00000000000E+00 0.  1.
          3    1    3    3  501    0 -0.22723838255E+02  0.20250060476E+02 -0.24692003856E+03  0.24878895317E+03  0.00000000000E+00 0.  1.
         -1    1    1    2    0  502  0.26077565694E+02 -0.24164293150E+02 -0.71845737217E+03  0.71933646378E+03  0.00000000000E+00 0. -1.
<mgrwt>
<rscale>  1 0.30000000E+03</rscale>
<asrwt>0</asrwt>
<pdfrwt beam="1">  1       21 0.57228350E-02 0.30000000E+03</pdfrwt>
<pdfrwt beam="2">0</pdfrwt>
<totfact> 0.22860528E+04</totfact>
</mgrwt>
</event>
<event>
 6    1  0.1274196E-001  0.3000000E+03  0.7818608E-02  0.1093470E+00
         21   -1    0    0  501  502  0.00000000000E+00  0.00000000000E+00  0.11978952922E+01  0.11978952922E+01  0.00000000000E+00 0. -1.
         13   -1    0    0    0    0 -0.00000000000E+00 -0.00000000000E+00 -0.10000000000E+04  0.10000000000E+04  0.00000000000E+00 0.  1.
    9000005    2    1    2  501    0 -0.30234466188E+02 -0.16039647016E+02 -0.56811319490E+03  0.56915121927E+03  0.30191001904E+01 0.  0.
         13    1    3    3    0    0 -0.22688829814E+02 -0.13237692727E+02 -0.42268521249E+03  0.42350065922E+03  0.00000000000E+00 0.  1.
          3    1    3    3  501    0 -0.75456363737E+01 -0.28019542890E+01 -0.14542798241E+03  0.14565056005E+03  0.00000000000E+00 0.  1.
         -3    1    1    2    0  502  0.30234466188E+02  0.16039647016E+02 -0.43068890981E+03  0.43204667602E+03  0.00000000000E+00 0. -1.
<mgrwt>
<rscale>  1 0.30000000E+03</rscale>
<asrwt>0</asrwt>
<pdfrwt beam="1">  1       21 0.43559921E-02 0.30000000E+03</pdfrwt>
<pdfrwt beam="2">0</pdfrwt>
<totfact> 0.36410938E+04</totfact>
</mgrwt>
</event>
<event>
 6    1  0.1274196E-001  0.3000000E+03  0.7818608E-02  0.1093470E+00
         21   -1    0    0  501  502  0.00000000000E+00  0.00000000000E+00  0.20435443861E+01  0.20435443861E+01  0.00000000000E+00 0. -1.
         13   -1    0    0    0    0 -0.00000000000E+00 -0.00000000000E+00 -0.10000000000E+04  0.10000000000E+04  0.00000000000E+00 0.  1.
    9000005    2    1    2  501    0  0.32540467068E+02  0.19067627010E+02 -0.77482857489E+03  0.77575057597E+03  0.26794141259E+01 0.  0.
         13    1    3    3    0    0  0.11841481620E+02  0.84345523522E+01 -0.30167434661E+03  0.30202445888E+03  0.00000000000E+00 0.  1.
          1    1    3    3  501    0  0.20698985448E+02  0.10633074657E+02 -0.47315422828E+03  0.47372611709E+03  0.00000000000E+00 0.  1.
         -3    1    1    2    0  502 -0.32540467068E+02 -0.19067627010E+02 -0.22312788072E+03  0.22629296841E+03  0.00000000000E+00 0. -1.
<mgrwt>
<rscale>  1 0.30000000E+03</rscale>
<asrwt>0</asrwt>
<pdfrwt beam="1">  1       21 0.74310862E-02 0.30000000E+03</pdfrwt>
<pdfrwt beam="2">0</pdfrwt>
<totfact> 0.14537480E+04</totfact>
</mgrwt>
</event>
<event>
 6    1  0.1274196E-001  0.3000000E+03  0.7818608E-02  0.1093470E+00
         21   -1    0    0  501  502  0.00000000000E+00  0.00000000000E+00  0.11377349156E+01  0.11377349156E+01  0.00000000000E+00 0. -1.
         13   -1    0    0    0    0 -0.00000000000E+00 -0.00000000000E+00 -0.10000000000E+04  0.10000000000E+04  0.00000000000E+00 0.  1.
    9000005    2    1    2  501    0  0.30083088494E+00  0.33605439768E+02 -0.52346003104E+03  0.52454912802E+03  0.34594127474E+01 0.  0.
         13    1    3    3    0    0  0.17598930246E+01  0.13468862824E+02 -0.20381683926E+03  0.20426896841E+03  0.00000000000E+00 0.  1.
          1    1    3    3  501    0 -0.14590621396E+01  0.20136576944E+02 -0.31964319178E+03  0.32028015961E+03  0.00000000000E+00 0.  1.
         -3    1    1    2    0  502 -0.30083088494E+00 -0.33605439768E+02 -0.47540223405E+03  0.47658860689E+03  0.00000000000E+00 0. -1.
<mgrwt>
<rscale>  1 0.30000000E+03</rscale>
<asrwt>0</asrwt>
<pdfrwt beam="1">  1       21 0.41372266E-02 0.30000000E+03</pdfrwt>
<pdfrwt beam="2">0</pdfrwt>
<totfact> 0.39723399E+04</totfact>
</mgrwt>
</event>
<event>
 6    1  0.1274196E-001  0.3000000E+03  0.7818608E-02  0.1093470E+00
         21   -1    0    0  501  502  0.00000000000E+00  0.00000000000E+00  0.10762489784E+01  0.10762489784E+01  0.00000000000E+00 0. -1.
         13   -1    0    0    0    0 -0.00000000000E+00 -0.00000000000E+00 -0.10000000000E+04  0.10000000000E+04  0.00000000000E+00 0.  1.
    9000005    2    1    2  501    0 -0.35781476735E+01 -0.32502982292E+02 -0.52646503477E+03  0.52748730742E+03  0.28600107312E+01 0.  0.
         13    1    3    3    0    0 -0.15800731928E+01 -0.17264612448E+02 -0.30131773536E+03  0.30181607167E+03  0.00000000000E+00 0.  1.
          1    1    3    3  501    0 -0.19980744807E+01 -0.15238369844E+02 -0.22514729941E+03  0.22567123576E+03  0.00000000000E+00 0.  1.
         -1    1    1    2    0  502  0.35781476735E+01  0.32502982292E+02 -0.47245871625E+03  0.47358894155E+03  0.00000000000E+00 0. -1.
<mgrwt>
<rscale>  1 0.30000000E+03</rscale>
<asrwt>0</asrwt>
<pdfrwt beam="1">  1       21 0.39136409E-02 0.30000000E+03</pdfrwt>
<pdfrwt beam="2">0</pdfrwt>
<totfact> 0.43620718E+04</totfact>
</mgrwt>
</event>
<event>
 6    1  0.1274196E-001  0.3000000E+03  0.7818608E-02  0.1093470E+00
         21   -1    0    0  501  502  0.00000000000E+00  0.00000000000E+00  0.20950761496E+01  0.20950761496E+01  0.00000000000E+00 0. -1.
         13   -1    0    0    0    0 -0.00000000000E+00 -0.00000000000E+00 -0.10000000000E+04  0.10000000000E+04  0.00000000000E+00 0.  1.
    9000005    2    1    2  501    0 -0.31754155915E+02  0.67840288571E+01 -0.85181431141E+03  0.85243941635E+03  0.33148102844E+01 0.  0.
         13    1    3    3    0    0 -0.12899299023E+02  0.12227228912E+01 -0.35468432002E+03  0.35492091208E+03  0.00000000000E+00 0.  1.
          3    1    3    3  501    0 -0.18854856892E+02  0.55613059659E+01 -0.49712999139E+03  0.49751850427E+03  0.00000000000E+00 0.  1.
         -3    1    1    2    0  502  0.31754155915E+02 -0.67840288571E+01 -0.14609061244E+03  0.14965565980E+03  0.00000000000E+00 0. -1.
<mgrwt>
<rscale>  1 0.30000000E+03</rscale>
<asrwt>0</asrwt>
<pdfrwt beam="1">  1       21 0.76184748E-02 0.30000000E+03</pdfrwt>
<pdfrwt beam="2">0</pdfrwt>
<totfact> 0.13917132E+04</totfact>
</mgrwt>
</event>
<event>
 6    1  0.1274196E-001  0.3000000E+03  0.7818608E-02  0.1093470E+00
         21   -1    0    0  501  502  0.00000000000E+00  0.00000000000E+00  0.20672924494E+01  0.20672924494E+01  0.00000000000E+00 0. -1.
         13   -1    0    0    0    0 -0.00000000000E+00 -0.00000000000E+00 -0.10000000000E+04  0.10000000000E+04  0.00000000000E+00 0.  1.
    9000005    2    1    2  501    0 -0.25594794765E+02  0.36077830832E+02 -0.38475121857E+03  0.38729234027E+03  0.22700760943E+01 0.  0.
         13    1    3    3    0    0 -0.12079492644E+02  0.16883730431E+02 -0.17071916567E+03  0.17197676594E+03  0.00000000000E+00 0.  1.
          3    1    3    3  501    0 -0.13515302120E+02  0.19194100401E+02 -0.21403205290E+03  0.21531557433E+03  0.00000000000E+00 0.  1.
         -1    1    1    2    0  502  0.25594794765E+02 -0.36077830832E+02 -0.61318148898E+03  0.61477495218E+03  0.00000000000E+00 0. -1.
<mgrwt>
<rscale>  1 0.30000000E+03</rscale>
<asrwt>0</asrwt>
<pdfrwt beam="1">  1       21 0.75174429E-02 0.30000000E+03</pdfrwt>
<pdfrwt beam="2">0</pdfrwt>
<totfact> 0.14246398E+04</totfact>
</mgrwt>
</event>
<event>
 6    1  0.1274196E-001  0.3000000E+03  0.7818608E-02  0.1093470E+00
         21   -1    0    0  501  502  0.00000000000E+00  0.00000000000E+00  0.12477086700E+01  0.12477086700E+01  0.00000000000E+00 0. -1.
         13   -1    0    0    0    0 -0.00000000000E+00 -0.00000000000E+00 -0.10000000000E+04  0.10000000000E+04  0.00000000000E+00 0.  1.
    9000005    2    1    2  501    0 -0.28957296334E+02 -0.12430088003E+02 -0.72381807082E+03  0.72451343594E+03  0.37532793768E+01 0.  0.
         13    1    3    3    0    0 -0.40442309674E+01 -0.32202484811E+01 -0.12251883987E+03  0.12262785950E+03  0.00000000000E+00 0.  1.
          1    1    3    3  501    0 -0.24913065366E+02 -0.92098395218E+01 -0.60129923096E+03  0.60188557643E+03  0.00000000000E+00 0.  1.
         -1    1    1    2    0  502  0.28957296334E+02  0.12430088003E+02 -0.27493422051E+03  0.27673427273E+03  0.00000000000E+00 0. -1.
<mgrwt>
<rscale>  1 0.30000000E+03</rscale>
<asrwt>0</asrwt>
<pdfrwt beam="1">  1       21 0.45371320E-02 0.30000000E+03</pdfrwt>
<pdfrwt beam="2">0</pdfrwt>
<totfact> 0.33980859E+04</totfact>
</mgrwt>
</event>
<event>
 6    1  0.1274196E-001  0.3000000E+03  0.7818608E-02  0.1093470E+00
         21   -1    0    0  501  502  0.00000000000E+00  0.00000000000E+00  0.26541698624E+01  0.26541698624E+01  0.00000000000E+00 0. -1.
         13   -1    0    0    0    0 -0.00000000000E+00 -0.00000000000E+00 -0.10000000000E+04  0.10000000000E+04  0.00000000000E+00 0.  1.
    9000005    2    1    2  501    0  0.25824396718E+02 -0.35650496193E+02 -0.75870728556E+03  0.75998935515E+03  0.30360211195E+01 0.  0.
         13    1    3    3    0    0  0.23008684940E+02 -0.31170763155E+02 -0.68230271807E+03  0.68340179627E+03  0.00000000000E+00 0.  1.
          1    1    3    3  501    0  0.28157117785E+01 -0.44797330386E+01 -0.76404567490E+02  0.76587558873E+02  0.00000000000E+00 0.  1.
         -3    1    1    2    0  502 -0.25824396718E+02  0.35650496193E+02 -0.23863854457E+03  0.24266481472E+03  0.00000000000E+00 0. -1.
<mgrwt>
<rscale>  1 0.30000000E+03</rscale>
<asrwt>0</asrwt>
<pdfrwt beam="1">  1       21 0.96515471E-02 0.30000000E+03</pdfrwt>
<pdfrwt beam="2">0</pdfrwt>
<totfact> 0.91654746E+03</totfact>
</mgrwt>
</event>
<event>
 6    1  0.1274196E-001  0.3000000E+03  0.7818608E-02  0.1093470E+00
         21   -1    0    0  501  502  0.00000000000E+00  0.00000000000E+00  0.17043179968E+01  0.17043179968E+01  0.00000000000E+00 0. -1.
         13   -1    0    0    0    0 -0.00000000000E+00 -0.00000000000E+00 -0.10000000000E+04  0.10000000000E+04  0.00000000000E+00 0.  1.
    9000005    2    1    2  501    0  0.35605775834E+02  0.16460137465E+02 -0.65340589557E+03  0.65459097601E+03  0.33725527677E+01 0.  0.
         13    1    3    3    0    0  0.34195902574E+02  0.15588312810E+02 -0.61283631851E+03  0.61398754754E+03  0.00000000000E+00 0.  1.
          3    1    3    3  501    0  0.14098732600E+01  0.87182465511E+00 -0.40569577066E+02  0.40603428478E+02  0.00000000000E+00 0.  1.
         -1    1    1    2    0  502 -0.35605775834E+02 -0.16460137465E+02 -0.34488978643E+03  0.34711334198E+03  0.00000000000E+00 0. -1.
<mgrwt>
<rscale>  1 0.30000000E+03</rscale>
<asrwt>0</asrwt>
<pdfrwt beam="1">  1       21 0.61975331E-02 0.30000000E+03</pdfrwt>
<pdfrwt beam="2">0</pdfrwt>
<totfact> 0.19926032E+04</totfact>
</mgrwt>
</event>
<event>
 6    1  0.1274196E-001  0.3000000E+03  0.7818608E-02  0.1093470E+00
         21   -1    0    0  501  502  0.00000000000E+00  0.00000000000E+00  0.18024445222E+01  0.18024445222E+01  0.00000000000E+00 0. -1.
         13   -1    0    0    0    0 -0.00000000000E+00 -0.00000000000E+00 -0.10000000000E+04  0.10000000000E+04  0.00000000000E+00 0.  1.
    9000005    2    1    2  501    0  0.36134629106E+02  0.80094807885E+01 -0.74334479296E+03  0.74427614729E+03  0.39546176917E+01 0.  0.
         13    1    3    3    0    0  0.75232728983E+01  0.30402020648E+01 -0.18174917050E+03  0.18193021586E+03  0.00000000000E+00 0.  1.
          1    1    3    3  501    0  0.28611356207E+02  0.49692787237E+01 -0.56159562246E+03  0.56234593143E+03  0.00000000000E+00 0.  1.
         -1    1    1    2    0  502 -0.36134629106E+02 -0.80094807885E+01 -0.25485276252E+03  0.25752629723E+03  0.00000000000E+00 0. -1.
<mgrwt>
<rscale>  1 0.30000000E+03</rscale>
<asrwt>0</asrwt>
<pdfrwt beam="1">  1       21 0.65543575E-02 0.30000000E+03</pdfrwt>
<pdfrwt beam="2">0</pdfrwt>
<totfact> 0.18087291E+04</totfact>
</mgrwt>
</event>
<event>
 6    1  0.1274196E-001  0.3000000E+03  0.7818608E-02  0.1093470E+00
         21   -1    0    0  501  502  0.00000000000E+00  0.00000000000E+00  0.17413365544E+01  0.17413365544E+01  0.00000000000E+00 0. -1.
         13   -1    0    0    0    0 -0.00000000000E+00 -0.00000000000E+00 -0.10000000000E+04  0.10000000000E+04  0.00000000000E+00 0.  1.
    9000005    2    1    2  501    0  0.29495832763E+02  0.12258342042E+02 -0.17911051136E+03  0.18197065755E+03  0.35318305922E+01 0.  0.
         13    1    3    3    0    0  0.11291440705E+02  0.63200316102E+01 -0.67399348654E+02  0.68630253036E+02  0.00000000000E+00 0.  1.
          1    1    3    3  501    0  0.18204392059E+02  0.59383104322E+01 -0.11171116271E+03  0.11334040451E+03  0.00000000000E+00 0.  1.
         -3    1    1    2    0  502 -0.29495832763E+02 -0.12258342042E+02 -0.81914815208E+03  0.81977067901E+03  0.00000000000E+00 0. -1.
<mgrwt>
<rscale>  1 0.30000000E+03</rscale>
<asrwt>0</asrwt>
<pdfrwt beam="1">  1       21 0.63321463E-02 0.30000000E+03</pdfrwt>
<pdfrwt beam="2">0</pdfrwt>
<totfact> 0.19199743E+04</totfact>
</mgrwt>
</event>
<event>
 6    1  0.1274196E-001  0.3000000E+03  0.7818608E-02  0.1093470E+00
         21   -1    0    0  501  502  0.00000000000E+00  0.00000000000E+00  0.48924978317E+01  0.48924978317E+01  0.00000000000E+00 0. -1.
         13   -1    0    0    0    0 -0.00000000000E+00 -0.00000000000E+00 -0.10000000000E+04  0.10000000000E+04  0.00000000000E+00 0.  1.
    9000005    2    1    2  501    0  0.46591598819E+02 -0.11606953635E+02 -0.86259041715E+03  0.86394471929E+03  0.57229173526E+01 0.  0.
         13    1    3    3    0    0  0.27718852007E+02 -0.40267772350E+01 -0.49219378487E+03  0.49299013332E+03  0.00000000000E+00 0.  1.
          1    1    3    3  501    0  0.18872746812E+02 -0.75801764000E+01 -0.37039663228E+03  0.37095458597E+03  0.00000000000E+00 0.  1.
         -3    1    1    2    0  502 -0.46591598819E+02  0.11606953635E+02 -0.13251708502E+03  0.14094777854E+03  0.00000000000E+00 0. -1.
<mgrwt>
<rscale>  1 0.30000000E+03</rscale>
<asrwt>0</asrwt>
<pdfrwt beam="1">  1       21 0.17790939E-01 0.30000000E+03</pdfrwt>
<pdfrwt beam="2">0</pdfrwt>
<totfact> 0.29946847E+03</totfact>
</mgrwt>
</event>
<event>
 6    1  0.1274196E-001  0.3000000E+03  0.7818608E-02  0.1093470E+00
         21   -1    0    0  501  502  0.00000000000E+00  0.00000000000E+00  0.46361930771E+01  0.46361930771E+01  0.00000000000E+00 0. -1.
         13   -1    0    0    0    0 -0.00000000000E+00 -0.00000000000E+00 -0.10000000000E+04  0.10000000000E+04  0.00000000000E+00 0.  1.
    9000005    2    1    2  501    0  0.53942853496E+02 -0.27348200120E+02 -0.72576559200E+03  0.72833752680E+03  0.90610667709E+01 0.  0.
         13    1    3    3    0    0  0.89476011433E+01 -0.62353159466E+01 -0.17226096940E+03  0.17260585248E+03  0.00000000000E+00 0.  1.
          1    1    3    3  501    0  0.44995252353E+02 -0.21112884174E+02 -0.55350462260E+03  0.55573167433E+03  0.00000000000E+00 0.  1.
         -1    1    1    2    0  502 -0.53942853496E+02  0.27348200120E+02 -0.26959821493E+03  0.27629866627E+03  0.00000000000E+00 0. -1.
<mgrwt>
<rscale>  1 0.30000000E+03</rscale>
<asrwt>0</asrwt>
<pdfrwt beam="1">  1       21 0.16858919E-01 0.30000000E+03</pdfrwt>
<pdfrwt beam="2">0</pdfrwt>
<totfact> 0.33128079E+03</totfact>
</mgrwt>
</event>
<event>
 6    1  0.1274196E-001  0.3000000E+03  0.7818608E-02  0.1093470E+00
         21   -1    0    0  501  502  0.00000000000E+00  0.00000000000E+00  0.12739466507E+01  0.12739466507E+01  0.00000000000E+00 0. -1.
         13   -1    0    0    0    0 -0.00000000000E+00 -0.00000000000E+00 -0.10000000000E+04  0.10000000000E+04  0.00000000000E+00 0.  1.
    9000005    2    1    2  501    0 -0.32861095384E+02  0.12560895151E+02 -0.42187871411E+03  0.42335485156E+03  0.31706857313E+01 0.  0.
         13    1    3    3    0    0 -0.32686878265E+02  0.12173565639E+02 -0.41512568861E+03  0.41658848406E+03  0.00000000000E+00 0.  1.
          1    1    3    3  501    0 -0.17421711859E+00  0.38732951250E+00 -0.67530254956E+01  0.67663674967E+01  0.00000000000E+00 0.  1.
         -3    1    1    2    0  502  0.32861095384E+02 -0.12560895151E+02 -0.57684733924E+03  0.57791909509E+03  0.00000000000E+00 0. -1.
<mgrwt>
<rscale>  1 0.30000000E+03</rscale>
<asrwt>0</asrwt>
<pdfrwt beam="1">  1       21 0.46325430E-02 0.30000000E+03</pdfrwt>
<pdfrwt beam="2">0</pdfrwt>
<totfact> 0.32800520E+04</totfact>
</mgrwt>
</event>
<event>
 6    1  0.1274196E-001  0.3000000E+03  0.7818608E-02  0.1093470E+00
         21   -1    0    0  501  502  0.00000000000E+00  0.00000000000E+00  0.38317162326E+01  0.38317162326E+01  0.00000000000E+00 0. -1.
         13   -1    0    0    0    0 -0.00000000000E+00 -0.00000000000E+00 -0.10000000000E+04  0.10000000000E+04  0.00000000000E+00 0.  1.
    9000005    2    1    2  501    0 -0.56216383361E+02 -0.84904787963E+01 -0.69616462172E+03  0.69848835667E+03  0.29041139139E+01 0.  0.
         13    1    3    3    0    0 -0.55297089364E+01 -0.37404663320E+00 -0.59386407226E+02  0.59644471286E+02  0.00000000000E+00 0.  1.
          3    1    3    3  501    0 -0.50686674425E+02 -0.81164321631E+01 -0.63677821449E+03  0.63884388538E+03  0.00000000000E+00 0.  1.
         -1    1    1    2    0  502  0.56216383361E+02  0.84904787963E+01 -0.30000366205E+03  0.30534335957E+03  0.00000000000E+00 0. -1.
<mgrwt>
<rscale>  1 0.30000000E+03</rscale>
<asrwt>0</asrwt>
<pdfrwt beam="1">  1       21 0.13933543E-01 0.30000000E+03</pdfrwt>
<pdfrwt beam="2">0</pdfrwt>
<totfact> 0.47177328E+03</totfact>
</mgrwt>
</event>
<event>
 6    1  0.1274196E-001  0.3000000E+03  0.7818608E-02  0.1093470E+00
         21   -1    0    0  501  502  0.00000000000E+00  0.00000000000E+00  0.12720465296E+02  0.12720465296E+02  0.00000000000E+00 0. -1.
         13   -1    0    0    0    0 -0.00000000000E+00 -0.00000000000E+00 -0.10000000000E+04  0.10000000000E+04  0.00000000000E+00 0.  1.
    9000005    2    1    2  501    0 -0.75570740195E+02  0.26274647056E+02 -0.13699487167E+03  0.15867989129E+03  0.32278763264E+01 0.  0.
         13    1    3    3    0    0 -0.51149306041E+01  0.21654775758E+01 -0.11043802771E+02  0.12361933015E+02  0.00000000000E+00 0.  1.
          1    1    3    3  501    0 -0.70455809590E+02  0.24109169481E+02 -0.12595106890E+03  0.14631795828E+03  0.00000000000E+00 0.  1.
         -3    1    1    2    0  502  0.75570740195E+02 -0.26274647056E+02 -0.85028466304E+03  0.85404057401E+03  0.00000000000E+00 0. -1.
<mgrwt>
<rscale>  1 0.30000000E+03</rscale>
<asrwt>0</asrwt>
<pdfrwt beam="1">  1       21 0.46256335E-01 0.30000000E+03</pdfrwt>
<pdfrwt beam="2">0</pdfrwt>
<totfact> 0.44422293E+02</totfact>
</mgrwt>
</event>
<event>
 6    1  0.1274196E-001  0.3000000E+03  0.7818608E-02  0.1093470E+00
         21   -1    0    0  501  502  0.00000000000E+00  0.00000000000E+00  0.12318917297E+01  0.12318917297E+01  0.00000000000E+00 0. -1.
         13   -1    0    0    0    0 -0.00000000000E+00 -0.00000000000E+00 -0.10000000000E+04  0.10000000000E+04  0.00000000000E+00 0.  1.
    9000005    2    1    2  501    0  0.30869632709E+02  0.99134106184E+01 -0.68912689128E+03  0.68989783771E+03  0.34560464103E+01 0.  0.
         13    1    3    3    0    0  0.21237693258E+02  0.55389905136E+01 -0.48693457620E+03  0.48742897076E+03  0.00000000000E+00 0.  1.
          1    1    3    3  501    0  0.96319394514E+01  0.43744201048E+01 -0.20219231508E+03  0.20246886695E+03  0.00000000000E+00 0.  1.
         -1    1    1    2    0  502 -0.30869632709E+02 -0.99134106184E+01 -0.30964121699E+03  0.31133405402E+03  0.00000000000E+00 0. -1.
<mgrwt>
<rscale>  1 0.30000000E+03</rscale>
<asrwt>0</asrwt>
<pdfrwt beam="1">  1       21 0.44796157E-02 0.30000000E+03</pdfrwt>
<pdfrwt beam="2">0</pdfrwt>
<totfact> 0.34724637E+04</totfact>
</mgrwt>
</event>
<event>
 6    1  0.1274196E-001  0.3000000E+03  0.7818608E-02  0.1093470E+00
         21   -1    0    0  501  502  0.00000000000E+00  0.00000000000E+00  0.14993034177E+01  0.14993034177E+01  0.00000000000E+00 0. -1.
         13   -1    0    0    0    0 -0.00000000000E+00 -0.00000000000E+00 -0.10000000000E+04  0.10000000000E+04  0.00000000000E+00 0.  1.
    9000005    2    1    2  501    0 -0.36296026893E+02  0.16946355834E+01 -0.32940855180E+03  0.33142126948E+03  0.31289784346E+01 0.  0.
         13    1    3    3    0    0 -0.34797348519E+02  0.22493045476E+01 -0.31567510841E+03  0.31759516511E+03  0.00000000000E+00 0.  1.
          1    1    3    3  501    0 -0.14986783740E+01 -0.55466896419E+00 -0.13733443390E+02  0.13826104364E+02  0.00000000000E+00 0.  1.
         -3    1    1    2    0  502  0.36296026893E+02 -0.16946355834E+01 -0.66909214478E+03  0.67007803394E+03  0.00000000000E+00 0. -1.
<mgrwt>
<rscale>  1 0.30000000E+03</rscale>
<asrwt>0</asrwt>
<pdfrwt beam="1">  1       21 0.54520239E-02 0.30000000E+03</pdfrwt>
<pdfrwt beam="2">0</pdfrwt>
<totfact> 0.24844471E+04</totfact>
</mgrwt>
</event>
<event>
 6    1  0.1274196E-001  0.3000000E+03  0.7818608E-02  0.1093470E+00
         21   -1    0    0  501  502  0.00000000000E+00  0.00000000000E+00  0.14443057495E+01  0.14443057495E+01  0.00000000000E+00 0. -1.
         13   -1    0    0    0    0 -0.00000000000E+00 -0.00000000000E+00 -0.10000000000E+04  0.10000000000E+04  0.00000000000E+00 0.  1.
    9000005    2    1    2  501    0 -0.94339860183E+01  0.29861809781E+02 -0.78197498996E+03  0.78261119755E+03  0.38306427323E+01 0.  0.
         13    1    3    3    0    0 -0.93695978714E+01  0.25926760349E+02 -0.69750081389E+03  0.69804539369E+03  0.00000000000E+00 0.  1.
          3    1    3    3  501    0 -0.64388146823E-01  0.39350494316E+01 -0.84474176071E+02  0.84565803861E+02  0.00000000000E+00 0.  1.
         -3    1    1    2    0  502  0.94339860183E+01 -0.29861809781E+02 -0.21658070429E+03  0.21883310820E+03  0.00000000000E+00 0. -1.
<mgrwt>
<rscale>  1 0.30000000E+03</rscale>
<asrwt>0</asrwt>
<pdfrwt beam="1">  1       21 0.52520320E-02 0.30000000E+03</pdfrwt>
<pdfrwt beam="2">0</pdfrwt>
<totfact> 0.26485407E+04</totfact>
</mgrwt>
</event>
<event>
 6    1  0.1274196E-001  0.3000000E+03  0.7818608E-02  0.1093470E+00
         21   -1    0    0  501  502  0.00000000000E+00  0.00000000000E+00  0.13030441912E+01  0.13030441912E+01  0.00000000000E+00 0. -1.
         13   -1    0    0    0    0 -0.00000000000E+00 -0.00000000000E+00 -0.10000000000E+04  0.10000000000E+04  0.00000000000E+00 0.  1.
    9000005    2    1    2  501    0 -0.86169001683E+01  0.34798036902E+02 -0.55167806893E+03  0.55284898906E+03  0.28563300611E+01 0.  0.
         13    1    3    3    0    0 -0.66777535979E+01  0.30322066450E+02 -0.46788816804E+03  0.46891721860E+03  0.00000000000E+00 0.  1.
          1    1    3    3  501    0 -0.19391465704E+01  0.44759704522E+01 -0.83789900887E+02  0.83931770454E+02  0.00000000000E+00 0.  1.
         -1    1    1    2    0  502  0.86169001683E+01 -0.34798036902E+02 -0.44701888688E+03  0.44845405514E+03  0.00000000000E+00 0. -1.
<mgrwt>
<rscale>  1 0.30000000E+03</rscale>
<asrwt>0</asrwt>
<pdfrwt beam="1">  1       21 0.47383525E-02 0.30000000E+03</pdfrwt>
<pdfrwt beam="2">0</pdfrwt>
<totfact> 0.31565082E+04</totfact>
</mgrwt>
</event>
<event>
 6    1  0.1274196E-001  0.3000000E+03  0.7818608E-02  0.1093470E+00
         21   -1    0    0  501  502  0.00000000000E+00  0.00000000000E+00  0.12318781479E+01  0.12318781479E+01  0.00000000000E+00 0. -1.
         13   -1    0    0    0    0 -0.00000000000E+00 -0.00000000000E+00 -0.10000000000E+04  0.10000000000E+04  0.00000000000E+00 0.  1.
    9000005    2    1    2  501    0  0.13636362436E+02  0.28518851257E+02 -0.71385681637E+03  0.71457227644E+03  0.47653674707E+01 0.  0.
         13    1    3    3    0    0  0.15089807741E+01  0.98327878140E+00 -0.53625324056E+02  0.53655561131E+02  0.00000000000E+00 0.  1.
          1    1    3    3  501    0  0.12127381662E+02  0.27535572475E+02 -0.66023149231E+03  0.66091671531E+03  0.00000000000E+00 0.  1.
         -3    1    1    2    0  502 -0.13636362436E+02 -0.28518851257E+02 -0.28491130549E+03  0.28665960171E+03  0.00000000000E+00 0. -1.
<mgrwt>
<rscale>  1 0.30000000E+03</rscale>
<asrwt>0</asrwt>
<pdfrwt beam="1">  1       21 0.44795663E-02 0.30000000E+03</pdfrwt>
<pdfrwt beam="2">0</pdfrwt>
<totfact> 0.34725286E+04</totfact>
</mgrwt>
</event>
<event>
 6    1  0.1274196E-001  0.3000000E+03  0.7818608E-02  0.1093470E+00
         21   -1    0    0  501  502  0.00000000000E+00  0.00000000000E+00  0.40257927614E+01  0.40257927614E+01  0.00000000000E+00 0. -1.
         13   -1    0    0    0    0 -0.00000000000E+00 -0.00000000000E+00 -0.10000000000E+04  0.10000000000E+04  0.00000000000E+00 0.  1.
    9000005    2    1    2  501    0 -0.39194887552E+02  0.12071215940E+02 -0.88051508633E+03  0.88149921578E+03  0.72178051578E+01 0.  0.
         13    1    3    3    0    0 -0.19647341415E+02  0.59625412826E+01 -0.51717698071E+03  0.51758438858E+03  0.00000000000E+00 0.  1.
          3    1    3    3  501    0 -0.19547546137E+02  0.61086746572E+01 -0.36333810561E+03  0.36391482720E+03  0.00000000000E+00 0.  1.
         -1    1    1    2    0  502  0.39194887552E+02 -0.12071215940E+02 -0.11545912091E+03  0.12252657698E+03  0.00000000000E+00 0. -1.
<mgrwt>
<rscale>  1 0.30000000E+03</rscale>
<asrwt>0</asrwt>
<pdfrwt beam="1">  1       21 0.14639277E-01 0.30000000E+03</pdfrwt>
<pdfrwt beam="2">0</pdfrwt>
<totfact> 0.43075401E+03</totfact>
</mgrwt>
</event>
<event>
 6    1  0.1274196E-001  0.3000000E+03  0.7818608E-02  0.1093470E+00
         21   -1    0    0  501  502  0.00000000000E+00  0.00000000000E+00  0.26695400562E+01  0.26695400562E+01  0.00000000000E+00 0. -1.
         13   -1    0    0    0    0 -0.00000000000E+00 -0.00000000000E+00 -0.10000000000E+04  0.10000000000E+04  0.00000000000E+00 0.  1.
    9000005    2    1    2  501    0 -0.38493087871E+02 -0.33418980876E+02 -0.56888837939E+03  0.57120556417E+03  0.65774036897E+01 0.  0.
         13    1    3    3    0    0 -0.17770056075E+02 -0.11480217466E+02 -0.24859743240E+03  0.24949599933E+03  0.00000000000E+00 0.  1.
          1    1    3    3  501    0 -0.20723031796E+02 -0.21938763410E+02 -0.32029094699E+03  0.32170956484E+03  0.00000000000E+00 0.  1.
         -3    1    1    2    0  502  0.38493087871E+02  0.33418980876E+02 -0.42844208055E+03  0.43146397588E+03  0.00000000000E+00 0. -1.
<mgrwt>
<rscale>  1 0.30000000E+03</rscale>
<asrwt>0</asrwt>
<pdfrwt beam="1">  1       21 0.97074389E-02 0.30000000E+03</pdfrwt>
<pdfrwt beam="2">0</pdfrwt>
<totfact> 0.90715645E+03</totfact>
</mgrwt>
</event>
<event>
 6    1  0.1274196E-001  0.3000000E+03  0.7818608E-02  0.1093470E+00
         21   -1    0    0  501  502  0.00000000000E+00  0.00000000000E+00  0.23739692142E+01  0.23739692142E+01  0.00000000000E+00 0. -1.
         13   -1    0    0    0    0 -0.00000000000E+00 -0.00000000000E+00 -0.10000000000E+04  0.10000000000E+04  0.00000000000E+00 0.  1.
    9000005    2    1    2  501    0 -0.29626263536E+01  0.36353705214E+02 -0.17786045078E+03  0.18179735780E+03  0.92504223536E+01 0.  0.
         13    1    3    3    0    0 -0.19964305060E+00  0.90369889733E+01 -0.66026759905E+02  0.66642629379E+02  0.00000000000E+00 0.  1.
          3    1    3    3  501    0 -0.27629833030E+01  0.27316716240E+02 -0.11183369088E+03  0.11515472842E+03  0.00000000000E+00 0.  1.
         -1    1    1    2    0  502  0.29626263536E+01 -0.36353705214E+02 -0.81976558001E+03  0.82057661141E+03  0.00000000000E+00 0. -1.
<mgrwt>
<rscale>  1 0.30000000E+03</rscale>
<asrwt>0</asrwt>
<pdfrwt beam="1">  1       21 0.86326335E-02 0.30000000E+03</pdfrwt>
<pdfrwt beam="2">0</pdfrwt>
<totfact> 0.11171852E+04</totfact>
</mgrwt>
</event>
<event>
 6    1  0.1274196E-001  0.3000000E+03  0.7818608E-02  0.1093470E+00
         21   -1    0    0  501  502  0.00000000000E+00  0.00000000000E+00  0.10186210985E+01  0.10186210985E+01  0.00000000000E+00 0. -1.
         13   -1    0    0    0    0 -0.00000000000E+00 -0.00000000000E+00 -0.10000000000E+04  0.10000000000E+04  0.00000000000E+00 0.  1.
    9000005    2    1    2  501    0  0.31367472286E+02  0.34932174653E+01 -0.56306720672E+03  0.56396337700E+03  0.37269863499E+01 0.  0.
         13    1    3    3    0    0  0.11580184060E+02  0.60209919511E+00 -0.23704078735E+03  0.23732424666E+03  0.00000000000E+00 0.  1.
          3    1    3    3  501    0  0.19787288226E+02  0.28911182702E+01 -0.32602641937E+03  0.32663913034E+03  0.00000000000E+00 0.  1.
         -1    1    1    2    0  502 -0.31367472286E+02 -0.34932174653E+01 -0.43591417218E+03  0.43705524410E+03  0.00000000000E+00 0. -1.
<mgrwt>
<rscale>  1 0.30000000E+03</rscale>
<asrwt>0</asrwt>
<pdfrwt beam="1">  1       21 0.37040845E-02 0.30000000E+03</pdfrwt>
<pdfrwt beam="2">0</pdfrwt>
<totfact> 0.47846748E+04</totfact>
</mgrwt>
</event>
<event>
 6    1  0.1274196E-001  0.3000000E+03  0.7818608E-02  0.1093470E+00
         21   -1    0    0  501  502  0.00000000000E+00  0.00000000000E+00  0.19963148265E+01  0.19963148265E+01  0.00000000000E+00 0. -1.
         13   -1    0    0    0    0 -0.00000000000E+00 -0.00000000000E+00 -0.10000000000E+04  0.10000000000E+04  0.00000000000E+00 0.  1.
    9000005    2    1    2  501    0 -0.36914141893E+02  0.19747681780E+02 -0.67272701662E+03  0.67403665891E+03  0.33397378691E+01 0.  0.
         13    1    3    3    0    0 -0.28332776704E+02  0.13746023600E+02 -0.51635533816E+03  0.51731473461E+03  0.00000000000E+00 0.  1.
          1    1    3    3  501    0 -0.85813651892E+01  0.60016581800E+01 -0.15637167846E+03  0.15672192429E+03  0.00000000000E+00 0.  1.
         -1    1    1    2    0  502  0.36914141893E+02 -0.19747681780E+02 -0.32527666855E+03  0.32795965592E+03  0.00000000000E+00 0. -1.
<mgrwt>
<rscale>  1 0.30000000E+03</rscale>
<asrwt>0</asrwt>
<pdfrwt beam="1">  1       21 0.72593419E-02 0.30000000E+03</pdfrwt>
<pdfrwt beam="2">0</pdfrwt>
<totfact> 0.15143919E+04</totfact>
</mgrwt>
</event>
<event>
 6    1  0.1274196E-001  0.3000000E+03  0.7818608E-02  0.1093470E+00
         21   -1    0    0  501  502  0.00000000000E+00  0.00000000000E+00  0.14191179857E+01  0.14191179857E+01  0.00000000000E+00 0. -1.
         13   -1    0    0    0    0 -0.00000000000E+00 -0.00000000000E+00 -0.10000000000E+04  0.10000000000E+04  0.00000000000E+00 0.  1.
    9000005    2    1    2  501    0  0.95613936578E+01  0.35140043954E+02 -0.61874455783E+03  0.61984097906E+03  0.56363585295E+01 0.  0.
         13    1    3    3    0    0  0.60712021023E+01  0.17240255461E+02 -0.26793961939E+03  0.26856233083E+03  0.00000000000E+00 0.  1.
          3    1    3    3  501    0  0.34901915555E+01  0.17899788493E+02 -0.35080493844E+03  0.35127864823E+03  0.00000000000E+00 0.  1.
         -3    1    1    2    0  502 -0.95613936578E+01 -0.35140043954E+02 -0.37983632419E+03  0.38157813893E+03  0.00000000000E+00 0. -1.
<mgrwt>
<rscale>  1 0.30000000E+03</rscale>
<asrwt>0</asrwt>
<pdfrwt beam="1">  1       21 0.51604399E-02 0.30000000E+03</pdfrwt>
<pdfrwt beam="2">0</pdfrwt>
<totfact> 0.27293569E+04</totfact>
</mgrwt>
</event>
<event>
 6    1  0.1274196E-001  0.3000000E+03  0.7818608E-02  0.1093470E+00
         21   -1    0    0  501  502  0.00000000000E+00  0.00000000000E+00  0.99578247481E+00  0.99578247481E+00  0.00000000000E+00 0. -1.
         13   -1    0    0    0    0 -0.00000000000E+00 -0.00000000000E+00 -0.10000000000E+04  0.10000000000E+04  0.00000000000E+00 0.  1.
    9000005    2    1    2  501    0 -0.79641707473E+01  0.29394675948E+02 -0.62403599678E+03  0.62479285644E+03  0.42087039673E+01 0.  0.
         13    1    3    3    0    0 -0.38539765428E+01  0.19548604632E+02 -0.37615035706E+03  0.37667770334E+03  0.00000000000E+00 0.  1.
          3    1    3    3  501    0 -0.41101942045E+01  0.98460713157E+01 -0.24788563972E+03  0.24811515310E+03  0.00000000000E+00 0.  1.
         -3    1    1    2    0  502  0.79641707473E+01 -0.29394675948E+02 -0.37496822074E+03  0.37620292603E+03  0.00000000000E+00 0. -1.
<mgrwt>
<rscale>  1 0.30000000E+03</rscale>
<asrwt>0</asrwt>
<pdfrwt beam="1">  1       21 0.36210348E-02 0.30000000E+03</pdfrwt>
<pdfrwt beam="2">0</pdfrwt>
<totfact> 0.49702300E+04</totfact>
</mgrwt>
</event>
<event>
 6    1  0.1274196E-001  0.3000000E+03  0.7818608E-02  0.1093470E+00
         21   -1    0    0  501  502  0.00000000000E+00  0.00000000000E+00  0.42004716681E+01  0.42004716681E+01  0.00000000000E+00 0. -1.
         13   -1    0    0    0    0 -0.00000000000E+00 -0.00000000000E+00 -0.10000000000E+04  0.10000000000E+04  0.00000000000E+00 0.  1.
    9000005    2    1    2  501    0  0.14411401339E+02 -0.59267650876E+02 -0.66667737346E+03  0.66947411215E+03  0.40649263162E+01 0.  0.
         13    1    3    3    0    0  0.44362222706E+01 -0.12748348522E+02 -0.15945948942E+03  0.16002977605E+03  0.00000000000E+00 0.  1.
          3    1    3    3  501    0  0.99751790688E+01 -0.46519302354E+02 -0.50721788404E+03  0.50944433610E+03  0.00000000000E+00 0.  1.
         -3    1    1    2    0  502 -0.14411401339E+02  0.59267650876E+02 -0.32912215487E+03  0.33472635952E+03  0.00000000000E+00 0. -1.
<mgrwt>
<rscale>  1 0.30000000E+03</rscale>
<asrwt>0</asrwt>
<pdfrwt beam="1">  1       21 0.15274475E-01 0.30000000E+03</pdfrwt>
<pdfrwt beam="2">0</pdfrwt>
<totfact> 0.39819718E+03</totfact>
</mgrwt>
</event>
<event>
 6    1  0.1274196E-001  0.3000000E+03  0.7818608E-02  0.1093470E+00
         21   -1    0    0  501  502  0.00000000000E+00  0.00000000000E+00  0.14702911706E+01  0.14702911706E+01  0.00000000000E+00 0. -1.
         13   -1    0    0    0    0 -0.00000000000E+00 -0.00000000000E+00 -0.10000000000E+04  0.10000000000E+04  0.00000000000E+00 0.  1.
    9000005    2    1    2  501    0 -0.36001431011E+02  0.28741358116E+01 -0.66480674954E+03  0.66579875939E+03  0.39509592254E+01 0.  0.
         13    1    3    3    0    0 -0.26514244816E+02  0.17417863859E+01 -0.45597228447E+03  0.45674584093E+03  0.00000000000E+00 0.  1.
          1    1    3    3  501    0 -0.94871861948E+01  0.11323494257E+01 -0.20883446507E+03  0.20905291846E+03  0.00000000000E+00 0.  1.
         -1    1    1    2    0  502  0.36001431011E+02 -0.28741358116E+01 -0.33372295929E+03  0.33567153178E+03  0.00000000000E+00 0. -1.
<mgrwt>
<rscale>  1 0.30000000E+03</rscale>
<asrwt>0</asrwt>
<pdfrwt beam="1">  1       21 0.53465246E-02 0.30000000E+03</pdfrwt>
<pdfrwt beam="2">0</pdfrwt>
<totfact> 0.25689856E+04</totfact>
</mgrwt>
</event>
<event>
 6    1  0.1274196E-001  0.3000000E+03  0.7818608E-02  0.1093470E+00
         21   -1    0    0  501  502  0.00000000000E+00  0.00000000000E+00  0.33005400040E+01  0.33005400040E+01  0.00000000000E+00 0. -1.
         13   -1    0    0    0    0 -0.00000000000E+00 -0.00000000000E+00 -0.10000000000E+04  0.10000000000E+04  0.00000000000E+00 0.  1.
    9000005    2    1    2  501    0  0.12664243858E+02  0.46411703712E+02 -0.77199203968E+03  0.77350094457E+03  0.41919704776E+01 0.  0.
         13    1    3    3    0    0  0.16692314164E+01  0.31380169029E+01 -0.70362528257E+02  0.70452245290E+02  0.00000000000E+00 0.  1.
          3    1    3    3  501    0  0.10995012442E+02  0.43273686809E+02 -0.70162951142E+03  0.70304869928E+03  0.00000000000E+00 0.  1.
         -3    1    1    2    0  502 -0.12664243858E+02 -0.46411703712E+02 -0.22470742032E+03  0.22979959543E+03  0.00000000000E+00 0. -1.
<mgrwt>
<rscale>  1 0.30000000E+03</rscale>
<asrwt>0</asrwt>
<pdfrwt beam="1">  1       21 0.12001989E-01 0.30000000E+03</pdfrwt>
<pdfrwt beam="2">0</pdfrwt>
<totfact> 0.61952561E+03</totfact>
</mgrwt>
</event>
<event>
 6    1  0.1274196E-001  0.3000000E+03  0.7818608E-02  0.1093470E+00
         21   -1    0    0  501  502  0.00000000000E+00  0.00000000000E+00  0.65375593626E+01  0.65375593626E+01  0.00000000000E+00 0. -1.
         13   -1    0    0    0    0 -0.00000000000E+00 -0.00000000000E+00 -0.10000000000E+04  0.10000000000E+04  0.00000000000E+00 0.  1.
    9000005    2    1    2  501    0 -0.24735160276E+02  0.25581883155E+02 -0.94861325415E+03  0.94928626743E+03  0.33242560629E+01 0.  0.
         13    1    3    3    0    0 -0.16550122497E+02  0.15584226388E+02 -0.63584836003E+03  0.63625459654E+03  0.00000000000E+00 0.  1.
          3    1    3    3  501    0 -0.81850377785E+01  0.99976567665E+01 -0.31276489412E+03  0.31303167089E+03  0.00000000000E+00 0.  1.
         -3    1    1    2    0  502  0.24735160276E+02 -0.25581883155E+02 -0.44849186487E+02  0.57251291935E+02  0.00000000000E+00 0. -1.
<mgrwt>
<rscale>  1 0.30000000E+03</rscale>
<asrwt>0</asrwt>
<pdfrwt beam="1">  1       21 0.23772993E-01 0.30000000E+03</pdfrwt>
<pdfrwt beam="2">0</pdfrwt>
<totfact> 0.17204044E+03</totfact>
</mgrwt>
</event>
<event>
 6    1  0.1274196E-001  0.3000000E+03  0.7818608E-02  0.1093470E+00
         21   -1    0    0  501  502  0.00000000000E+00  0.00000000000E+00  0.11929722181E+01  0.11929722181E+01  0.00000000000E+00 0. -1.
         13   -1    0    0    0    0 -0.00000000000E+00 -0.00000000000E+00 -0.10000000000E+04  0.10000000000E+04  0.00000000000E+00 0.  1.
    9000005    2    1    2  501    0 -0.27878450976E+02  0.20082623926E+02 -0.53045928760E+03  0.53158662053E+03  0.40938383630E+01 0.  0.
         13    1    3    3    0    0 -0.24983509925E+02  0.19229758522E+02 -0.47478542683E+03  0.47583102138E+03  0.00000000000E+00 0.  1.
          3    1    3    3  501    0 -0.28949410515E+01  0.85286540402E+00 -0.55673860771E+02  0.55755599147E+02  0.00000000000E+00 0.  1.
         -1    1    1    2    0  502  0.27878450976E+02 -0.20082623926E+02 -0.46834774018E+03  0.46960635169E+03  0.00000000000E+00 0. -1.
<mgrwt>
<rscale>  1 0.30000000E+03</rscale>
<asrwt>0</asrwt>
<pdfrwt beam="1">  1       21 0.43380899E-02 0.30000000E+03</pdfrwt>
<pdfrwt beam="2">0</pdfrwt>
<totfact> 0.36665610E+04</totfact>
</mgrwt>
</event>
<event>
 6    1  0.1274196E-001  0.3000000E+03  0.7818608E-02  0.1093470E+00
         21   -1    0    0  501  502  0.00000000000E+00  0.00000000000E+00  0.20743808597E+01  0.20743808597E+01  0.00000000000E+00 0. -1.
         13   -1    0    0    0    0 -0.00000000000E+00 -0.00000000000E+00 -0.10000000000E+04  0.10000000000E+04  0.00000000000E+00 0.  1.
    9000005    2    1    2  501    0 -0.31079967152E+02  0.20364267079E+02 -0.78817846921E+03  0.78906138915E+03  0.34509121395E+01 0.  0.
         13    1    3    3    0    0 -0.10536702131E+02  0.51082942178E+01 -0.23588952622E+03  0.23617998505E+03  0.00000000000E+00 0.  1.
          1    1    3    3  501    0 -0.20543265021E+02  0.15255972861E+02 -0.55228894299E+03  0.55288140409E+03  0.00000000000E+00 0.  1.
         -3    1    1    2    0  502  0.31079967152E+02 -0.20364267079E+02 -0.20974714993E+03  0.21301299171E+03  0.00000000000E+00 0. -1.
<mgrwt>
<rscale>  1 0.30000000E+03</rscale>
<asrwt>0</asrwt>
<pdfrwt beam="1">  1       21 0.75432190E-02 0.30000000E+03</pdfrwt>
<pdfrwt beam="2">0</pdfrwt>
<totfact> 0.14161257E+04</totfact>
</mgrwt>
</event>
<event>
 6    1  0.1274196E-001  0.3000000E+03  0.7818608E-02  0.1093470E+00
         21   -1    0    0  501  502  0.00000000000E+00  0.00000000000E+00  0.20608049034E+01  0.20608049034E+01  0.00000000000E+00 0. -1.
         13   -1    0    0    0    0 -0.00000000000E+00 -0.00000000000E+00 -0.10000000000E+04  0.10000000000E+04  0.00000000000E+00 0.  1.
    9000005    2    1    2  501    0 -0.10488562816E+02  0.41860302361E+02 -0.34610938954E+03  0.34880404813E+03  0.32030606472E+01 0.  0.
         13    1    3    3    0    0 -0.47224135453E+01  0.21222373086E+02 -0.18634510628E+03  0.18760913875E+03  0.00000000000E+00 0.  1.
          3    1    3    3  501    0 -0.57661492705E+01  0.20637929275E+02 -0.15976428327E+03  0.16119490938E+03  0.00000000000E+00 0.  1.
         -3    1    1    2    0  502  0.10488562816E+02 -0.41860302361E+02 -0.65182980555E+03  0.65325675677E+03  0.00000000000E+00 0. -1.
<mgrwt>
<rscale>  1 0.30000000E+03</rscale>
<asrwt>0</asrwt>
<pdfrwt beam="1">  1       21 0.74938518E-02 0.30000000E+03</pdfrwt>
<pdfrwt beam="2">0</pdfrwt>
<totfact> 0.14325017E+04</totfact>
</mgrwt>
</event>
<event>
 6    1  0.1274196E-001  0.3000000E+03  0.7818608E-02  0.1093470E+00
         21   -1    0    0  501  502  0.00000000000E+00  0.00000000000E+00  0.33079104755E+01  0.33079104755E+01  0.00000000000E+00 0. -1.
         13   -1    0    0    0    0 -0.00000000000E+00 -0.00000000000E+00 -0.10000000000E+04  0.10000000000E+04  0.00000000000E+00 0.  1.
    9000005    2    1    2  501    0  0.25259580505E+02  0.46065807654E+02 -0.70187876263E+03  0.70385006243E+03  0.33178167488E+01 0.  0.
         13    1    3    3    0    0  0.74809888858E+01  0.12473160233E+02 -0.17641508623E+03  0.17701363668E+03  0.00000000000E+00 0.  1.
          3    1    3    3  501    0  0.17778591619E+02  0.33592647421E+02 -0.52546367641E+03  0.52683642576E+03  0.00000000000E+00 0.  1.
         -1    1    1    2    0  502 -0.25259580505E+02 -0.46065807654E+02 -0.29481332689E+03  0.29945784804E+03  0.00000000000E+00 0. -1.
<mgrwt>
<rscale>  1 0.30000000E+03</rscale>
<asrwt>0</asrwt>
<pdfrwt beam="1">  1       21 0.12028791E-01 0.30000000E+03</pdfrwt>
<pdfrwt beam="2">0</pdfrwt>
<totfact> 0.61702222E+03</totfact>
</mgrwt>
</event>
<event>
 6    1  0.1274196E-001  0.3000000E+03  0.7818608E-02  0.1093470E+00
         21   -1    0    0  501  502  0.00000000000E+00  0.00000000000E+00  0.32423601826E+01  0.32423601826E+01  0.00000000000E+00 0. -1.
         13   -1    0    0    0    0 -0.00000000000E+00 -0.00000000000E+00 -0.10000000000E+04  0.10000000000E+04  0.00000000000E+00 0.  1.
    9000005    2    1    2  501    0 -0.91497556531E+01 -0.30430564855E+02 -0.91453553022E+03  0.91509355071E+03  0.33515963218E+01 0.  0.
         13    1    3    3    0    0 -0.87178787403E+01 -0.29508320362E+02 -0.86388128854E+03  0.86442907347E+03  0.00000000000E+00 0.  1.
          3    1    3    3  501    0 -0.43187691278E+00 -0.92224449354E+00 -0.50654241687E+02  0.50664477234E+02  0.00000000000E+00 0.  1.
         -3    1    1    2    0  502  0.91497556531E+01  0.30430564855E+02 -0.82222109593E+02  0.88148809475E+02  0.00000000000E+00 0. -1.
<mgrwt>
<rscale>  1 0.30000000E+03</rscale>
<asrwt>0</asrwt>
<pdfrwt beam="1">  1       21 0.11790426E-01 0.30000000E+03</pdfrwt>
<pdfrwt beam="2">0</pdfrwt>
<totfact> 0.63982809E+03</totfact>
</mgrwt>
</event>
<event>
 6    1  0.1274196E-001  0.3000000E+03  0.7818608E-02  0.1093470E+00
         21   -1    0    0  501  502  0.00000000000E+00  0.00000000000E+00  0.26508718027E+01  0.26508718027E+01  0.00000000000E+00 0. -1.
         13   -1    0    0    0    0 -0.00000000000E+00 -0.00000000000E+00 -0.10000000000E+04  0.10000000000E+04  0.00000000000E+00 0.  1.
    9000005    2    1    2  501    0  0.24143119183E+02 -0.25376272652E+02 -0.86553848851E+03  0.86626579141E+03  0.57184671125E+01 0.  0.
         13    1    3    3    0    0  0.20584302646E+02 -0.18822187017E+02 -0.64957980895E+03  0.65017837279E+03  0.00000000000E+00 0.  1.
          3    1    3    3  501    0  0.35588165374E+01 -0.65540856352E+01 -0.21595867956E+03  0.21608741863E+03  0.00000000000E+00 0.  1.
         -3    1    1    2    0  502 -0.24143119183E+02  0.25376272652E+02 -0.13181063969E+03  0.13638508039E+03  0.00000000000E+00 0. -1.
<mgrwt>
<rscale>  1 0.30000000E+03</rscale>
<asrwt>0</asrwt>
<pdfrwt beam="1">  1       21 0.96395542E-02 0.30000000E+03</pdfrwt>
<pdfrwt beam="2">0</pdfrwt>
<totfact> 0.91858194E+03</totfact>
</mgrwt>
</event>
<event>
 6    1  0.1274196E-001  0.3000000E+03  0.7818608E-02  0.1093470E+00
         21   -1    0    0  501  502  0.00000000000E+00  0.00000000000E+00  0.20943252539E+01  0.20943252539E+01  0.00000000000E+00 0. -1.
         13   -1    0    0    0    0 -0.00000000000E+00 -0.00000000000E+00 -0.10000000000E+04  0.10000000000E+04  0.00000000000E+00 0.  1.
    9000005    2    1    2  501    0 -0.37282250775E+02 -0.45855996199E+01 -0.78425270662E+03  0.78516441783E+03  0.44565946244E+01 0.  0.
         13    1    3    3    0    0 -0.28474964127E+02 -0.46405072806E+01 -0.63037343756E+03  0.63103330234E+03  0.00000000000E+00 0.  1.
          1    1    3    3  501    0 -0.88072866476E+01  0.54907660714E-01 -0.15387926907E+03  0.15413111549E+03  0.00000000000E+00 0.  1.
         -3    1    1    2    0  502  0.37282250775E+02  0.45855996199E+01 -0.21365296812E+03  0.21692990742E+03  0.00000000000E+00 0. -1.
<mgrwt>
<rscale>  1 0.30000000E+03</rscale>
<asrwt>0</asrwt>
<pdfrwt beam="1">  1       21 0.76157443E-02 0.30000000E+03</pdfrwt>
<pdfrwt beam="2">0</pdfrwt>
<totfact> 0.13925875E+04</totfact>
</mgrwt>
</event>
<event>
 6    1  0.1274196E-001  0.3000000E+03  0.7818608E-02  0.1093470E+00
         21   -1    0    0  501  502  0.00000000000E+00  0.00000000000E+00  0.15577771042E+01  0.15577771042E+01  0.00000000000E+00 0. -1.
         13   -1    0    0    0    0 -0.00000000000E+00 -0.00000000000E+00 -0.10000000000E+04  0.10000000000E+04  0.00000000000E+00 0.  1.
    9000005    2    1    2  501    0 -0.13415647661E+02  0.30145013468E+02 -0.77314905878E+03  0.77386124390E+03  0.36133458141E+01 0.  0.
         13    1    3    3    0    0 -0.90104927060E+01  0.15826996696E+02 -0.42561921195E+03  0.42600868111E+03  0.00000000000E+00 0.  1.
          3    1    3    3  501    0 -0.44051549549E+01  0.14318016772E+02 -0.34752984684E+03  0.34785256279E+03  0.00000000000E+00 0.  1.
         -3    1    1    2    0  502  0.13415647661E+02 -0.30145013468E+02 -0.22529316411E+03  0.22769653321E+03  0.00000000000E+00 0. -1.
<mgrwt>
<rscale>  1 0.30000000E+03</rscale>
<asrwt>0</asrwt>
<pdfrwt beam="1">  1       21 0.56646560E-02 0.30000000E+03</pdfrwt>
<pdfrwt beam="2">0</pdfrwt>
<totfact> 0.23265708E+04</totfact>
</mgrwt>
</event>
<event>
 6    1  0.1274196E-001  0.3000000E+03  0.7818608E-02  0.1093470E+00
         21   -1    0    0  501  502  0.00000000000E+00  0.00000000000E+00  0.19432362412E+01  0.19432362412E+01  0.00000000000E+00 0. -1.
         13   -1    0    0    0    0 -0.00000000000E+00 -0.00000000000E+00 -0.10000000000E+04  0.10000000000E+04  0.00000000000E+00 0.  1.
    9000005    2    1    2  501    0 -0.31158035717E+02 -0.25745259725E+02 -0.69754142803E+03  0.69872201568E+03  0.38431491250E+01 0.  0.
         13    1    3    3    0    0 -0.95771639671E+01 -0.57204633438E+01 -0.19655879309E+03  0.19687509977E+03  0.00000000000E+00 0.  1.
          1    1    3    3  501    0 -0.21580871750E+02 -0.20024796381E+02 -0.50098263494E+03  0.50184691591E+03  0.00000000000E+00 0.  1.
         -1    1    1    2    0  502  0.31158035717E+02  0.25745259725E+02 -0.30051533573E+03  0.30322122056E+03  0.00000000000E+00 0. -1.
<mgrwt>
<rscale>  1 0.30000000E+03</rscale>
<asrwt>0</asrwt>
<pdfrwt beam="1">  1       21 0.70663285E-02 0.30000000E+03</pdfrwt>
<pdfrwt beam="2">0</pdfrwt>
<totfact> 0.15872521E+04</totfact>
</mgrwt>
</event>
<event>
 6    1  0.1274196E-001  0.3000000E+03  0.7818608E-02  0.1093470E+00
         21   -1    0    0  501  502  0.00000000000E+00  0.00000000000E+00  0.11695107746E+01  0.11695107746E+01  0.00000000000E+00 0. -1.
         13   -1    0    0    0    0 -0.00000000000E+00 -0.00000000000E+00 -0.10000000000E+04  0.10000000000E+04  0.00000000000E+00 0.  1.
    9000005    2    1    2  501    0 -0.84560881263E+00 -0.32108367756E+02 -0.33245740092E+03  0.33402278392E+03  0.34109261865E+01 0.  0.
         13    1    3    3    0    0  0.86488680385E+00 -0.16649436285E+02 -0.16060853360E+03  0.16147152326E+03  0.00000000000E+00 0.  1.
          3    1    3    3  501    0 -0.17104956165E+01 -0.15458931471E+02 -0.17184886731E+03  0.17255126066E+03  0.00000000000E+00 0.  1.
         -3    1    1    2    0  502  0.84560881263E+00  0.32108367756E+02 -0.66637308831E+03  0.66714672686E+03  0.00000000000E+00 0. -1.
<mgrwt>
<rscale>  1 0.30000000E+03</rscale>
<asrwt>0</asrwt>
<pdfrwt beam="1">  1       21 0.42527754E-02 0.30000000E+03</pdfrwt>
<pdfrwt beam="2">0</pdfrwt>
<totfact> 0.37918089E+04</totfact>
</mgrwt>
</event>
<event>
 6    1  0.1274196E-001  0.3000000E+03  0.7818608E-02  0.1093470E+00
         21   -1    0    0  501  502  0.00000000000E+00  0.00000000000E+00  0.37598275200E+01  0.37598275200E+01  0.00000000000E+00 0. -1.
         13   -1    0    0    0    0 -0.00000000000E+00 -0.00000000000E+00 -0.10000000000E+04  0.10000000000E+04  0.00000000000E+00 0.  1.
    9000005    2    1    2  501    0  0.70945654793E+01 -0.59690767437E+02 -0.59586486508E+03  0.59889724917E+03  0.31075784781E+01 0.  0.
         13    1    3    3    0    0  0.69044084231E+01 -0.56737283788E+02 -0.57238707894E+03  0.57523365546E+03  0.00000000000E+00 0.  1.
          3    1    3    3  501    0  0.19015705623E+00 -0.29534836497E+01 -0.23477786136E+02  0.23663593709E+02  0.00000000000E+00 0.  1.
         -3    1    1    2    0  502 -0.70945654793E+01  0.59690767437E+02 -0.40037530740E+03  0.40486257835E+03  0.00000000000E+00 0. -1.
<mgrwt>
<rscale>  1 0.30000000E+03</rscale>
<asrwt>0</asrwt>
<pdfrwt beam="1">  1       21 0.13672129E-01 0.30000000E+03</pdfrwt>
<pdfrwt beam="2">0</pdfrwt>
<totfact> 0.48845729E+03</totfact>
</mgrwt>
</event>
<event>
 6    1  0.1274196E-001  0.3000000E+03  0.7818608E-02  0.1093470E+00
         21   -1    0    0  501  502  0.00000000000E+00  0.00000000000E+00  0.90867652534E+01  0.90867652534E+01  0.00000000000E+00 0. -1.
         13   -1    0    0    0    0 -0.00000000000E+00 -0.00000000000E+00 -0.10000000000E+04  0.10000000000E+04  0.00000000000E+00 0.  1.
    9000005    2    1    2  501    0 -0.38551526997E+02  0.10567511317E+02 -0.95347474685E+03  0.95431877364E+03  0.35123093348E+01 0.  0.
         13    1    3    3    0    0 -0.12823444566E+02  0.20947182875E+01 -0.33109326315E+03  0.33134812128E+03  0.00000000000E+00 0.  1.
          1    1    3    3  501    0 -0.25728082431E+02  0.84727930295E+01 -0.62238148370E+03  0.62297065236E+03  0.00000000000E+00 0.  1.
         -3    1    1    2    0  502  0.38551526997E+02 -0.10567511317E+02 -0.37438487900E+02  0.54767991615E+02  0.00000000000E+00 0. -1.
<mgrwt>
<rscale>  1 0.30000000E+03</rscale>
<asrwt>0</asrwt>
<pdfrwt beam="1">  1       21 0.33042852E-01 0.30000000E+03</pdfrwt>
<pdfrwt beam="2">0</pdfrwt>
<totfact> 0.89485465E+02</totfact>
</mgrwt>
</event>
<event>
 6    1  0.1274196E-001  0.3000000E+03  0.7818608E-02  0.1093470E+00
         21   -1    0    0  501  502  0.00000000000E+00  0.00000000000E+00  0.14076001467E+01  0.14076001467E+01  0.00000000000E+00 0. -1.
         13   -1    0    0    0    0 -0.00000000000E+00 -0.00000000000E+00 -0.10000000000E+04  0.10000000000E+04  0.00000000000E+00 0.  1.
    9000005    2    1    2  501    0 -0.55883696662E+01 -0.32236838486E+02 -0.74328914049E+03  0.74401646224E+03  0.33624520205E+01 0.  0.
         13    1    3    3    0    0 -0.41261601561E+01 -0.22898564271E+02 -0.56127920542E+03  0.56176126235E+03  0.00000000000E+00 0.  1.
          1    1    3    3  501    0 -0.14622095102E+01 -0.93382742146E+01 -0.18200993508E+03  0.18225519989E+03  0.00000000000E+00 0.  1.
         -3    1    1    2    0  502  0.55883696662E+01  0.32236838486E+02 -0.25530325936E+03  0.25739113791E+03  0.00000000000E+00 0. -1.
<mgrwt>
<rscale>  1 0.30000000E+03</rscale>
<asrwt>0</asrwt>
<pdfrwt beam="1">  1       21 0.51185568E-02 0.30000000E+03</pdfrwt>
<pdfrwt beam="2">0</pdfrwt>
<totfact> 0.27675943E+04</totfact>
</mgrwt>
</event>
<event>
 6    1  0.1274196E-001  0.3000000E+03  0.7818608E-02  0.1093470E+00
         21   -1    0    0  501  502  0.00000000000E+00  0.00000000000E+00  0.25894193908E+01  0.25894193908E+01  0.00000000000E+00 0. -1.
         13   -1    0    0    0    0 -0.00000000000E+00 -0.00000000000E+00 -0.10000000000E+04  0.10000000000E+04  0.00000000000E+00 0.  1.
    9000005    2    1    2  501    0 -0.45258672348E+02  0.13381375914E+02 -0.68522376147E+03  0.68685532448E+03  0.33503494143E+01 0.  0.
         13    1    3    3    0    0 -0.37723339506E+02  0.11469695295E+02 -0.55375935690E+03  0.55516126451E+03  0.00000000000E+00 0.  1.
          1    1    3    3  501    0 -0.75353328417E+01  0.19116806190E+01 -0.13146440457E+03  0.13169405998E+03  0.00000000000E+00 0.  1.
         -1    1    1    2    0  502  0.45258672348E+02 -0.13381375914E+02 -0.31218681914E+03  0.31573409491E+03  0.00000000000E+00 0. -1.
<mgrwt>
<rscale>  1 0.30000000E+03</rscale>
<asrwt>0</asrwt>
<pdfrwt beam="1">  1       21 0.94160904E-02 0.30000000E+03</pdfrwt>
<pdfrwt beam="2">0</pdfrwt>
<totfact> 0.95778288E+03</totfact>
</mgrwt>
</event>
<event>
 6    1  0.1274196E-001  0.3000000E+03  0.7818608E-02  0.1093470E+00
         21   -1    0    0  501  502  0.00000000000E+00  0.00000000000E+00  0.23012756395E+01  0.23012756395E+01  0.00000000000E+00 0. -1.
         13   -1    0    0    0    0 -0.00000000000E+00 -0.00000000000E+00 -0.10000000000E+04  0.10000000000E+04  0.00000000000E+00 0.  1.
    9000005    2    1    2  501    0  0.80613444710E+01  0.29080295250E+02 -0.88806485316E+03  0.88859008639E+03  0.47444033169E+01 0.  0.
         13    1    3    3    0    0  0.13287850640E+01  0.18472168521E+01 -0.43518374827E+02  0.43577824950E+02  0.00000000000E+00 0.  1.
          3    1    3    3  501    0  0.67325594069E+01  0.27233078398E+02 -0.84454647834E+03  0.84501226144E+03  0.00000000000E+00 0.  1.
         -3    1    1    2    0  502 -0.80613444710E+01 -0.29080295250E+02 -0.10963387120E+03  0.11371118925E+03  0.00000000000E+00 0. -1.
<mgrwt>
<rscale>  1 0.30000000E+03</rscale>
<asrwt>0</asrwt>
<pdfrwt beam="1">  1       21 0.83682927E-02 0.30000000E+03</pdfrwt>
<pdfrwt beam="2">0</pdfrwt>
<totfact> 0.11801636E+04</totfact>
</mgrwt>
</event>
<event>
 6    1  0.1274196E-001  0.3000000E+03  0.7818608E-02  0.1093470E+00
         21   -1    0    0  501  502  0.00000000000E+00  0.00000000000E+00  0.13973417842E+01  0.13973417842E+01  0.00000000000E+00 0. -1.
         13   -1    0    0    0    0 -0.00000000000E+00 -0.00000000000E+00 -0.10000000000E+04  0.10000000000E+04  0.00000000000E+00 0.  1.
    9000005    2    1    2  501    0 -0.14805807461E+02  0.32496564891E+02 -0.64504302346E+03  0.64603885519E+03  0.32344457563E+01 0.  0.
         13    1    3    3    0    0 -0.66577550315E+01  0.18231956319E+02 -0.33873568264E+03  0.33929130939E+03  0.00000000000E+00 0.  1.
          1    1    3    3  501    0 -0.81480524292E+01  0.14264608572E+02 -0.30630734082E+03  0.30674754580E+03  0.00000000000E+00 0.  1.
         -1    1    1    2    0  502  0.14805807461E+02 -0.32496564891E+02 -0.35355963476E+03  0.35535848659E+03  0.00000000000E+00 0. -1.
<mgrwt>
<rscale>  1 0.30000000E+03</rscale>
<asrwt>0</asrwt>
<pdfrwt beam="1">  1       21 0.50812536E-02 0.30000000E+03</pdfrwt>
<pdfrwt beam="2">0</pdfrwt>
<totfact> 0.28023558E+04</totfact>
</mgrwt>
</event>
<event>
 6    1  0.1274196E-001  0.3000000E+03  0.7818608E-02  0.1093470E+00
         21   -1    0    0  501  502  0.00000000000E+00  0.00000000000E+00  0.11192389375E+01  0.11192389375E+01  0.00000000000E+00 0. -1.
         13   -1    0    0    0    0 -0.00000000000E+00 -0.00000000000E+00 -0.10000000000E+04  0.10000000000E+04  0.00000000000E+00 0.  1.
    9000005    2    1    2  501    0  0.29140200893E+02  0.12538603885E+02 -0.65567677337E+03  0.65645223288E+03  0.33369181950E+01 0.  0.
         13    1    3    3    0    0  0.10325395141E+01  0.46669209501E+00 -0.39913534685E+02  0.39929615456E+02  0.00000000000E+00 0.  1.
          3    1    3    3  501    0  0.28107661379E+02  0.12071911790E+02 -0.61576323868E+03  0.61652261742E+03  0.00000000000E+00 0.  1.
         -1    1    1    2    0  502 -0.29140200893E+02 -0.12538603885E+02 -0.34320398769E+03  0.34466700606E+03  0.00000000000E+00 0. -1.
<mgrwt>
<rscale>  1 0.30000000E+03</rscale>
<asrwt>0</asrwt>
<pdfrwt beam="1">  1       21 0.40699684E-02 0.30000000E+03</pdfrwt>
<pdfrwt beam="2">0</pdfrwt>
<totfact> 0.40836655E+04</totfact>
</mgrwt>
</event>
<event>
 6    1  0.1274196E-001  0.3000000E+03  0.7818608E-02  0.1093470E+00
         21   -1    0    0  501  502  0.00000000000E+00  0.00000000000E+00  0.61828413628E+01  0.61828413628E+01  0.00000000000E+00 0. -1.
         13   -1    0    0    0    0 -0.00000000000E+00 -0.00000000000E+00 -0.10000000000E+04  0.10000000000E+04  0.00000000000E+00 0.  1.
    9000005    2    1    2  501    0  0.52469286651E+02 -0.43199006364E+02 -0.74957331045E+03  0.75265919834E+03  0.40670529159E+01 0.  0.
         13    1    3    3    0    0  0.47610754613E+02 -0.38158813720E+02 -0.66141659882E+03  0.66422495905E+03  0.00000000000E+00 0.  1.
          3    1    3    3  501    0  0.48585320385E+01 -0.50401926442E+01 -0.88156711624E+02  0.88434239296E+02  0.00000000000E+00 0.  1.
         -1    1    1    2    0  502 -0.52469286651E+02  0.43199006364E+02 -0.24424384819E+03  0.25352364302E+03  0.00000000000E+00 0. -1.
<mgrwt>
<rscale>  1 0.30000000E+03</rscale>
<asrwt>0</asrwt>
<pdfrwt beam="1">  1       21 0.22483107E-01 0.30000000E+03</pdfrwt>
<pdfrwt beam="2">0</pdfrwt>
<totfact> 0.19166386E+03</totfact>
</mgrwt>
</event>
<event>
 6    1  0.1274196E-001  0.3000000E+03  0.7818608E-02  0.1093470E+00
         21   -1    0    0  501  502  0.00000000000E+00  0.00000000000E+00  0.13592054944E+01  0.13592054944E+01  0.00000000000E+00 0. -1.
         13   -1    0    0    0    0 -0.00000000000E+00 -0.00000000000E+00 -0.10000000000E+04  0.10000000000E+04  0.00000000000E+00 0.  1.
    9000005    2    1    2  501    0 -0.80727149503E+01  0.35568729089E+02 -0.54152549358E+03  0.54279110635E+03  0.64824159278E+01 0.  0.
         13    1    3    3    0    0  0.37638965993E+00  0.12024770242E+02 -0.17516433066E+03  0.17557699024E+03  0.00000000000E+00 0.  1.
          3    1    3    3  501    0 -0.84491046102E+01  0.23543958846E+02 -0.36636116293E+03  0.36721411611E+03  0.00000000000E+00 0.  1.
         -1    1    1    2    0  502  0.80727149503E+01 -0.35568729089E+02 -0.45711530092E+03  0.45856809914E+03  0.00000000000E+00 0. -1.
<mgrwt>
<rscale>  1 0.30000000E+03</rscale>
<asrwt>0</asrwt>
<pdfrwt beam="1">  1       21 0.49425759E-02 0.30000000E+03</pdfrwt>
<pdfrwt beam="2">0</pdfrwt>
<totfact> 0.29377329E+04</totfact>
</mgrwt>
</event>
<event>
 6    1  0.1274196E-001  0.3000000E+03  0.7818608E-02  0.1093470E+00
         21   -1    0    0  501  502  0.00000000000E+00  0.00000000000E+00  0.11867340722E+01  0.11867340722E+01  0.00000000000E+00 0. -1.
         13   -1    0    0    0    0 -0.00000000000E+00 -0.00000000000E+00 -0.10000000000E+04  0.10000000000E+04  0.00000000000E+00 0.  1.
    9000005    2    1    2  501    0 -0.13991887582E+02 -0.27065539922E+02 -0.73187177912E+03  0.73251207254E+03  0.30527000364E+01 0.  0.
         13    1    3    3    0    0 -0.28617751115E+01 -0.37273704879E+01 -0.13091127761E+03  0.13099559402E+03  0.00000000000E+00 0.  1.
          3    1    3    3  501    0 -0.11130112471E+02 -0.23338169434E+02 -0.60096050151E+03  0.60151647852E+03  0.00000000000E+00 0.  1.
         -1    1    1    2    0  502  0.13991887582E+02  0.27065539922E+02 -0.26694148680E+03  0.26867466153E+03  0.00000000000E+00 0. -1.
<mgrwt>
<rscale>  1 0.30000000E+03</rscale>
<asrwt>0</asrwt>
<pdfrwt beam="1">  1       21 0.43154057E-02 0.30000000E+03</pdfrwt>
<pdfrwt beam="2">0</pdfrwt>
<totfact> 0.36992297E+04</totfact>
</mgrwt>
</event>
<event>
 6    1  0.1274196E-001  0.3000000E+03  0.7818608E-02  0.1093470E+00
         21   -1    0    0  501  502  0.00000000000E+00  0.00000000000E+00  0.20515252110E+01  0.20515252110E+01  0.00000000000E+00 0. -1.
         13   -1    0    0    0    0 -0.00000000000E+00 -0.00000000000E+00 -0.10000000000E+04  0.10000000000E+04  0.00000000000E+00 0.  1.
    9000005    2    1    2  501    0 -0.30548227313E+02 -0.70078015590E+01 -0.86050148344E+03  0.86107642491E+03  0.27391704096E+01 0.  0.
         13    1    3    3    0    0 -0.67317535945E+01 -0.24365728518E+01 -0.21742644342E+03  0.21754427525E+03  0.00000000000E+00 0.  1.
          3    1    3    3  501    0 -0.23816473719E+02 -0.45712287073E+01 -0.64307504002E+03  0.64353214966E+03  0.00000000000E+00 0.  1.
         -1    1    1    2    0  502  0.30548227313E+02  0.70078015590E+01 -0.13744699135E+03  0.14097510031E+03  0.00000000000E+00 0. -1.
<mgrwt>
<rscale>  1 0.30000000E+03</rscale>
<asrwt>0</asrwt>
<pdfrwt beam="1">  1       21 0.74601074E-02 0.30000000E+03</pdfrwt>
<pdfrwt beam="2">0</pdfrwt>
<totfact> 0.14438645E+04</totfact>
</mgrwt>
</event>
<event>
 6    1  0.1274196E-001  0.3000000E+03  0.7818608E-02  0.1093470E+00
         21   -1    0    0  501  502  0.00000000000E+00  0.00000000000E+00  0.62792959964E+01  0.62792959964E+01  0.00000000000E+00 0. -1.
         13   -1    0    0    0    0 -0.00000000000E+00 -0.00000000000E+00 -0.10000000000E+04  0.10000000000E+04  0.00000000000E+00 0.  1.
    9000005    2    1    2  501    0  0.22646699004E+02 -0.30990705165E+02 -0.93699813205E+03  0.93779026803E+03  0.34337399856E+01 0.  0.
         13    1    3    3    0    0  0.21752013926E+02 -0.30243781017E+02 -0.91873337158E+03  0.91948836015E+03  0.00000000000E+00 0.  1.
          1    1    3    3  501    0  0.89468507787E+00 -0.74692414850E+00 -0.18264760469E+02  0.18301907880E+02  0.00000000000E+00 0.  1.
         -1    1    1    2    0  502 -0.22646699004E+02  0.30990705165E+02 -0.56722571958E+02  0.68489027967E+02  0.00000000000E+00 0. -1.
<mgrwt>
<rscale>  1 0.30000000E+03</rscale>
<asrwt>0</asrwt>
<pdfrwt beam="1">  1       21 0.22833852E-01 0.30000000E+03</pdfrwt>
<pdfrwt beam="2">0</pdfrwt>
<totfact> 0.18601794E+03</totfact>
</mgrwt>
</event>
<event>
 6    1  0.1274196E-001  0.3000000E+03  0.7818608E-02  0.1093470E+00
         21   -1    0    0  501  502  0.00000000000E+00  0.00000000000E+00  0.74369960602E+01  0.74369960602E+01  0.00000000000E+00 0. -1.
         13   -1    0    0    0    0 -0.00000000000E+00 -0.00000000000E+00 -0.10000000000E+04  0.10000000000E+04  0.00000000000E+00 0.  1.
    9000005    2    1    2  501    0  0.62884407543E+01  0.55064783871E+02 -0.88212793892E+03  0.88387495296E+03  0.36819738749E+01 0.  0.
         13    1    3    3    0    0  0.30009288209E+01  0.16701353071E+02 -0.24954441406E+03  0.25012068159E+03  0.00000000000E+00 0.  1.
          3    1    3    3  501    0  0.32875119334E+01  0.38363430799E+02 -0.63258352486E+03  0.63375427137E+03  0.00000000000E+00 0.  1.
         -3    1    1    2    0  502 -0.62884407543E+01 -0.55064783871E+02 -0.11043506502E+03  0.12356204310E+03  0.00000000000E+00 0. -1.
<mgrwt>
<rscale>  1 0.30000000E+03</rscale>
<asrwt>0</asrwt>
<pdfrwt beam="1">  1       21 0.27043679E-01 0.30000000E+03</pdfrwt>
<pdfrwt beam="2">0</pdfrwt>
<totfact> 0.13362045E+03</totfact>
</mgrwt>
</event>
<event>
 6    1  0.1274196E-001  0.3000000E+03  0.7818608E-02  0.1093470E+00
         21   -1    0    0  501  502  0.00000000000E+00  0.00000000000E+00  0.56080125101E+01  0.56080125101E+01  0.00000000000E+00 0. -1.
         13   -1    0    0    0    0 -0.00000000000E+00 -0.00000000000E+00 -0.10000000000E+04  0.10000000000E+04  0.00000000000E+00 0.  1.
    9000005    2    1    2  501    0 -0.52049435984E+02  0.38209359039E+02 -0.75152079986E+03  0.75430040681E+03  0.40610564498E+01 0.  0.
         13    1    3    3    0    0 -0.14060019536E+02  0.95818940530E+01 -0.21828897850E+03  0.21895107896E+03  0.00000000000E+00 0.  1.
          1    1    3    3  501    0 -0.37989416449E+02  0.28627464986E+02 -0.53323182136E+03  0.53534932785E+03  0.00000000000E+00 0.  1.
         -3    1    1    2    0  502  0.52049435984E+02 -0.38209359039E+02 -0.24287118763E+03  0.25130760570E+03  0.00000000000E+00 0. -1.
<mgrwt>
<rscale>  1 0.30000000E+03</rscale>
<asrwt>0</asrwt>
<pdfrwt beam="1">  1       21 0.20392816E-01 0.30000000E+03</pdfrwt>
<pdfrwt beam="2">0</pdfrwt>
<totfact> 0.23116931E+03</totfact>
</mgrwt>
</event>
<event>
 6    1  0.1274196E-001  0.3000000E+03  0.7818608E-02  0.1093470E+00
         21   -1    0    0  501  502  0.00000000000E+00  0.00000000000E+00  0.80254580257E+01  0.80254580257E+01  0.00000000000E+00 0. -1.
         13   -1    0    0    0    0 -0.00000000000E+00 -0.00000000000E+00 -0.10000000000E+04  0.10000000000E+04  0.00000000000E+00 0.  1.
    9000005    2    1    2  501    0 -0.26063674186E+02  0.82822923901E+02 -0.37326941340E+03  0.38325751074E+03  0.41608557485E+01 0.  0.
         13    1    3    3    0    0 -0.68411595249E+01  0.24866332784E+02 -0.10368210745E+03  0.10684154330E+03  0.00000000000E+00 0.  1.
          3    1    3    3  501    0 -0.19222514661E+02  0.57956591117E+02 -0.26958730595E+03  0.27641596743E+03  0.00000000000E+00 0.  1.
         -3    1    1    2    0  502  0.26063674186E+02 -0.82822923901E+02 -0.61870512857E+03  0.62476794729E+03  0.00000000000E+00 0. -1.
<mgrwt>
<rscale>  1 0.30000000E+03</rscale>
<asrwt>0</asrwt>
<pdfrwt beam="1">  1       21 0.29183545E-01 0.30000000E+03</pdfrwt>
<pdfrwt beam="2">0</pdfrwt>
<totfact> 0.11488592E+03</totfact>
</mgrwt>
</event>
<event>
 6    1  0.1274196E-001  0.3000000E+03  0.7818608E-02  0.1093470E+00
         21   -1    0    0  501  502  0.00000000000E+00  0.00000000000E+00  0.11953826187E+01  0.11953826187E+01  0.00000000000E+00 0. -1.
         13   -1    0    0    0    0 -0.00000000000E+00 -0.00000000000E+00 -0.10000000000E+04  0.10000000000E+04  0.00000000000E+00 0.  1.
    9000005    2    1    2  501    0  0.34155940472E+02 -0.49156708226E+01 -0.50532436210E+03  0.50651007412E+03  0.29920172081E+01 0.  0.
         13    1    3    3    0    0  0.40358878751E+01  0.32455044642E+00 -0.64211219063E+02  0.64338747093E+02  0.00000000000E+00 0.  1.
          1    1    3    3  501    0  0.30120052597E+02 -0.52402212690E+01 -0.44111314304E+03  0.44217132703E+03  0.00000000000E+00 0.  1.
         -3    1    1    2    0  502 -0.34155940472E+02  0.49156708226E+01 -0.49348025528E+03  0.49468530850E+03  0.00000000000E+00 0. -1.
<mgrwt>
<rscale>  1 0.30000000E+03</rscale>
<asrwt>0</asrwt>
<pdfrwt beam="1">  1       21 0.43468551E-02 0.30000000E+03</pdfrwt>
<pdfrwt beam="2">0</pdfrwt>
<totfact> 0.36540576E+04</totfact>
</mgrwt>
</event>
<event>
 6    1  0.1274196E-001  0.3000000E+03  0.7818608E-02  0.1093470E+00
         21   -1    0    0  501  502  0.00000000000E+00  0.00000000000E+00  0.29449973947E+01  0.29449973947E+01  0.00000000000E+00 0. -1.
         13   -1    0    0    0    0 -0.00000000000E+00 -0.00000000000E+00 -0.10000000000E+04  0.10000000000E+04  0.00000000000E+00 0.  1.
    9000005    2    1    2  501    0  0.50291386832E+02  0.13547430308E+02 -0.62876483673E+03  0.63099015775E+03  0.95185506894E+01 0.  0.
         13    1    3    3    0    0  0.44121171960E+02  0.13168483723E+02 -0.58199323496E+03  0.58381179529E+03  0.00000000000E+00 0.  1.
          3    1    3    3  501    0  0.61702148717E+01  0.37894658529E+00 -0.46771601768E+02  0.47178362455E+02  0.00000000000E+00 0.  1.
         -3    1    1    2    0  502 -0.50291386832E+02 -0.13547430308E+02 -0.36829016587E+03  0.37195483965E+03  0.00000000000E+00 0. -1.
<mgrwt>
<rscale>  1 0.30000000E+03</rscale>
<asrwt>0</asrwt>
<pdfrwt beam="1">  1       21 0.10709104E-01 0.30000000E+03</pdfrwt>
<pdfrwt beam="2">0</pdfrwt>
<totfact> 0.76098659E+03</totfact>
</mgrwt>
</event>
<event>
 6    1  0.1274196E-001  0.3000000E+03  0.7818608E-02  0.1093470E+00
         21   -1    0    0  501  502  0.00000000000E+00  0.00000000000E+00  0.30110795783E+01  0.30110795783E+01  0.00000000000E+00 0. -1.
         13   -1    0    0    0    0 -0.00000000000E+00 -0.00000000000E+00 -0.10000000000E+04  0.10000000000E+04  0.00000000000E+00 0.  1.
    9000005    2    1    2  501    0  0.52211730198E+02 -0.83905757126E+01 -0.63117538181E+03  0.63339504697E+03  0.32336340753E+01 0.  0.
         13    1    3    3    0    0  0.48353778277E+02 -0.69999728510E+01 -0.57723749069E+03  0.57930148295E+03  0.00000000000E+00 0.  1.
          3    1    3    3  501    0  0.38579519213E+01 -0.13906028616E+01 -0.53937891122E+02  0.54093564017E+02  0.00000000000E+00 0.  1.
         -3    1    1    2    0  502 -0.52211730198E+02  0.83905757126E+01 -0.36581353861E+03  0.36961603261E+03  0.00000000000E+00 0. -1.
<mgrwt>
<rscale>  1 0.30000000E+03</rscale>
<asrwt>0</asrwt>
<pdfrwt beam="1">  1       21 0.10949403E-01 0.30000000E+03</pdfrwt>
<pdfrwt beam="2">0</pdfrwt>
<totfact> 0.73124132E+03</totfact>
</mgrwt>
</event>
<event>
 6    1  0.1274196E-001  0.3000000E+03  0.7818608E-02  0.1093470E+00
         21   -1    0    0  501  502  0.00000000000E+00  0.00000000000E+00  0.10879817899E+01  0.10879817899E+01  0.00000000000E+00 0. -1.
         13   -1    0    0    0    0 -0.00000000000E+00 -0.00000000000E+00 -0.10000000000E+04  0.10000000000E+04  0.00000000000E+00 0.  1.
    9000005    2    1    2  501    0  0.15029282164E+02 -0.28633793770E+02 -0.59339627740E+03  0.59428484818E+03  0.30927785572E+01 0.  0.
         13    1    3    3    0    0  0.57747019695E+01 -0.92626965311E+01 -0.22291252181E+03  0.22317960728E+03  0.00000000000E+00 0.  1.
          1    1    3    3  501    0  0.92545801948E+01 -0.19371097238E+02 -0.37048375559E+03  0.37110524089E+03  0.00000000000E+00 0.  1.
         -1    1    1    2    0  502 -0.15029282164E+02  0.28633793770E+02 -0.40551574081E+03  0.40680313361E+03  0.00000000000E+00 0. -1.
<mgrwt>
<rscale>  1 0.30000000E+03</rscale>
<asrwt>0</asrwt>
<pdfrwt beam="1">  1       21 0.39563058E-02 0.30000000E+03</pdfrwt>
<pdfrwt beam="2">0</pdfrwt>
<totfact> 0.42832087E+04</totfact>
</mgrwt>
</event>
<event>
 6    1  0.1274196E-001  0.3000000E+03  0.7818608E-02  0.1093470E+00
         21   -1    0    0  501  502  0.00000000000E+00  0.00000000000E+00  0.52437979438E+01  0.52437979438E+01  0.00000000000E+00 0. -1.
         13   -1    0    0    0    0 -0.00000000000E+00 -0.00000000000E+00 -0.10000000000E+04  0.10000000000E+04  0.00000000000E+00 0.  1.
    9000005    2    1    2  501    0 -0.10557732941E+01 -0.59103797904E+02 -0.20787516203E+03  0.21614548674E+03  0.35234737481E+01 0.  0.
         13    1    3    3    0    0 -0.21539099030E+01 -0.39815395135E+02 -0.13705957574E+03  0.14274183802E+03  0.00000000000E+00 0.  1.
          1    1    3    3  501    0  0.10981366089E+01 -0.19288402769E+02 -0.70815586284E+02  0.73403648725E+02  0.00000000000E+00 0.  1.
         -1    1    1    2    0  502  0.10557732941E+01  0.59103797904E+02 -0.78688104003E+03  0.78909831120E+03  0.00000000000E+00 0. -1.
<mgrwt>
<rscale>  1 0.30000000E+03</rscale>
<asrwt>0</asrwt>
<pdfrwt beam="1">  1       21 0.19068396E-01 0.30000000E+03</pdfrwt>
<pdfrwt beam="2">0</pdfrwt>
<totfact> 0.26271306E+03</totfact>
</mgrwt>
</event>
<event>
 6    1  0.1274196E-001  0.3000000E+03  0.7818608E-02  0.1093470E+00
         21   -1    0    0  501  502  0.00000000000E+00  0.00000000000E+00  0.25215815972E+01  0.25215815972E+01  0.00000000000E+00 0. -1.
         13   -1    0    0    0    0 -0.00000000000E+00 -0.00000000000E+00 -0.10000000000E+04  0.10000000000E+04  0.00000000000E+00 0.  1.
    9000005    2    1    2  501    0 -0.24070921832E+02 -0.25743730809E+02 -0.85559144114E+03  0.85632287000E+03  0.31614223891E+01 0.  0.
         13    1    3    3    0    0 -0.17232658087E+02 -0.16751610631E+02 -0.60395411106E+03  0.60443208819E+03  0.00000000000E+00 0.  1.
          1    1    3    3  501    0 -0.68382637449E+01 -0.89921201778E+01 -0.25163733008E+03  0.25189078182E+03  0.00000000000E+00 0.  1.
         -1    1    1    2    0  502  0.24070921832E+02  0.25743730809E+02 -0.14188697727E+03  0.14619871159E+03  0.00000000000E+00 0. -1.
<mgrwt>
<rscale>  1 0.30000000E+03</rscale>
<asrwt>0</asrwt>
<pdfrwt beam="1">  1       21 0.91694070E-02 0.30000000E+03</pdfrwt>
<pdfrwt beam="2">0</pdfrwt>
<totfact> 0.10040532E+04</totfact>
</mgrwt>
</event>
<event>
 6    1  0.1274196E-001  0.3000000E+03  0.7818608E-02  0.1093470E+00
         21   -1    0    0  501  502  0.00000000000E+00  0.00000000000E+00  0.41023734943E+01  0.41023734943E+01  0.00000000000E+00 0. -1.
         13   -1    0    0    0    0 -0.00000000000E+00 -0.00000000000E+00 -0.10000000000E+04  0.10000000000E+04  0.00000000000E+00 0.  1.
    9000005    2    1    2  501    0 -0.29649319071E+02 -0.31789172375E+02 -0.86656017626E+03  0.86765527885E+03  0.30838659440E+01 0.  0.
         13    1    3    3    0    0 -0.85185538631E+01 -0.90921160969E+01 -0.27706984288E+03  0.27734983354E+03  0.00000000000E+00 0.  1.
          3    1    3    3  501    0 -0.21130765208E+02 -0.22697056278E+02 -0.58949033339E+03  0.59030544531E+03  0.00000000000E+00 0.  1.
         -1    1    1    2    0  502  0.29649319071E+02  0.31789172375E+02 -0.12933745024E+03  0.13644709465E+03  0.00000000000E+00 0. -1.
<mgrwt>
<rscale>  1 0.30000000E+03</rscale>
<asrwt>0</asrwt>
<pdfrwt beam="1">  1       21 0.14917753E-01 0.30000000E+03</pdfrwt>
<pdfrwt beam="2">0</pdfrwt>
<totfact> 0.41601436E+03</totfact>
</mgrwt>
</event>
<event>
 6    1  0.1274196E-001  0.3000000E+03  0.7818608E-02  0.1093470E+00
         21   -1    0    0  501  502  0.00000000000E+00  0.00000000000E+00  0.28609179448E+01  0.28609179448E+01  0.00000000000E+00 0. -1.
         13   -1    0    0    0    0 -0.00000000000E+00 -0.00000000000E+00 -0.10000000000E+04  0.10000000000E+04  0.00000000000E+00 0.  1.
    9000005    2    1    2  501    0 -0.74174696001E+01  0.40823023022E+02 -0.81472358596E+03  0.81578619683E+03  0.33255611918E+01 0.  0.
         13    1    3    3    0    0 -0.24769898120E+01  0.21695636147E+02 -0.41155371220E+03  0.41213261716E+03  0.00000000000E+00 0.  1.
          1    1    3    3  501    0 -0.49404797881E+01  0.19127386876E+02 -0.40316987377E+03  0.40365357967E+03  0.00000000000E+00 0.  1.
         -3    1    1    2    0  502  0.74174696001E+01 -0.40823023022E+02 -0.18241549609E+03  0.18707472111E+03  0.00000000000E+00 0. -1.
<mgrwt>
<rscale>  1 0.30000000E+03</rscale>
<asrwt>0</asrwt>
<pdfrwt beam="1">  1       21 0.10403360E-01 0.30000000E+03</pdfrwt>
<pdfrwt beam="2">0</pdfrwt>
<totfact> 0.80155877E+03</totfact>
</mgrwt>
</event>
<event>
 6    1  0.1274196E-001  0.3000000E+03  0.7818608E-02  0.1093470E+00
         21   -1    0    0  501  502  0.00000000000E+00  0.00000000000E+00  0.10512573205E+01  0.10512573205E+01  0.00000000000E+00 0. -1.
         13   -1    0    0    0    0 -0.00000000000E+00 -0.00000000000E+00 -0.10000000000E+04  0.10000000000E+04  0.00000000000E+00 0.  1.
    9000005    2    1    2  501    0 -0.18989929375E+00  0.30370573355E+02 -0.67246681962E+03  0.67315972972E+03  0.31607655849E+01 0.  0.
         13    1    3    3    0    0 -0.13346718080E+01  0.23017689758E+02 -0.49365643798E+03  0.49419457114E+03  0.00000000000E+00 0.  1.
          3    1    3    3  501    0  0.11447725143E+01  0.73528835966E+01 -0.17881038165E+03  0.17896515858E+03  0.00000000000E+00 0.  1.
         -3    1    1    2    0  502  0.18989929375E+00 -0.30370573355E+02 -0.32648192305E+03  0.32789152760E+03  0.00000000000E+00 0. -1.
<mgrwt>
<rscale>  1 0.30000000E+03</rscale>
<asrwt>0</asrwt>
<pdfrwt beam="1">  1       21 0.38227620E-02 0.30000000E+03</pdfrwt>
<pdfrwt beam="2">0</pdfrwt>
<totfact> 0.45378407E+04</totfact>
</mgrwt>
</event>
<event>
 6    1  0.1274196E-001  0.3000000E+03  0.7818608E-02  0.1093470E+00
         21   -1    0    0  501  502  0.00000000000E+00  0.00000000000E+00  0.95163184892E+00  0.95163184892E+00  0.00000000000E+00 0. -1.
         13   -1    0    0    0    0 -0.00000000000E+00 -0.00000000000E+00 -0.10000000000E+04  0.10000000000E+04  0.00000000000E+00 0.  1.
    9000005    2    1    2  501    0  0.12288540984E+02  0.27647865478E+02 -0.41132014461E+03  0.41244515147E+03  0.33658433532E+01 0.  0.
         13    1    3    3    0    0  0.35470885839E+01  0.67722935587E+01 -0.86268724294E+02  0.86606804518E+02  0.00000000000E+00 0.  1.
          1    1    3    3  501    0  0.87414523999E+01  0.20875571919E+02 -0.32505142032E+03  0.32583834695E+03  0.00000000000E+00 0.  1.
         -3    1    1    2    0  502 -0.12288540984E+02 -0.27647865478E+02 -0.58772822354E+03  0.58850648038E+03  0.00000000000E+00 0. -1.
<mgrwt>
<rscale>  1 0.30000000E+03</rscale>
<asrwt>0</asrwt>
<pdfrwt beam="1">  1       21 0.34604867E-02 0.30000000E+03</pdfrwt>
<pdfrwt beam="2">0</pdfrwt>
<totfact> 0.53626280E+04</totfact>
</mgrwt>
</event>
<event>
 6    1  0.1274196E-001  0.3000000E+03  0.7818608E-02  0.1093470E+00
         21   -1    0    0  501  502  0.00000000000E+00  0.00000000000E+00  0.14236428490E+01  0.14236428490E+01  0.00000000000E+00 0. -1.
         13   -1    0    0    0    0 -0.00000000000E+00 -0.00000000000E+00 -0.10000000000E+04  0.10000000000E+04  0.00000000000E+00 0.  1.
    9000005    2    1    2  501    0 -0.12454872876E+02 -0.33987248231E+02 -0.63470247290E+03  0.63575376366E+03  0.50360710296E+01 0.  0.
         13    1    3    3    0    0 -0.12708638384E+02 -0.33510703466E+02 -0.61463065196E+03  0.61567468281E+03  0.00000000000E+00 0.  1.
          3    1    3    3  501    0  0.25376550832E+00 -0.47654476428E+00 -0.20071820940E+02  0.20079080848E+02  0.00000000000E+00 0.  1.
         -1    1    1    2    0  502  0.12454872876E+02  0.33987248231E+02 -0.36387388426E+03  0.36566987919E+03  0.00000000000E+00 0. -1.
<mgrwt>
<rscale>  1 0.30000000E+03</rscale>
<asrwt>0</asrwt>
<pdfrwt beam="1">  1       21 0.51768940E-02 0.30000000E+03</pdfrwt>
<pdfrwt beam="2">0</pdfrwt>
<totfact> 0.27145592E+04</totfact>
</mgrwt>
</event>
<event>
 6    1  0.1274196E-001  0.3000000E+03  0.7818608E-02  0.1093470E+00
         21   -1    0    0  501  502  0.00000000000E+00  0.00000000000E+00  0.21282184571E+01  0.21282184571E+01  0.00000000000E+00 0. -1.
         13   -1    0    0    0    0 -0.00000000000E+00 -0.00000000000E+00 -0.10000000000E+04  0.10000000000E+04  0.00000000000E+00 0.  1.
    9000005    2    1    2  501    0  0.17113985834E+02 -0.25035601098E+02 -0.87633951815E+03  0.87686944280E+03  0.30657483901E+01 0.  0.
         13    1    3    3    0    0  0.10845785467E+02 -0.18262803459E+02 -0.62199337589E+03  0.62235594374E+03  0.00000000000E+00 0.  1.
          1    1    3    3  501    0  0.62682003668E+01 -0.67727976397E+01 -0.25434614226E+03  0.25451349906E+03  0.00000000000E+00 0.  1.
         -3    1    1    2    0  502 -0.17113985834E+02  0.25035601098E+02 -0.12153226340E+03  0.12525877566E+03  0.00000000000E+00 0. -1.
<mgrwt>
<rscale>  1 0.30000000E+03</rscale>
<asrwt>0</asrwt>
<pdfrwt beam="1">  1       21 0.77389925E-02 0.30000000E+03</pdfrwt>
<pdfrwt beam="2">0</pdfrwt>
<totfact> 0.13539496E+04</totfact>
</mgrwt>
</event>
<event>
 6    1  0.1274196E-001  0.3000000E+03  0.7818608E-02  0.1093470E+00
         21   -1    0    0  501  502  0.00000000000E+00  0.00000000000E+00  0.10334749543E+01  0.10334749543E+01  0.00000000000E+00 0. -1.
         13   -1    0    0    0    0 -0.00000000000E+00 -0.00000000000E+00 -0.10000000000E+04  0.10000000000E+04  0.00000000000E+00 0.  1.
    9000005    2    1    2  501    0 -0.25203440685E+02 -0.17460174476E+02 -0.63262945620E+03  0.63341557669E+03  0.74291873211E+01 0.  0.
         13    1    3    3    0    0 -0.13222204943E+02 -0.11843683204E+02 -0.30178598778E+03  0.30230759494E+03  0.00000000000E+00 0.  1.
          3    1    3    3  501    0 -0.11981235742E+02 -0.56164912719E+01 -0.33084346842E+03  0.33110798175E+03  0.00000000000E+00 0.  1.
         -3    1    1    2    0  502  0.25203440685E+02  0.17460174476E+02 -0.36633706884E+03  0.36761789826E+03  0.00000000000E+00 0. -1.
<mgrwt>
<rscale>  1 0.30000000E+03</rscale>
<asrwt>0</asrwt>
<pdfrwt beam="1">  1       21 0.37580987E-02 0.30000000E+03</pdfrwt>
<pdfrwt beam="2">0</pdfrwt>
<totfact> 0.46697786E+04</totfact>
</mgrwt>
</event>
<event>
 6    1  0.1274196E-001  0.3000000E+03  0.7818608E-02  0.1093470E+00
         21   -1    0    0  501  502  0.00000000000E+00  0.00000000000E+00  0.20437086840E+01  0.20437086840E+01  0.00000000000E+00 0. -1.
         13   -1    0    0    0    0 -0.00000000000E+00 -0.00000000000E+00 -0.10000000000E+04  0.10000000000E+04  0.00000000000E+00 0.  1.
    9000005    2    1    2  501    0  0.13194576699E+02 -0.41845391671E+02 -0.61708149053E+03  0.61864998477E+03  0.36199516816E+01 0.  0.
         13    1    3    3    0    0  0.13058442845E+02 -0.38319758902E+02 -0.56329070787E+03  0.56474361300E+03  0.00000000000E+00 0.  1.
          3    1    3    3  501    0  0.13613385402E+00 -0.35256327690E+01 -0.53790782657E+02  0.53906371772E+02  0.00000000000E+00 0.  1.
         -1    1    1    2    0  502 -0.13194576699E+02  0.41845391671E+02 -0.38087480079E+03  0.38339372391E+03  0.00000000000E+00 0. -1.
<mgrwt>
<rscale>  1 0.30000000E+03</rscale>
<asrwt>0</asrwt>
<pdfrwt beam="1">  1       21 0.74316836E-02 0.30000000E+03</pdfrwt>
<pdfrwt beam="2">0</pdfrwt>
<totfact> 0.14535435E+04</totfact>
</mgrwt>
</event>
<event>
 6    1  0.1274196E-001  0.3000000E+03  0.7818608E-02  0.1093470E+00
         21   -1    0    0  501  502  0.00000000000E+00  0.00000000000E+00  0.14933645191E+01  0.14933645191E+01  0.00000000000E+00 0. -1.
         13   -1    0    0    0    0 -0.00000000000E+00 -0.00000000000E+00 -0.10000000000E+04  0.10000000000E+04  0.00000000000E+00 0.  1.
    9000005    2    1    2  501    0  0.36247023753E+02 -0.12851554368E+02 -0.53230272369E+03  0.53370591647E+03  0.40995669748E+01 0.  0.
         13    1    3    3    0    0  0.11964739593E+02 -0.42688800219E+01 -0.20347021069E+03  0.20386638999E+03  0.00000000000E+00 0.  1.
          1    1    3    3  501    0  0.24282284160E+02 -0.85826743463E+01 -0.32883251300E+03  0.32983952648E+03  0.00000000000E+00 0.  1.
         -3    1    1    2    0  502 -0.36247023753E+02  0.12851554368E+02 -0.46620391179E+03  0.46778744804E+03  0.00000000000E+00 0. -1.
<mgrwt>
<rscale>  1 0.30000000E+03</rscale>
<asrwt>0</asrwt>
<pdfrwt beam="1">  1       21 0.54304279E-02 0.30000000E+03</pdfrwt>
<pdfrwt beam="2">0</pdfrwt>
<totfact> 0.25013994E+04</totfact>
</mgrwt>
</event>
<event>
 6    1  0.1274196E-001  0.3000000E+03  0.7818608E-02  0.1093470E+00
         21   -1    0    0  501  502  0.00000000000E+00  0.00000000000E+00  0.37054429841E+01  0.37054429841E+01  0.00000000000E+00 0. -1.
         13   -1    0    0    0    0 -0.00000000000E+00 -0.00000000000E+00 -0.10000000000E+04  0.10000000000E+04  0.00000000000E+00 0.  1.
    9000005    2    1    2  501    0 -0.31308872826E+02  0.42031702014E+02 -0.75310232310E+03  0.75492969632E+03  0.29711670880E+01 0.  0.
         13    1    3    3    0    0 -0.13618289715E+02  0.16258236134E+02 -0.31619709082E+03  0.31690753904E+03  0.00000000000E+00 0.  1.
          1    1    3    3  501    0 -0.17690583111E+02  0.25773465880E+02 -0.43690523228E+03  0.43802215728E+03  0.00000000000E+00 0.  1.
         -3    1    1    2    0  502  0.31308872826E+02 -0.42031702014E+02 -0.24319223392E+03  0.24877574667E+03  0.00000000000E+00 0. -1.
<mgrwt>
<rscale>  1 0.30000000E+03</rscale>
<asrwt>0</asrwt>
<pdfrwt beam="1">  1       21 0.13474367E-01 0.30000000E+03</pdfrwt>
<pdfrwt beam="2">0</pdfrwt>
<totfact> 0.50167320E+03</totfact>
</mgrwt>
</event>
<event>
 6    1  0.1274196E-001  0.3000000E+03  0.7818608E-02  0.1093470E+00
         21   -1    0    0  501  502  0.00000000000E+00  0.00000000000E+00  0.16996891512E+01  0.16996891512E+01  0.00000000000E+00 0. -1.
         13   -1    0    0    0    0 -0.00000000000E+00 -0.00000000000E+00 -0.10000000000E+04  0.10000000000E+04  0.00000000000E+00 0.  1.
    9000005    2    1    2  501    0  0.12725546077E+02 -0.34165703597E+02 -0.26791553821E+03  0.27040552746E+03  0.33434771883E+01 0.  0.
         13    1    3    3    0    0  0.81587157579E+01 -0.20882913490E+02 -0.17620344720E+03  0.17762408487E+03  0.00000000000E+00 0.  1.
          1    1    3    3  501    0  0.45668303195E+01 -0.13282790107E+02 -0.91712091008E+02  0.92781442591E+02  0.00000000000E+00 0.  1.
         -1    1    1    2    0  502 -0.12725546077E+02  0.34165703597E+02 -0.73038477264E+03  0.73129416169E+03  0.00000000000E+00 0. -1.
<mgrwt>
<rscale>  1 0.30000000E+03</rscale>
<asrwt>0</asrwt>
<pdfrwt beam="1">  1       21 0.61807009E-02 0.30000000E+03</pdfrwt>
<pdfrwt beam="2">0</pdfrwt>
<totfact> 0.20019838E+04</totfact>
</mgrwt>
</event>
<event>
 6    1  0.1274196E-001  0.3000000E+03  0.7818608E-02  0.1093470E+00
         21   -1    0    0  501  502  0.00000000000E+00  0.00000000000E+00  0.20857369788E+01  0.20857369788E+01  0.00000000000E+00 0. -1.
         13   -1    0    0    0    0 -0.00000000000E+00 -0.00000000000E+00 -0.10000000000E+04  0.10000000000E+04  0.00000000000E+00 0.  1.
    9000005    2    1    2  501    0 -0.33822589878E+02  0.58452007786E+01 -0.82916656491E+03  0.82988260235E+03  0.31316705025E+01 0.  0.
         13    1    3    3    0    0 -0.28745868113E+02  0.59826242139E+01 -0.71791647710E+03  0.71851665591E+03  0.00000000000E+00 0.  1.
          1    1    3    3  501    0 -0.50767217652E+01 -0.13742343528E+00 -0.11125008782E+03  0.11136594645E+03  0.00000000000E+00 0.  1.
         -1    1    1    2    0  502  0.33822589878E+02 -0.58452007786E+01 -0.16874769811E+03  0.17220313462E+03  0.00000000000E+00 0. -1.
<mgrwt>
<rscale>  1 0.30000000E+03</rscale>
<asrwt>0</asrwt>
<pdfrwt beam="1">  1       21 0.75845141E-02 0.30000000E+03</pdfrwt>
<pdfrwt beam="2">0</pdfrwt>
<totfact> 0.14026486E+04</totfact>
</mgrwt>
</event>
<event>
 6    1  0.1274196E-001  0.3000000E+03  0.7818608E-02  0.1093470E+00
         21   -1    0    0  501  502  0.00000000000E+00  0.00000000000E+00  0.39910147350E+01  0.39910147350E+01  0.00000000000E+00 0. -1.
         13   -1    0    0    0    0 -0.00000000000E+00 -0.00000000000E+00 -0.10000000000E+04  0.10000000000E+04  0.00000000000E+00 0.  1.
    9000005    2    1    2  501    0 -0.17437287819E+02 -0.27482836395E+02 -0.92818761129E+03  0.92876399784E+03  0.33100804694E+01 0.  0.
         13    1    3    3    0    0 -0.11939544159E+02 -0.17536234527E+02 -0.56290462556E+03  0.56330426033E+03  0.00000000000E+00 0.  1.
          1    1    3    3  501    0 -0.54977436596E+01 -0.99466018678E+01 -0.36528298573E+03  0.36545973750E+03  0.00000000000E+00 0.  1.
         -3    1    1    2    0  502  0.17437287819E+02  0.27482836395E+02 -0.67821373979E+02  0.75227016897E+02  0.00000000000E+00 0. -1.
<mgrwt>
<rscale>  1 0.30000000E+03</rscale>
<asrwt>0</asrwt>
<pdfrwt beam="1">  1       21 0.14512811E-01 0.30000000E+03</pdfrwt>
<pdfrwt beam="2">0</pdfrwt>
<totfact> 0.43770436E+03</totfact>
</mgrwt>
</event>
<event>
 6    1  0.1274196E-001  0.3000000E+03  0.7818608E-02  0.1093470E+00
         21   -1    0    0  501  502  0.00000000000E+00  0.00000000000E+00  0.12366433594E+01  0.12366433594E+01  0.00000000000E+00 0. -1.
         13   -1    0    0    0    0 -0.00000000000E+00 -0.00000000000E+00 -0.10000000000E+04  0.10000000000E+04  0.00000000000E+00 0.  1.
    9000005    2    1    2  501    0  0.26742907449E+02  0.17260364299E+02 -0.29286565759E+03  0.29462170947E+03  0.43075537343E+01 0.  0.
         13    1    3    3    0    0  0.76862561772E+01  0.27393983344E+01 -0.73391539741E+02  0.73843760351E+02  0.00000000000E+00 0.  1.
          1    1    3    3  501    0  0.19056651271E+02  0.14520965964E+02 -0.21947411785E+03  0.22077794912E+03  0.00000000000E+00 0.  1.
         -3    1    1    2    0  502 -0.26742907449E+02 -0.17260364299E+02 -0.70589769905E+03  0.70661493389E+03  0.00000000000E+00 0. -1.
<mgrwt>
<rscale>  1 0.30000000E+03</rscale>
<asrwt>0</asrwt>
<pdfrwt beam="1">  1       21 0.44968944E-02 0.30000000E+03</pdfrwt>
<pdfrwt beam="2">0</pdfrwt>
<totfact> 0.34498579E+04</totfact>
</mgrwt>
</event>
<event>
 6    1  0.1274196E-001  0.3000000E+03  0.7818608E-02  0.1093470E+00
         21   -1    0    0  501  502  0.00000000000E+00  0.00000000000E+00  0.11698427159E+01  0.11698427159E+01  0.00000000000E+00 0. -1.
         13   -1    0    0    0    0 -0.00000000000E+00 -0.00000000000E+00 -0.10000000000E+04  0.10000000000E+04  0.00000000000E+00 0.  1.
    9000005    2    1    2  501    0 -0.10007083775E+01 -0.30693706335E+02 -0.71821282286E+03  0.71887709855E+03  0.33939479084E+01 0.  0.
         13    1    3    3    0    0 -0.10504859860E+01 -0.29267438301E+02 -0.69789826445E+03  0.69851247232E+03  0.00000000000E+00 0.  1.
          3    1    3    3  501    0  0.49777608497E-01 -0.14262680347E+01 -0.20314558405E+02  0.20364626230E+02  0.00000000000E+00 0.  1.
         -3    1    1    2    0  502  0.10007083775E+01  0.30693706335E+02 -0.28061733443E+03  0.28229274416E+03  0.00000000000E+00 0. -1.
<mgrwt>
<rscale>  1 0.30000000E+03</rscale>
<asrwt>0</asrwt>
<pdfrwt beam="1">  1       21 0.42539825E-02 0.30000000E+03</pdfrwt>
<pdfrwt beam="2">0</pdfrwt>
<totfact> 0.37899908E+04</totfact>
</mgrwt>
</event>
<event>
 6    1  0.1274196E-001  0.3000000E+03  0.7818608E-02  0.1093470E+00
         21   -1    0    0  501  502  0.00000000000E+00  0.00000000000E+00  0.12485323035E+01  0.12485323035E+01  0.00000000000E+00 0. -1.
         13   -1    0    0    0    0 -0.00000000000E+00 -0.00000000000E+00 -0.10000000000E+04  0.10000000000E+04  0.00000000000E+00 0.  1.
    9000005    2    1    2  501    0 -0.27671480374E+02 -0.15599135688E+02 -0.71712202786E+03  0.71783331527E+03  0.34090786871E+01 0.  0.
         13    1    3    3    0    0 -0.31766936368E+01 -0.66566283880E+00 -0.79597318194E+02  0.79663464356E+02  0.00000000000E+00 0.  1.
          3    1    3    3  501    0 -0.24494786737E+02 -0.14933472849E+02 -0.63752470966E+03  0.63816985092E+03  0.00000000000E+00 0.  1.
         -3    1    1    2    0  502  0.27671480374E+02  0.15599135688E+02 -0.28162943984E+03  0.28341521703E+03  0.00000000000E+00 0. -1.
<mgrwt>
<rscale>  1 0.30000000E+03</rscale>
<asrwt>0</asrwt>
<pdfrwt beam="1">  1       21 0.45401270E-02 0.30000000E+03</pdfrwt>
<pdfrwt beam="2">0</pdfrwt>
<totfact> 0.33942802E+04</totfact>
</mgrwt>
</event>
<event>
 6    1  0.1274196E-001  0.3000000E+03  0.7818608E-02  0.1093470E+00
         21   -1    0    0  501  502  0.00000000000E+00  0.00000000000E+00  0.99529322521E+00  0.99529322521E+00  0.00000000000E+00 0. -1.
         13   -1    0    0    0    0 -0.00000000000E+00 -0.00000000000E+00 -0.10000000000E+04  0.10000000000E+04  0.00000000000E+00 0.  1.
    9000005    2    1    2  501    0  0.24643356358E+02 -0.18388598188E+02 -0.60713012059E+03  0.60791625937E+03  0.31240242875E+01 0.  0.
         13    1    3    3    0    0  0.11566994162E+02 -0.10498437779E+02 -0.29819248602E+03  0.29860135845E+03  0.00000000000E+00 0.  1.
          1    1    3    3  501    0  0.13076362196E+02 -0.78901604086E+01 -0.30893763456E+03  0.30931490092E+03  0.00000000000E+00 0.  1.
         -1    1    1    2    0  502 -0.24643356358E+02  0.18388598188E+02 -0.39187458619E+03  0.39307903385E+03  0.00000000000E+00 0. -1.
<mgrwt>
<rscale>  1 0.30000000E+03</rscale>
<asrwt>0</asrwt>
<pdfrwt beam="1">  1       21 0.36192557E-02 0.30000000E+03</pdfrwt>
<pdfrwt beam="2">0</pdfrwt>
<totfact> 0.49743285E+04</totfact>
</mgrwt>
</event>
<event>
 6    1  0.1274196E-001  0.3000000E+03  0.7818608E-02  0.1093470E+00
         21   -1    0    0  501  502  0.00000000000E+00  0.00000000000E+00  0.19132995064E+01  0.19132995064E+01  0.00000000000E+00 0. -1.
         13   -1    0    0    0    0 -0.00000000000E+00 -0.00000000000E+00 -0.10000000000E+04  0.10000000000E+04  0.00000000000E+00 0.  1.
    9000005    2    1    2  501    0 -0.31444941349E+02 -0.15572765173E+02 -0.79762005375E+03  0.79839875013E+03  0.33939228551E+01 0.  0.
         13    1    3    3    0    0  0.88068903520E-01 -0.95597332953E-02 -0.18116372357E+01  0.18138018068E+01  0.00000000000E+00 0.  1.
          3    1    3    3  501    0 -0.31533010252E+02 -0.15563205440E+02 -0.79580841651E+03  0.79658494832E+03  0.00000000000E+00 0.  1.
         -1    1    1    2    0  502  0.31444941349E+02  0.15572765173E+02 -0.20046664674E+03  0.20351454938E+03  0.00000000000E+00 0. -1.
<mgrwt>
<rscale>  1 0.30000000E+03</rscale>
<asrwt>0</asrwt>
<pdfrwt beam="1">  1       21 0.69574674E-02 0.30000000E+03</pdfrwt>
<pdfrwt beam="2">0</pdfrwt>
<totfact> 0.16307297E+04</totfact>
</mgrwt>
</event>
<event>
 6    1  0.1274196E-001  0.3000000E+03  0.7818608E-02  0.1093470E+00
         21   -1    0    0  501  502  0.00000000000E+00  0.00000000000E+00  0.30922039503E+01  0.30922039503E+01  0.00000000000E+00 0. -1.
         13   -1    0    0    0    0 -0.00000000000E+00 -0.00000000000E+00 -0.10000000000E+04  0.10000000000E+04  0.00000000000E+00 0.  1.
    9000005    2    1    2  501    0  0.91583450052E+01  0.48210079328E+02 -0.73365061581E+03  0.73530043787E+03  0.39269356053E+01 0.  0.
         13    1    3    3    0    0  0.76617078795E+01  0.44636771938E+02 -0.68526764479E+03  0.68676261414E+03  0.00000000000E+00 0.  1.
          3    1    3    3  501    0  0.14966371257E+01  0.35733073902E+01 -0.48382971015E+02  0.48537823732E+02  0.00000000000E+00 0.  1.
         -3    1    1    2    0  502 -0.91583450052E+01 -0.48210079328E+02 -0.26325718024E+03  0.26779176608E+03  0.00000000000E+00 0. -1.
<mgrwt>
<rscale>  1 0.30000000E+03</rscale>
<asrwt>0</asrwt>
<pdfrwt beam="1">  1       21 0.11244402E-01 0.30000000E+03</pdfrwt>
<pdfrwt beam="2">0</pdfrwt>
<totfact> 0.69706333E+03</totfact>
</mgrwt>
</event>
<event>
 6    1  0.1274196E-001  0.3000000E+03  0.7818608E-02  0.1093470E+00
         21   -1    0    0  501  502  0.00000000000E+00  0.00000000000E+00  0.12817031924E+01  0.12817031924E+01  0.00000000000E+00 0. -1.
         13   -1    0    0    0    0 -0.00000000000E+00 -0.00000000000E+00 -0.10000000000E+04  0.10000000000E+04  0.00000000000E+00 0.  1.
    9000005    2    1    2  501    0 -0.22550910754E+02  0.27612224714E+02 -0.46668256380E+03  0.46805285952E+03  0.31441085428E+01 0.  0.
         13    1    3    3    0    0 -0.16382602462E+02  0.19687272892E+02 -0.35272483361E+03  0.35365348382E+03  0.00000000000E+00 0.  1.
          3    1    3    3  501    0 -0.61683082918E+01  0.79249518224E+01 -0.11395773019E+03  0.11439937570E+03  0.00000000000E+00 0.  1.
         -3    1    1    2    0  502  0.22550910754E+02 -0.27612224714E+02 -0.53203573300E+03  0.53322884367E+03  0.00000000000E+00 0. -1.
<mgrwt>
<rscale>  1 0.30000000E+03</rscale>
<asrwt>0</asrwt>
<pdfrwt beam="1">  1       21 0.46607487E-02 0.30000000E+03</pdfrwt>
<pdfrwt beam="2">0</pdfrwt>
<totfact> 0.32463875E+04</totfact>
</mgrwt>
</event>
<event>
 6    1  0.1274196E-001  0.3000000E+03  0.7818608E-02  0.1093470E+00
         21   -1    0    0  501  502  0.00000000000E+00  0.00000000000E+00  0.20068287434E+01  0.20068287434E+01  0.00000000000E+00 0. -1.
         13   -1    0    0    0    0 -0.00000000000E+00 -0.00000000000E+00 -0.10000000000E+04  0.10000000000E+04  0.00000000000E+00 0.  1.
    9000005    2    1    2  501    0 -0.57993446350E+00  0.36473273200E+02 -0.78953134445E+03  0.79037750843E+03  0.24951907786E+01 0.  0.
         13    1    3    3    0    0  0.86075331478E+00  0.20581587592E+02 -0.45238045221E+03  0.45284922015E+03  0.00000000000E+00 0.  1.
          1    1    3    3  501    0 -0.14406877783E+01  0.15891685608E+02 -0.33715089224E+03  0.33752828828E+03  0.00000000000E+00 0.  1.
         -3    1    1    2    0  502  0.57993446350E+00 -0.36473273200E+02 -0.20846182680E+03  0.21162932031E+03  0.00000000000E+00 0. -1.
<mgrwt>
<rscale>  1 0.30000000E+03</rscale>
<asrwt>0</asrwt>
<pdfrwt beam="1">  1       21 0.72975745E-02 0.30000000E+03</pdfrwt>
<pdfrwt beam="2">0</pdfrwt>
<totfact> 0.15005640E+04</totfact>
</mgrwt>
</event>
<event>
 6    1  0.1274196E-001  0.3000000E+03  0.7818608E-02  0.1093470E+00
         21   -1    0    0  501  502  0.00000000000E+00  0.00000000000E+00  0.10898878715E+01  0.10898878715E+01  0.00000000000E+00 0. -1.
         13   -1    0    0    0    0 -0.00000000000E+00 -0.00000000000E+00 -0.10000000000E+04  0.10000000000E+04  0.00000000000E+00 0.  1.
    9000005    2    1    2  501    0 -0.12577440704E+02  0.30259837531E+02 -0.54969136746E+03  0.55067748758E+03  0.33535170239E+01 0.  0.
         13    1    3    3    0    0 -0.82898439119E+01  0.17592411622E+02 -0.34839111811E+03  0.34893349744E+03  0.00000000000E+00 0.  1.
          3    1    3    3  501    0 -0.42875967921E+01  0.12667425909E+02 -0.20130024936E+03  0.20174399014E+03  0.00000000000E+00 0.  1.
         -3    1    1    2    0  502  0.12577440704E+02 -0.30259837531E+02 -0.44921874466E+03  0.45041240029E+03  0.00000000000E+00 0. -1.
<mgrwt>
<rscale>  1 0.30000000E+03</rscale>
<asrwt>0</asrwt>
<pdfrwt beam="1">  1       21 0.39632370E-02 0.30000000E+03</pdfrwt>
<pdfrwt beam="2">0</pdfrwt>
<totfact> 0.42706078E+04</totfact>
</mgrwt>
</event>
<event>
 6    1  0.1274196E-001  0.3000000E+03  0.7818608E-02  0.1093470E+00
         21   -1    0    0  501  502  0.00000000000E+00  0.00000000000E+00  0.17758828739E+01  0.17758828739E+01  0.00000000000E+00 0. -1.
         13   -1    0    0    0    0 -0.00000000000E+00 -0.00000000000E+00 -0.10000000000E+04  0.10000000000E+04  0.00000000000E+00 0.  1.
    9000005    2    1    2  501    0  0.12402995482E+02  0.34077703344E+02 -0.74672075170E+03  0.74767144178E+03  0.10275197045E+02 0.  0.
         13    1    3    3    0    0  0.92344209445E+01  0.21666278243E+02 -0.38164541996E+03  0.38237145385E+03  0.00000000000E+00 0.  1.
          1    1    3    3  501    0  0.31685745372E+01  0.12411425101E+02 -0.36507533173E+03  0.36529998792E+03  0.00000000000E+00 0.  1.
         -1    1    1    2    0  502 -0.12402995482E+02 -0.34077703344E+02 -0.25150336543E+03  0.25410444110E+03  0.00000000000E+00 0. -1.
<mgrwt>
<rscale>  1 0.30000000E+03</rscale>
<asrwt>0</asrwt>
<pdfrwt beam="1">  1       21 0.64577695E-02 0.30000000E+03</pdfrwt>
<pdfrwt beam="2">0</pdfrwt>
<totfact> 0.18558269E+04</totfact>
</mgrwt>
</event>
<event>
 6    1  0.1274196E-001  0.3000000E+03  0.7818608E-02  0.1093470E+00
         21   -1    0    0  501  502  0.00000000000E+00  0.00000000000E+00  0.10705537090E+01  0.10705537090E+01  0.00000000000E+00 0. -1.
         13   -1    0    0    0    0 -0.00000000000E+00 -0.00000000000E+00 -0.10000000000E+04  0.10000000000E+04  0.00000000000E+00 0.  1.
    9000005    2    1    2  501    0 -0.28443951765E+02  0.15852440860E+02 -0.46652356339E+03  0.46766978278E+03  0.32299009507E+01 0.  0.
         13    1    3    3    0    0 -0.62508391807E+01  0.45617969333E+01 -0.12553881339E+03  0.12577709111E+03  0.00000000000E+00 0.  1.
          3    1    3    3  501    0 -0.22193112584E+02  0.11290643927E+02 -0.34098475000E+03  0.34189269167E+03  0.00000000000E+00 0.  1.
         -3    1    1    2    0  502  0.28443951765E+02 -0.15852440860E+02 -0.53240588291E+03  0.53340077093E+03  0.00000000000E+00 0. -1.
<mgrwt>
<rscale>  1 0.30000000E+03</rscale>
<asrwt>0</asrwt>
<pdfrwt beam="1">  1       21 0.38929308E-02 0.30000000E+03</pdfrwt>
<pdfrwt beam="2">0</pdfrwt>
<totfact> 0.44011763E+04</totfact>
</mgrwt>
</event>
<event>
 6    1  0.1274196E-001  0.3000000E+03  0.7818608E-02  0.1093470E+00
         21   -1    0    0  501  502  0.00000000000E+00  0.00000000000E+00  0.95577456631E+00  0.95577456631E+00  0.00000000000E+00 0. -1.
         13   -1    0    0    0    0 -0.00000000000E+00 -0.00000000000E+00 -0.10000000000E+04  0.10000000000E+04  0.00000000000E+00 0.  1.
    9000005    2    1    2  501    0 -0.11060710395E+02  0.28673484226E+02 -0.54260272870E+03  0.54348080481E+03  0.30258871896E+01 0.  0.
         13    1    3    3    0    0 -0.98573757732E+01  0.27232002863E+02 -0.51575912855E+03  0.51657161025E+03  0.00000000000E+00 0.  1.
          1    1    3    3  501    0 -0.12033346221E+01  0.14414813629E+01 -0.26843600150E+02  0.26909194558E+02  0.00000000000E+00 0.  1.
         -1    1    1    2    0  502  0.11060710395E+02 -0.28673484226E+02 -0.45644149673E+03  0.45747496976E+03  0.00000000000E+00 0. -1.
<mgrwt>
<rscale>  1 0.30000000E+03</rscale>
<asrwt>0</asrwt>
<pdfrwt beam="1">  1       21 0.34755512E-02 0.30000000E+03</pdfrwt>
<pdfrwt beam="2">0</pdfrwt>
<totfact> 0.53237894E+04</totfact>
</mgrwt>
</event>
<event>
 6    1  0.1274196E-001  0.3000000E+03  0.7818608E-02  0.1093470E+00
         21   -1    0    0  501  502  0.00000000000E+00  0.00000000000E+00  0.23485170116E+01  0.23485170116E+01  0.00000000000E+00 0. -1.
         13   -1    0    0    0    0 -0.00000000000E+00 -0.00000000000E+00 -0.10000000000E+04  0.10000000000E+04  0.00000000000E+00 0.  1.
    9000005    2    1    2  501    0 -0.35386224210E+02  0.77347290584E+01 -0.83140145913E+03  0.83219834413E+03  0.36995726970E+01 0.  0.
         13    1    3    3    0    0 -0.26875053378E+02  0.65533438320E+01 -0.66515336308E+03  0.66572833140E+03  0.00000000000E+00 0.  1.
          3    1    3    3  501    0 -0.85111708320E+01  0.11813852264E+01 -0.16624809604E+03  0.16647001273E+03  0.00000000000E+00 0.  1.
         -3    1    1    2    0  502  0.35386224210E+02 -0.77347290584E+01 -0.16625002386E+03  0.17015017288E+03  0.00000000000E+00 0. -1.
<mgrwt>
<rscale>  1 0.30000000E+03</rscale>
<asrwt>0</asrwt>
<pdfrwt beam="1">  1       21 0.85400799E-02 0.30000000E+03</pdfrwt>
<pdfrwt beam="2">0</pdfrwt>
<totfact> 0.11386399E+04</totfact>
</mgrwt>
</event>
<event>
 6    1  0.1274196E-001  0.3000000E+03  0.7818608E-02  0.1093470E+00
         21   -1    0    0  501  502  0.00000000000E+00  0.00000000000E+00  0.13036609138E+01  0.13036609138E+01  0.00000000000E+00 0. -1.
         13   -1    0    0    0    0 -0.00000000000E+00 -0.00000000000E+00 -0.10000000000E+04  0.10000000000E+04  0.00000000000E+00 0.  1.
    9000005    2    1    2  501    0  0.88888656015E+01 -0.31572098146E+02 -0.29334950695E+03  0.29519463044E+03  0.31823417954E+01 0.  0.
         13    1    3    3    0    0  0.37968169501E+01 -0.11510201151E+02 -0.12155100239E+03  0.12215378313E+03  0.00000000000E+00 0.  1.
          1    1    3    3  501    0  0.50920486514E+01 -0.20061896996E+02 -0.17179850456E+03  0.17304084731E+03  0.00000000000E+00 0.  1.
         -1    1    1    2    0  502 -0.88888656015E+01  0.31572098146E+02 -0.70534683214E+03  0.70610903048E+03  0.00000000000E+00 0. -1.
<mgrwt>
<rscale>  1 0.30000000E+03</rscale>
<asrwt>0</asrwt>
<pdfrwt beam="1">  1       21 0.47405951E-02 0.30000000E+03</pdfrwt>
<pdfrwt beam="2">0</pdfrwt>
<totfact> 0.31539689E+04</totfact>
</mgrwt>
</event>
<event>
 6    1  0.1274196E-001  0.3000000E+03  0.7818608E-02  0.1093470E+00
         21   -1    0    0  501  502  0.00000000000E+00  0.00000000000E+00  0.12986047948E+01  0.12986047948E+01  0.00000000000E+00 0. -1.
         13   -1    0    0    0    0 -0.00000000000E+00 -0.00000000000E+00 -0.10000000000E+04  0.10000000000E+04  0.00000000000E+00 0.  1.
    9000005    2    1    2  501    0 -0.17607577326E+01  0.30062803345E+02 -0.77363793859E+03  0.77422938205E+03  0.29331887875E+01 0.  0.
         13    1    3    3    0    0 -0.76703804024E-01  0.98218751586E+01 -0.28608804292E+03  0.28625660414E+03  0.00000000000E+00 0.  1.
          3    1    3    3  501    0 -0.16840539286E+01  0.20240928186E+02 -0.48754989567E+03  0.48797277791E+03  0.00000000000E+00 0.  1.
         -3    1    1    2    0  502  0.17607577326E+01 -0.30062803345E+02 -0.22506345662E+03  0.22706922275E+03  0.00000000000E+00 0. -1.
<mgrwt>
<rscale>  1 0.30000000E+03</rscale>
<asrwt>0</asrwt>
<pdfrwt beam="1">  1       21 0.47222092E-02 0.30000000E+03</pdfrwt>
<pdfrwt beam="2">0</pdfrwt>
<totfact> 0.31748813E+04</totfact>
</mgrwt>
</event>
<event>
 6    1  0.1274196E-001  0.3000000E+03  0.7818608E-02  0.1093470E+00
         21   -1    0    0  501  502  0.00000000000E+00  0.00000000000E+00  0.30983854982E+01  0.30983854982E+01  0.00000000000E+00 0. -1.
         13   -1    0    0    0    0 -0.00000000000E+00 -0.00000000000E+00 -0.10000000000E+04  0.10000000000E+04  0.00000000000E+00 0.  1.
    9000005    2    1    2  501    0 -0.45413249244E+02  0.26831305092E+02 -0.65769162980E+03  0.65981177658E+03  0.33194076800E+01 0.  0.
         13    1    3    3    0    0 -0.23720573950E+02  0.13157913076E+02 -0.31950748825E+03  0.32065687479E+03  0.00000000000E+00 0.  1.
          3    1    3    3  501    0 -0.21692675294E+02  0.13673392016E+02 -0.33818414155E+03  0.33915490179E+03  0.00000000000E+00 0.  1.
         -3    1    1    2    0  502  0.45413249244E+02 -0.26831305092E+02 -0.33920998470E+03  0.34328660891E+03  0.00000000000E+00 0. -1.
<mgrwt>
<rscale>  1 0.30000000E+03</rscale>
<asrwt>0</asrwt>
<pdfrwt beam="1">  1       21 0.11266880E-01 0.30000000E+03</pdfrwt>
<pdfrwt beam="2">0</pdfrwt>
<totfact> 0.69455815E+03</totfact>
</mgrwt>
</event>
<event>
 6    1  0.1274196E-001  0.3000000E+03  0.7818608E-02  0.1093470E+00
         21   -1    0    0  501  502  0.00000000000E+00  0.00000000000E+00  0.35725998993E+01  0.35725998993E+01  0.00000000000E+00 0. -1.
         13   -1    0    0    0    0 -0.00000000000E+00 -0.00000000000E+00 -0.10000000000E+04  0.10000000000E+04  0.00000000000E+00 0.  1.
    9000005    2    1    2  501    0  0.55959028816E+02  0.20626480970E+02 -0.47571922043E+03  0.47946013773E+03  0.40475133261E+01 0.  0.
         13    1    3    3    0    0  0.38812148789E+02  0.16087000853E+02 -0.34076160742E+03  0.34334188149E+03  0.00000000000E+00 0.  1.
          3    1    3    3  501    0  0.17146880026E+02  0.45394801173E+01 -0.13495761300E+03  0.13611825624E+03  0.00000000000E+00 0.  1.
         -1    1    1    2    0  502 -0.55959028816E+02 -0.20626480970E+02 -0.52070817967E+03  0.52411246217E+03  0.00000000000E+00 0. -1.
<mgrwt>
<rscale>  1 0.30000000E+03</rscale>
<asrwt>0</asrwt>
<pdfrwt beam="1">  1       21 0.12991300E-01 0.30000000E+03</pdfrwt>
<pdfrwt beam="2">0</pdfrwt>
<totfact> 0.53630768E+03</totfact>
</mgrwt>
</event>
<event>
 6    1  0.1274196E-001  0.3000000E+03  0.7818608E-02  0.1093470E+00
         21   -1    0    0  501  502  0.00000000000E+00  0.00000000000E+00  0.28345911767E+01  0.28345911767E+01  0.00000000000E+00 0. -1.
         13   -1    0    0    0    0 -0.00000000000E+00 -0.00000000000E+00 -0.10000000000E+04  0.10000000000E+04  0.00000000000E+00 0.  1.
    9000005    2    1    2  501    0  0.22408346411E+01 -0.53123630656E+02 -0.48841066236E+03  0.49130889923E+03  0.35096837835E+01 0.  0.
         13    1    3    3    0    0  0.22294622268E+01 -0.20172524665E+02 -0.17699134466E+03  0.17815116429E+03  0.00000000000E+00 0.  1.
          3    1    3    3  501    0  0.11372414327E-01 -0.32951105991E+02 -0.31141931770E+03  0.31315773494E+03  0.00000000000E+00 0.  1.
         -1    1    1    2    0  502 -0.22408346411E+01  0.53123630656E+02 -0.50875474647E+03  0.51152569195E+03  0.00000000000E+00 0. -1.
<mgrwt>
<rscale>  1 0.30000000E+03</rscale>
<asrwt>0</asrwt>
<pdfrwt beam="1">  1       21 0.10307626E-01 0.30000000E+03</pdfrwt>
<pdfrwt beam="2">0</pdfrwt>
<totfact> 0.81493969E+03</totfact>
</mgrwt>
</event>
<event>
 6    1  0.1274196E-001  0.3000000E+03  0.7818608E-02  0.1093470E+00
         21   -1    0    0  501  502  0.00000000000E+00  0.00000000000E+00  0.12420738296E+01  0.12420738296E+01  0.00000000000E+00 0. -1.
         13   -1    0    0    0    0 -0.00000000000E+00 -0.00000000000E+00 -0.10000000000E+04  0.10000000000E+04  0.00000000000E+00 0.  1.
    9000005    2    1    2  501    0 -0.24230901476E+02 -0.18986746061E+02 -0.74180668667E+03  0.74245340987E+03  0.35031884945E+01 0.  0.
         13    1    3    3    0    0 -0.80479568382E+01 -0.54076019735E+01 -0.19965642798E+03  0.19989172320E+03  0.00000000000E+00 0.  1.
          3    1    3    3  501    0 -0.16182944638E+02 -0.13579144088E+02 -0.54215025869E+03  0.54256168667E+03  0.00000000000E+00 0.  1.
         -1    1    1    2    0  502  0.24230901476E+02  0.18986746061E+02 -0.25695123950E+03  0.25878866396E+03  0.00000000000E+00 0. -1.
<mgrwt>
<rscale>  1 0.30000000E+03</rscale>
<asrwt>0</asrwt>
<pdfrwt beam="1">  1       21 0.45166416E-02 0.30000000E+03</pdfrwt>
<pdfrwt beam="2">0</pdfrwt>
<totfact> 0.34242992E+04</totfact>
</mgrwt>
</event>
<event>
 6    1  0.1274196E-001  0.3000000E+03  0.7818608E-02  0.1093470E+00
         21   -1    0    0  501  502  0.00000000000E+00  0.00000000000E+00  0.42228048040E+01  0.42228048040E+01  0.00000000000E+00 0. -1.
         13   -1    0    0    0    0 -0.00000000000E+00 -0.00000000000E+00 -0.10000000000E+04  0.10000000000E+04  0.00000000000E+00 0.  1.
    9000005    2    1    2  501    0  0.27778121636E+01 -0.50841753097E+02 -0.80873561149E+03  0.81037452874E+03  0.78094454100E+01 0.  0.
         13    1    3    3    0    0  0.40332547152E+01 -0.32686369820E+02 -0.56625672358E+03  0.56721366602E+03  0.00000000000E+00 0.  1.
          1    1    3    3  501    0 -0.12554425515E+01 -0.18155383277E+02 -0.24247888791E+03  0.24316086272E+03  0.00000000000E+00 0.  1.
         -1    1    1    2    0  502 -0.27778121636E+01  0.50841753097E+02 -0.18704158371E+03  0.19384827606E+03  0.00000000000E+00 0. -1.
<mgrwt>
<rscale>  1 0.30000000E+03</rscale>
<asrwt>0</asrwt>
<pdfrwt beam="1">  1       21 0.15355686E-01 0.30000000E+03</pdfrwt>
<pdfrwt beam="2">0</pdfrwt>
<totfact> 0.39429809E+03</totfact>
</mgrwt>
</event>
<event>
 6    1  0.1274196E-001  0.3000000E+03  0.7818608E-02  0.1093470E+00
         21   -1    0    0  501  502  0.00000000000E+00  0.00000000000E+00  0.17852188117E+01  0.17852188117E+01  0.00000000000E+00 0. -1.
         13   -1    0    0    0    0 -0.00000000000E+00 -0.00000000000E+00 -0.10000000000E+04  0.10000000000E+04  0.00000000000E+00 0.  1.
    9000005    2    1    2  501    0 -0.21238867250E+02  0.27261741139E+02 -0.78607732366E+03  0.78685129199E+03  0.48067580878E+01 0.  0.
         13    1    3    3    0    0 -0.21196358858E+02  0.25686860808E+02 -0.75471143875E+03  0.75544586585E+03  0.00000000000E+00 0.  1.
          3    1    3    3  501    0 -0.42508392555E-01  0.15748803314E+01 -0.31365884913E+02  0.31405426146E+02  0.00000000000E+00 0.  1.
         -1    1    1    2    0  502  0.21238867250E+02 -0.27261741139E+02 -0.21213745753E+03  0.21493392682E+03  0.00000000000E+00 0. -1.
<mgrwt>
<rscale>  1 0.30000000E+03</rscale>
<asrwt>0</asrwt>
<pdfrwt beam="1">  1       21 0.64917185E-02 0.30000000E+03</pdfrwt>
<pdfrwt beam="2">0</pdfrwt>
<totfact> 0.18390593E+04</totfact>
</mgrwt>
</event>
<event>
 6    1  0.1274196E-001  0.3000000E+03  0.7818608E-02  0.1093470E+00
         21   -1    0    0  501  502  0.00000000000E+00  0.00000000000E+00  0.44648503002E+01  0.44648503002E+01  0.00000000000E+00 0. -1.
         13   -1    0    0    0    0 -0.00000000000E+00 -0.00000000000E+00 -0.10000000000E+04  0.10000000000E+04  0.00000000000E+00 0.  1.
    9000005    2    1    2  501    0 -0.23680711717E+02  0.29125588960E+02 -0.91322094996E+03  0.91399549904E+03  0.24885274761E+01 0.  0.
         13    1    3    3    0    0 -0.10413575357E+02  0.14249804891E+02 -0.44947194753E+03  0.44981833123E+03  0.00000000000E+00 0.  1.
          1    1    3    3  501    0 -0.13267136360E+02  0.14875784069E+02 -0.46374900243E+03  0.46417716780E+03  0.00000000000E+00 0.  1.
         -1    1    1    2    0  502  0.23680711717E+02 -0.29125588960E+02 -0.82314199738E+02  0.90469351264E+02  0.00000000000E+00 0. -1.
<mgrwt>
<rscale>  1 0.30000000E+03</rscale>
<asrwt>0</asrwt>
<pdfrwt beam="1">  1       21 0.16235854E-01 0.30000000E+03</pdfrwt>
<pdfrwt beam="2">0</pdfrwt>
<totfact> 0.35543323E+03</totfact>
</mgrwt>
</event>
<event>
 6    1  0.1274196E-001  0.3000000E+03  0.7818608E-02  0.1093470E+00
         21   -1    0    0  501  502  0.00000000000E+00  0.00000000000E+00  0.10395938283E+01  0.10395938283E+01  0.00000000000E+00 0. -1.
         13   -1    0    0    0    0 -0.00000000000E+00 -0.00000000000E+00 -0.10000000000E+04  0.10000000000E+04  0.00000000000E+00 0.  1.
    9000005    2    1    2  501    0  0.26492273295E+02 -0.15085709016E+02 -0.65793649566E+03  0.65865570592E+03  0.41818003714E+01 0.  0.
         13    1    3    3    0    0  0.13049168872E+02 -0.86012601664E+01 -0.37552472290E+03  0.37584981042E+03  0.00000000000E+00 0.  1.
          3    1    3    3  501    0  0.13443104423E+02 -0.64844488493E+01 -0.28241177276E+03  0.28280589550E+03  0.00000000000E+00 0.  1.
         -3    1    1    2    0  502 -0.26492273295E+02  0.15085709016E+02 -0.34102391051E+03  0.34238388791E+03  0.00000000000E+00 0. -1.
<mgrwt>
<rscale>  1 0.30000000E+03</rscale>
<asrwt>0</asrwt>
<pdfrwt beam="1">  1       21 0.37803492E-02 0.30000000E+03</pdfrwt>
<pdfrwt beam="2">0</pdfrwt>
<totfact> 0.46237062E+04</totfact>
</mgrwt>
</event>
<event>
 6    1  0.1274196E-001  0.3000000E+03  0.7818608E-02  0.1093470E+00
         21   -1    0    0  501  502  0.00000000000E+00  0.00000000000E+00  0.41641187286E+01  0.41641187286E+01  0.00000000000E+00 0. -1.
         13   -1    0    0    0    0 -0.00000000000E+00 -0.00000000000E+00 -0.10000000000E+04  0.10000000000E+04  0.00000000000E+00 0.  1.
    9000005    2    1    2  501    0  0.26316929953E+02  0.16548597072E+02 -0.93783915222E+03  0.93836094671E+03  0.35431632242E+01 0.  0.
         13    1    3    3    0    0  0.63879432905E+01  0.54952262575E+01 -0.22563563885E+03  0.22579292472E+03  0.00000000000E+00 0.  1.
          3    1    3    3  501    0  0.19928986662E+02  0.11053370814E+02 -0.71220351336E+03  0.71256802199E+03  0.00000000000E+00 0.  1.
         -3    1    1    2    0  502 -0.26316929953E+02 -0.16548597072E+02 -0.57996729056E+02  0.65803172023E+02  0.00000000000E+00 0. -1.
<mgrwt>
<rscale>  1 0.30000000E+03</rscale>
<asrwt>0</asrwt>
<pdfrwt beam="1">  1       21 0.15142282E-01 0.30000000E+03</pdfrwt>
<pdfrwt beam="2">0</pdfrwt>
<totfact> 0.40466630E+03</totfact>
</mgrwt>
</event>
<event>
 6    1  0.1274196E-001  0.3000000E+03  0.7818608E-02  0.1093470E+00
         21   -1    0    0  501  502  0.00000000000E+00  0.00000000000E+00  0.37729805346E+01  0.37729805346E+01  0.00000000000E+00 0. -1.
         13   -1    0    0    0    0 -0.00000000000E+00 -0.00000000000E+00 -0.10000000000E+04  0.10000000000E+04  0.00000000000E+00 0.  1.
    9000005    2    1    2  501    0 -0.19627682427E+02 -0.25602098584E+02 -0.92509758174E+03  0.92566977778E+03  0.42764922042E+01 0.  0.
         13    1    3    3    0    0 -0.66621218897E+01 -0.11338033664E+02 -0.41408707574E+03  0.41429583774E+03  0.00000000000E+00 0.  1.
          3    1    3    3  501    0 -0.12965560537E+02 -0.14264064920E+02 -0.51101050600E+03  0.51137394004E+03  0.00000000000E+00 0.  1.
         -1    1    1    2    0  502  0.19627682427E+02  0.25602098584E+02 -0.71129437729E+02  0.78103202757E+02  0.00000000000E+00 0. -1.
<mgrwt>
<rscale>  1 0.30000000E+03</rscale>
<asrwt>0</asrwt>
<pdfrwt beam="1">  1       21 0.13719958E-01 0.30000000E+03</pdfrwt>
<pdfrwt beam="2">0</pdfrwt>
<totfact> 0.48533938E+03</totfact>
</mgrwt>
</event>
<event>
 6    1  0.1274196E-001  0.3000000E+03  0.7818608E-02  0.1093470E+00
         21   -1    0    0  501  502  0.00000000000E+00  0.00000000000E+00  0.30882868166E+01  0.30882868166E+01  0.00000000000E+00 0. -1.
         13   -1    0    0    0    0 -0.00000000000E+00 -0.00000000000E+00 -0.10000000000E+04  0.10000000000E+04  0.00000000000E+00 0.  1.
    9000005    2    1    2  501    0  0.53225533856E+02  0.79012969308E+01 -0.62274321356E+03  0.62507049086E+03  0.29360798519E+01 0.  0.
         13    1    3    3    0    0  0.42199315829E+02  0.65865919221E+01 -0.50702667016E+03  0.50882237539E+03  0.00000000000E+00 0.  1.
          3    1    3    3  501    0  0.11026218027E+02  0.13147050088E+01 -0.11571654340E+03  0.11624811547E+03  0.00000000000E+00 0.  1.
         -1    1    1    2    0  502 -0.53225533856E+02 -0.79012969308E+01 -0.37416849962E+03  0.37801779595E+03  0.00000000000E+00 0. -1.
<mgrwt>
<rscale>  1 0.30000000E+03</rscale>
<asrwt>0</asrwt>
<pdfrwt beam="1">  1       21 0.11230158E-01 0.30000000E+03</pdfrwt>
<pdfrwt beam="2">0</pdfrwt>
<totfact> 0.69865786E+03</totfact>
</mgrwt>
</event>
<event>
 6    1  0.1274196E-001  0.3000000E+03  0.7818608E-02  0.1093470E+00
         21   -1    0    0  501  502  0.00000000000E+00  0.00000000000E+00  0.18945216170E+01  0.18945216170E+01  0.00000000000E+00 0. -1.
         13   -1    0    0    0    0 -0.00000000000E+00 -0.00000000000E+00 -0.10000000000E+04  0.10000000000E+04  0.00000000000E+00 0.  1.
    9000005    2    1    2  501    0  0.33235744802E+02 -0.26397366171E+02 -0.58378065267E+03  0.58540142819E+03  0.96719190193E+01 0.  0.
         13    1    3    3    0    0  0.28782853284E+02 -0.17945498024E+02 -0.46770658261E+03  0.46893490056E+03  0.00000000000E+00 0.  1.
          1    1    3    3  501    0  0.44528915178E+01 -0.84518681463E+01 -0.11607407006E+03  0.11646652763E+03  0.00000000000E+00 0.  1.
         -1    1    1    2    0  502 -0.33235744802E+02  0.26397366171E+02 -0.41432482571E+03  0.41649309343E+03  0.00000000000E+00 0. -1.
<mgrwt>
<rscale>  1 0.30000000E+03</rscale>
<asrwt>0</asrwt>
<pdfrwt beam="1">  1       21 0.68891840E-02 0.30000000E+03</pdfrwt>
<pdfrwt beam="2">0</pdfrwt>
<totfact> 0.16589375E+04</totfact>
</mgrwt>
</event>
<event>
 6    1  0.1274196E-001  0.3000000E+03  0.7818608E-02  0.1093470E+00
         21   -1    0    0  501  502  0.00000000000E+00  0.00000000000E+00  0.29670089255E+01  0.29670089255E+01  0.00000000000E+00 0. -1.
         13   -1    0    0    0    0 -0.00000000000E+00 -0.00000000000E+00 -0.10000000000E+04  0.10000000000E+04  0.00000000000E+00 0.  1.
    9000005    2    1    2  501    0 -0.36687722517E+02  0.40113580298E+02 -0.47632007801E+03  0.47942424454E+03  0.34207060428E+01 0.  0.
         13    1    3    3    0    0 -0.86240986616E+01  0.76309851054E+01 -0.10695786897E+03  0.10757598591E+03  0.00000000000E+00 0.  1.
          1    1    3    3  501    0 -0.28063623856E+02  0.32482595192E+02 -0.36936220905E+03  0.37184825863E+03  0.00000000000E+00 0.  1.
         -1    1    1    2    0  502  0.36687722517E+02 -0.40113580298E+02 -0.52071291306E+03  0.52354276438E+03  0.00000000000E+00 0. -1.
<mgrwt>
<rscale>  1 0.30000000E+03</rscale>
<asrwt>0</asrwt>
<pdfrwt beam="1">  1       21 0.10789146E-01 0.30000000E+03</pdfrwt>
<pdfrwt beam="2">0</pdfrwt>
<totfact> 0.75087860E+03</totfact>
</mgrwt>
</event>
<event>
 6    1  0.1274196E-001  0.3000000E+03  0.7818608E-02  0.1093470E+00
         21   -1    0    0  501  502  0.00000000000E+00  0.00000000000E+00  0.26315464548E+01  0.26315464548E+01  0.00000000000E+00 0. -1.
         13   -1    0    0    0    0 -0.00000000000E+00 -0.00000000000E+00 -0.10000000000E+04  0.10000000000E+04  0.00000000000E+00 0.  1.
    9000005    2    1    2  501    0 -0.24991198337E+02  0.29412228591E+02 -0.82840444259E+03  0.82931543012E+03  0.45302250320E+01 0.  0.
         13    1    3    3    0    0 -0.95445589379E+01  0.88446065921E+01 -0.24762163800E+03  0.24796330631E+03  0.00000000000E+00 0.  1.
          1    1    3    3  501    0 -0.15446639399E+02  0.20567621999E+02 -0.58078280459E+03  0.58135212381E+03  0.00000000000E+00 0.  1.
         -3    1    1    2    0  502  0.24991198337E+02 -0.29412228591E+02 -0.16896401095E+03  0.17331611634E+03  0.00000000000E+00 0. -1.
<mgrwt>
<rscale>  1 0.30000000E+03</rscale>
<asrwt>0</asrwt>
<pdfrwt beam="1">  1       21 0.95692800E-02 0.30000000E+03</pdfrwt>
<pdfrwt beam="2">0</pdfrwt>
<totfact> 0.93064347E+03</totfact>
</mgrwt>
</event>
<event>
 6    1  0.1274196E-001  0.3000000E+03  0.7818608E-02  0.1093470E+00
         21   -1    0    0  501  502  0.00000000000E+00  0.00000000000E+00  0.19606449128E+01  0.19606449128E+01  0.00000000000E+00 0. -1.
         13   -1    0    0    0    0 -0.00000000000E+00 -0.00000000000E+00 -0.10000000000E+04  0.10000000000E+04  0.00000000000E+00 0.  1.
    9000005    2    1    2  501    0  0.93267132912E+01 -0.37864592971E+02 -0.73562280466E+03  0.73666239592E+03  0.31400385475E+01 0.  0.
         13    1    3    3    0    0  0.81655584387E+01 -0.32817150931E+02 -0.65627710062E+03  0.65714783309E+03  0.00000000000E+00 0.  1.
          1    1    3    3  501    0  0.11611548525E+01 -0.50474420397E+01 -0.79345704042E+02  0.79514562828E+02  0.00000000000E+00 0.  1.
         -3    1    1    2    0  502 -0.93267132912E+01  0.37864592971E+02 -0.26241655042E+03  0.26529824899E+03  0.00000000000E+00 0. -1.
<mgrwt>
<rscale>  1 0.30000000E+03</rscale>
<asrwt>0</asrwt>
<pdfrwt beam="1">  1       21 0.71296329E-02 0.30000000E+03</pdfrwt>
<pdfrwt beam="2">0</pdfrwt>
<totfact> 0.15627777E+04</totfact>
</mgrwt>
</event>
<event>
 6    1  0.1274196E-001  0.3000000E+03  0.7818608E-02  0.1093470E+00
         21   -1    0    0  501  502  0.00000000000E+00  0.00000000000E+00  0.43520764742E+01  0.43520764742E+01  0.00000000000E+00 0. -1.
         13   -1    0    0    0    0 -0.00000000000E+00 -0.00000000000E+00 -0.10000000000E+04  0.10000000000E+04  0.00000000000E+00 0.  1.
    9000005    2    1    2  501    0  0.16214403569E+02  0.43793654220E+02 -0.85164120464E+03  0.85296275678E+03  0.84812723532E+01 0.  0.
         13    1    3    3    0    0  0.81184444939E+01  0.29382019475E+02 -0.60580981798E+03  0.60657625059E+03  0.00000000000E+00 0.  1.
          3    1    3    3  501    0  0.80959590752E+01  0.14411634745E+02 -0.24583138666E+03  0.24638650620E+03  0.00000000000E+00 0.  1.
         -3    1    1    2    0  502 -0.16214403569E+02 -0.43793654220E+02 -0.14400671888E+03  0.15138931969E+03  0.00000000000E+00 0. -1.
<mgrwt>
<rscale>  1 0.30000000E+03</rscale>
<asrwt>0</asrwt>
<pdfrwt beam="1">  1       21 0.15825766E-01 0.30000000E+03</pdfrwt>
<pdfrwt beam="2">0</pdfrwt>
<totfact> 0.37279466E+03</totfact>
</mgrwt>
</event>
<event>
 6    1  0.1274196E-001  0.3000000E+03  0.7818608E-02  0.1093470E+00
         21   -1    0    0  501  502  0.00000000000E+00  0.00000000000E+00  0.19025528235E+02  0.19025528235E+02  0.00000000000E+00 0. -1.
         13   -1    0    0    0    0 -0.00000000000E+00 -0.00000000000E+00 -0.10000000000E+04  0.10000000000E+04  0.00000000000E+00 0.  1.
    9000005    2    1    2  501    0 -0.36422841292E+02  0.57300534293E+02 -0.93398595285E+03  0.93645497956E+03  0.28625223013E+01 0.  0.
         13    1    3    3    0    0 -0.29785698416E+02  0.47223406972E+02 -0.75264200393E+03  0.75471002648E+03  0.00000000000E+00 0.  1.
          3    1    3    3  501    0 -0.66371428760E+01  0.10077127321E+02 -0.18134394892E+03  0.18174495308E+03  0.00000000000E+00 0.  1.
         -1    1    1    2    0  502  0.36422841292E+02 -0.57300534293E+02 -0.46988518918E+02  0.82570548673E+02  0.00000000000E+00 0. -1.
<mgrwt>
<rscale>  1 0.30000000E+03</rscale>
<asrwt>0</asrwt>
<pdfrwt beam="1">  1       21 0.69183885E-01 0.30000000E+03</pdfrwt>
<pdfrwt beam="2">0</pdfrwt>
<totfact> 0.18130886E+02</totfact>
</mgrwt>
</event>
<event>
 6    1  0.1274196E-001  0.3000000E+03  0.7818608E-02  0.1093470E+00
         21   -1    0    0  501  502  0.00000000000E+00  0.00000000000E+00  0.60091924094E+01  0.60091924094E+01  0.00000000000E+00 0. -1.
         13   -1    0    0    0    0 -0.00000000000E+00 -0.00000000000E+00 -0.10000000000E+04  0.10000000000E+04  0.00000000000E+00 0.  1.
    9000005    2    1    2  501    0 -0.74611401368E+01 -0.47966001364E+02 -0.88912012884E+03  0.89044853665E+03  0.27544521348E+01 0.  0.
         13    1    3    3    0    0 -0.22681253600E+01 -0.80244851367E+01 -0.14806546832E+03  0.14830010001E+03  0.00000000000E+00 0.  1.
          3    1    3    3  501    0 -0.51930147768E+01 -0.39941516227E+02 -0.74105466052E+03  0.74214843664E+03  0.00000000000E+00 0.  1.
         -3    1    1    2    0  502  0.74611401368E+01  0.47966001364E+02 -0.10487067875E+03  0.11556065576E+03  0.00000000000E+00 0. -1.
<mgrwt>
<rscale>  1 0.30000000E+03</rscale>
<asrwt>0</asrwt>
<pdfrwt beam="1">  1       21 0.21851655E-01 0.30000000E+03</pdfrwt>
<pdfrwt beam="2">0</pdfrwt>
<totfact> 0.20247896E+03</totfact>
</mgrwt>
</event>
<event>
 6    1  0.1274196E-001  0.3000000E+03  0.7818608E-02  0.1093470E+00
         21   -1    0    0  501  502  0.00000000000E+00  0.00000000000E+00  0.26289415145E+01  0.26289415145E+01  0.00000000000E+00 0. -1.
         13   -1    0    0    0    0 -0.00000000000E+00 -0.00000000000E+00 -0.10000000000E+04  0.10000000000E+04  0.00000000000E+00 0.  1.
    9000005    2    1    2  501    0 -0.43458066678E+02  0.43798495379E+01 -0.76067738733E+03  0.76193893215E+03  0.36141518850E+01 0.  0.
         13    1    3    3    0    0 -0.17093876237E+02  0.13896412522E+01 -0.26903866716E+03  0.26958474759E+03  0.00000000000E+00 0.  1.
          3    1    3    3  501    0 -0.26364190441E+02  0.29902082858E+01 -0.49163872017E+03  0.49235418456E+03  0.00000000000E+00 0.  1.
         -3    1    1    2    0  502  0.43458066678E+02 -0.43798495379E+01 -0.23669367115E+03  0.24069000936E+03  0.00000000000E+00 0. -1.
<mgrwt>
<rscale>  1 0.30000000E+03</rscale>
<asrwt>0</asrwt>
<pdfrwt beam="1">  1       21 0.95598075E-02 0.30000000E+03</pdfrwt>
<pdfrwt beam="2">0</pdfrwt>
<totfact> 0.93228784E+03</totfact>
</mgrwt>
</event>
<event>
 6    1  0.1274196E-001  0.3000000E+03  0.7818608E-02  0.1093470E+00
         21   -1    0    0  501  502  0.00000000000E+00  0.00000000000E+00  0.16175030283E+01  0.16175030283E+01  0.00000000000E+00 0. -1.
         13   -1    0    0    0    0 -0.00000000000E+00 -0.00000000000E+00 -0.10000000000E+04  0.10000000000E+04  0.00000000000E+00 0.  1.
    9000005    2    1    2  501    0 -0.12512367027E+02  0.34794834821E+02 -0.69562937082E+03  0.69661472394E+03  0.21476031630E+01 0.  0.
         13    1    3    3    0    0 -0.71415051836E+01  0.17580039582E+02 -0.37069573500E+03  0.37118107015E+03  0.00000000000E+00 0.  1.
          1    1    3    3  501    0 -0.53708618431E+01  0.17214795239E+02 -0.32493363582E+03  0.32543365379E+03  0.00000000000E+00 0.  1.
         -3    1    1    2    0  502  0.12512367027E+02 -0.34794834821E+02 -0.30275312615E+03  0.30500277909E+03  0.00000000000E+00 0. -1.
<mgrwt>
<rscale>  1 0.30000000E+03</rscale>
<asrwt>0</asrwt>
<pdfrwt beam="1">  1       21 0.58818416E-02 0.30000000E+03</pdfrwt>
<pdfrwt beam="2">0</pdfrwt>
<totfact> 0.21806729E+04</totfact>
</mgrwt>
</event>
<event>
 6    1  0.1274196E-001  0.3000000E+03  0.7818608E-02  0.1093470E+00
         21   -1    0    0  501  502  0.00000000000E+00  0.00000000000E+00  0.41331487058E+01  0.41331487058E+01  0.00000000000E+00 0. -1.
         13   -1    0    0    0    0 -0.00000000000E+00 -0.00000000000E+00 -0.10000000000E+04  0.10000000000E+04  0.00000000000E+00 0.  1.
    9000005    2    1    2  501    0  0.23934127135E+02  0.22791836035E+02 -0.92851262318E+03  0.92910713804E+03  0.34745243736E+01 0.  0.
         13    1    3    3    0    0  0.12572930695E+02  0.10216886386E+02 -0.42078088667E+03  0.42109264770E+03  0.00000000000E+00 0.  1.
          3    1    3    3  501    0  0.11361196441E+02  0.12574949649E+02 -0.50773173651E+03  0.50801449035E+03  0.00000000000E+00 0.  1.
         -3    1    1    2    0  502 -0.23934127135E+02 -0.22791836035E+02 -0.67354228110E+02  0.75026010662E+02  0.00000000000E+00 0. -1.
<mgrwt>
<rscale>  1 0.30000000E+03</rscale>
<asrwt>0</asrwt>
<pdfrwt beam="1">  1       21 0.15029663E-01 0.30000000E+03</pdfrwt>
<pdfrwt beam="2">0</pdfrwt>
<totfact> 0.41030036E+03</totfact>
</mgrwt>
</event>
<event>
 6    1  0.1274196E-001  0.3000000E+03  0.7818608E-02  0.1093470E+00
         21   -1    0    0  501  502  0.00000000000E+00  0.00000000000E+00  0.12063427367E+01  0.12063427367E+01  0.00000000000E+00 0. -1.
         13   -1    0    0    0    0 -0.00000000000E+00 -0.00000000000E+00 -0.10000000000E+04  0.10000000000E+04  0.00000000000E+00 0.  1.
    9000005    2    1    2  501    0  0.31857396950E+02  0.36390822718E+00 -0.69653538417E+03  0.69727363666E+03  0.37358815410E+01 0.  0.
         13    1    3    3    0    0  0.11489743135E+02  0.18431511954E+01 -0.24116512013E+03  0.24144570108E+03  0.00000000000E+00 0.  1.
          3    1    3    3  501    0  0.20367653816E+02 -0.14792429682E+01 -0.45537026404E+03  0.45582793558E+03  0.00000000000E+00 0.  1.
         -1    1    1    2    0  502 -0.31857396950E+02 -0.36390822718E+00 -0.30225827309E+03  0.30393270607E+03  0.00000000000E+00 0. -1.
<mgrwt>
<rscale>  1 0.30000000E+03</rscale>
<asrwt>0</asrwt>
<pdfrwt beam="1">  1       21 0.43867101E-02 0.30000000E+03</pdfrwt>
<pdfrwt beam="2">0</pdfrwt>
<totfact> 0.35980284E+04</totfact>
</mgrwt>
</event>
<event>
 6    1  0.1274196E-001  0.3000000E+03  0.7818608E-02  0.1093470E+00
         21   -1    0    0  501  502  0.00000000000E+00  0.00000000000E+00  0.13347567599E+01  0.13347567599E+01  0.00000000000E+00 0. -1.
         13   -1    0    0    0    0 -0.00000000000E+00 -0.00000000000E+00 -0.10000000000E+04  0.10000000000E+04  0.00000000000E+00 0.  1.
    9000005    2    1    2  501    0  0.55964410531E+01 -0.34378323704E+02 -0.35094477395E+03  0.35267845668E+03  0.25826636957E+01 0.  0.
         13    1    3    3    0    0  0.42476745331E+01 -0.30441703498E+02 -0.31350812202E+03  0.31501124205E+03  0.00000000000E+00 0.  1.
          3    1    3    3  501    0  0.13487665200E+01 -0.39366202063E+01 -0.37436651930E+02  0.37667214624E+02  0.00000000000E+00 0.  1.
         -3    1    1    2    0  502 -0.55964410531E+01  0.34378323704E+02 -0.64772046929E+03  0.64865630008E+03  0.00000000000E+00 0. -1.
<mgrwt>
<rscale>  1 0.30000000E+03</rscale>
<asrwt>0</asrwt>
<pdfrwt beam="1">  1       21 0.48536712E-02 0.30000000E+03</pdfrwt>
<pdfrwt beam="2">0</pdfrwt>
<totfact> 0.30299653E+04</totfact>
</mgrwt>
</event>
<event>
 6    1  0.1274196E-001  0.3000000E+03  0.7818608E-02  0.1093470E+00
         21   -1    0    0  501  502  0.00000000000E+00  0.00000000000E+00  0.18423718368E+01  0.18423718368E+01  0.00000000000E+00 0. -1.
         13   -1    0    0    0    0 -0.00000000000E+00 -0.00000000000E+00 -0.10000000000E+04  0.10000000000E+04  0.00000000000E+00 0.  1.
    9000005    2    1    2  501    0  0.29976596720E+02  0.13993540130E+02 -0.81765968830E+03  0.81833781655E+03  0.38730618921E+01 0.  0.
         13    1    3    3    0    0  0.22488334236E+02  0.87276280688E+01 -0.60812708903E+03  0.60860533442E+03  0.00000000000E+00 0.  1.
          1    1    3    3  501    0  0.74882624836E+01  0.52659120611E+01 -0.20953259927E+03  0.20973248213E+03  0.00000000000E+00 0.  1.
         -3    1    1    2    0  502 -0.29976596720E+02 -0.13993540130E+02 -0.18049793987E+03  0.18350455529E+03  0.00000000000E+00 0. -1.
<mgrwt>
<rscale>  1 0.30000000E+03</rscale>
<asrwt>0</asrwt>
<pdfrwt beam="1">  1       21 0.66995481E-02 0.30000000E+03</pdfrwt>
<pdfrwt beam="2">0</pdfrwt>
<totfact> 0.17413218E+04</totfact>
</mgrwt>
</event>
<event>
 6    1  0.1274196E-001  0.3000000E+03  0.7818608E-02  0.1093470E+00
         21   -1    0    0  501  502  0.00000000000E+00  0.00000000000E+00  0.18470470360E+01  0.18470470360E+01  0.00000000000E+00 0. -1.
         13   -1    0    0    0    0 -0.00000000000E+00 -0.00000000000E+00 -0.10000000000E+04  0.10000000000E+04  0.00000000000E+00 0.  1.
    9000005    2    1    2  501    0 -0.34690587956E+02 -0.92792487319E+01 -0.77364450901E+03  0.77448481896E+03  0.33715168274E+01 0.  0.
         13    1    3    3    0    0 -0.80440655706E+01 -0.32931233604E+01 -0.16753664024E+03  0.16776196672E+03  0.00000000000E+00 0.  1.
          1    1    3    3  501    0 -0.26646522386E+02 -0.59861253715E+01 -0.60610786877E+03  0.60672285225E+03  0.00000000000E+00 0.  1.
         -1    1    1    2    0  502  0.34690587956E+02  0.92792487319E+01 -0.22450844395E+03  0.22736222807E+03  0.00000000000E+00 0. -1.
<mgrwt>
<rscale>  1 0.30000000E+03</rscale>
<asrwt>0</asrwt>
<pdfrwt beam="1">  1       21 0.67165488E-02 0.30000000E+03</pdfrwt>
<pdfrwt beam="2">0</pdfrwt>
<totfact> 0.17336824E+04</totfact>
</mgrwt>
</event>
<event>
 6    1  0.1274196E-001  0.3000000E+03  0.7818608E-02  0.1093470E+00
         21   -1    0    0  501  502  0.00000000000E+00  0.00000000000E+00  0.18667178120E+01  0.18667178120E+01  0.00000000000E+00 0. -1.
         13   -1    0    0    0    0 -0.00000000000E+00 -0.00000000000E+00 -0.10000000000E+04  0.10000000000E+04  0.00000000000E+00 0.  1.
    9000005    2    1    2  501    0  0.13080087013E+02 -0.40106383646E+02 -0.39418006886E+03  0.39644199535E+03  0.29526769289E+01 0.  0.
         13    1    3    3    0    0  0.12288062277E+02 -0.34427171975E+02 -0.34089554500E+03  0.34284982025E+03  0.00000000000E+00 0.  1.
          3    1    3    3  501    0  0.79202473642E+00 -0.56792116705E+01 -0.53284523862E+02  0.53592175097E+02  0.00000000000E+00 0.  1.
         -3    1    1    2    0  502 -0.13080087013E+02  0.40106383646E+02 -0.60395321332E+03  0.60542472246E+03  0.00000000000E+00 0. -1.
<mgrwt>
<rscale>  1 0.30000000E+03</rscale>
<asrwt>0</asrwt>
<pdfrwt beam="1">  1       21 0.67880791E-02 0.30000000E+03</pdfrwt>
<pdfrwt beam="2">0</pdfrwt>
<totfact> 0.17020975E+04</totfact>
</mgrwt>
</event>
<event>
 6    1  0.1274196E-001  0.3000000E+03  0.7818608E-02  0.1093470E+00
         21   -1    0    0  501  502  0.00000000000E+00  0.00000000000E+00  0.18525298665E+01  0.18525298665E+01  0.00000000000E+00 0. -1.
         13   -1    0    0    0    0 -0.00000000000E+00 -0.00000000000E+00 -0.10000000000E+04  0.10000000000E+04  0.00000000000E+00 0.  1.
    9000005    2    1    2  501    0 -0.10518713583E+02 -0.31013813457E+02 -0.82374284640E+03  0.82439979605E+03  0.32010569776E+01 0.  0.
         13    1    3    3    0    0 -0.32503022222E+01 -0.56282464252E+01 -0.16174761987E+03  0.16187814602E+03  0.00000000000E+00 0.  1.
          3    1    3    3  501    0 -0.72684113610E+01 -0.25385567031E+02 -0.66199522653E+03  0.66252165003E+03  0.00000000000E+00 0.  1.
         -3    1    1    2    0  502  0.10518713583E+02  0.31013813457E+02 -0.17440462373E+03  0.17745273382E+03  0.00000000000E+00 0. -1.
<mgrwt>
<rscale>  1 0.30000000E+03</rscale>
<asrwt>0</asrwt>
<pdfrwt beam="1">  1       21 0.67364864E-02 0.30000000E+03</pdfrwt>
<pdfrwt beam="2">0</pdfrwt>
<totfact> 0.17247888E+04</totfact>
</mgrwt>
</event>
<event>
 6    1  0.1274196E-001  0.3000000E+03  0.7818608E-02  0.1093470E+00
         21   -1    0    0  501  502  0.00000000000E+00  0.00000000000E+00  0.53860333946E+01  0.53860333946E+01  0.00000000000E+00 0. -1.
         13   -1    0    0    0    0 -0.00000000000E+00 -0.00000000000E+00 -0.10000000000E+04  0.10000000000E+04  0.00000000000E+00 0.  1.
    9000005    2    1    2  501    0 -0.29780421631E+02  0.31824708494E+02 -0.90168609035E+03  0.90274454194E+03  0.31963858260E+01 0.  0.
         13    1    3    3    0    0 -0.71045618554E+01  0.73906769871E+01 -0.24123029544E+03  0.24144803238E+03  0.00000000000E+00 0.  1.
          3    1    3    3  501    0 -0.22675859776E+02  0.24434031507E+02 -0.66045579492E+03  0.66129650956E+03  0.00000000000E+00 0.  1.
         -1    1    1    2    0  502  0.29780421631E+02 -0.31824708494E+02 -0.92927876251E+02  0.10264149145E+03  0.00000000000E+00 0. -1.
<mgrwt>
<rscale>  1 0.30000000E+03</rscale>
<asrwt>0</asrwt>
<pdfrwt beam="1">  1       21 0.19585617E-01 0.30000000E+03</pdfrwt>
<pdfrwt beam="2">0</pdfrwt>
<totfact> 0.24969029E+03</totfact>
</mgrwt>
</event>
<event>
 6    1  0.1274196E-001  0.3000000E+03  0.7818608E-02  0.1093470E+00
         21   -1    0    0  501  502  0.00000000000E+00  0.00000000000E+00  0.12323268769E+01  0.12323268769E+01  0.00000000000E+00 0. -1.
         13   -1    0    0    0    0 -0.00000000000E+00 -0.00000000000E+00 -0.10000000000E+04  0.10000000000E+04  0.00000000000E+00 0.  1.
    9000005    2    1    2  501    0 -0.28314579386E+02  0.20256366488E+02 -0.55659749538E+03  0.55769371314E+03  0.30773405666E+01 0.  0.
         13    1    3    3    0    0 -0.99203328899E+01  0.89322703977E+01 -0.21129099913E+03  0.21171226883E+03  0.00000000000E+00 0.  1.
          1    1    3    3  501    0 -0.18394246496E+02  0.11324096090E+02 -0.34530649625E+03  0.34598144431E+03  0.00000000000E+00 0.  1.
         -3    1    1    2    0  502  0.28314579386E+02 -0.20256366488E+02 -0.44217017774E+03  0.44353861374E+03  0.00000000000E+00 0. -1.
<mgrwt>
<rscale>  1 0.30000000E+03</rscale>
<asrwt>0</asrwt>
<pdfrwt beam="1">  1       21 0.44811981E-02 0.30000000E+03</pdfrwt>
<pdfrwt beam="2">0</pdfrwt>
<totfact> 0.34703840E+04</totfact>
</mgrwt>
</event>
<event>
 6    1  0.1274196E-001  0.3000000E+03  0.7818608E-02  0.1093470E+00
         21   -1    0    0  501  502  0.00000000000E+00  0.00000000000E+00  0.16727216846E+01  0.16727216846E+01  0.00000000000E+00 0. -1.
         13   -1    0    0    0    0 -0.00000000000E+00 -0.00000000000E+00 -0.10000000000E+04  0.10000000000E+04  0.00000000000E+00 0.  1.
    9000005    2    1    2  501    0 -0.15064307800E+02 -0.28474158411E+02 -0.80731104185E+03  0.80795923826E+03  0.30498084877E+01 0.  0.
         13    1    3    3    0    0 -0.32599738364E+01 -0.85710843818E+01 -0.20997209944E+03  0.21017224712E+03  0.00000000000E+00 0.  1.
          3    1    3    3  501    0 -0.11804333964E+02 -0.19903074029E+02 -0.59733894241E+03  0.59778699114E+03  0.00000000000E+00 0.  1.
         -3    1    1    2    0  502  0.15064307800E+02  0.28474158411E+02 -0.19101623647E+03  0.19371348342E+03  0.00000000000E+00 0. -1.
<mgrwt>
<rscale>  1 0.30000000E+03</rscale>
<asrwt>0</asrwt>
<pdfrwt beam="1">  1       21 0.60826371E-02 0.30000000E+03</pdfrwt>
<pdfrwt beam="2">0</pdfrwt>
<totfact> 0.20580244E+04</totfact>
</mgrwt>
</event>
<event>
 6    1  0.1274196E-001  0.3000000E+03  0.7818608E-02  0.1093470E+00
         21   -1    0    0  501  502  0.00000000000E+00  0.00000000000E+00  0.21451015945E+01  0.21451015945E+01  0.00000000000E+00 0. -1.
         13   -1    0    0    0    0 -0.00000000000E+00 -0.00000000000E+00 -0.10000000000E+04  0.10000000000E+04  0.00000000000E+00 0.  1.
    9000005    2    1    2  501    0  0.18862394307E+02  0.29171145292E+02 -0.83004730878E+03  0.83077960690E+03  0.30781144137E+01 0.  0.
         13    1    3    3    0    0  0.97971293459E+01  0.13370416694E+02 -0.42401078871E+03  0.42433465653E+03  0.00000000000E+00 0.  1.
          1    1    3    3  501    0  0.90652649610E+01  0.15800728597E+02 -0.40603652007E+03  0.40644495037E+03  0.00000000000E+00 0.  1.
         -1    1    1    2    0  502 -0.18862394307E+02 -0.29171145292E+02 -0.16780758962E+03  0.17136549469E+03  0.00000000000E+00 0. -1.
<mgrwt>
<rscale>  1 0.30000000E+03</rscale>
<asrwt>0</asrwt>
<pdfrwt beam="1">  1       21 0.78003859E-02 0.30000000E+03</pdfrwt>
<pdfrwt beam="2">0</pdfrwt>
<totfact> 0.13353168E+04</totfact>
</mgrwt>
</event>
<event>
 6    1  0.1274196E-001  0.3000000E+03  0.7818608E-02  0.1093470E+00
         21   -1    0    0  501  502  0.00000000000E+00  0.00000000000E+00  0.83469531456E+01  0.83469531456E+01  0.00000000000E+00 0. -1.
         13   -1    0    0    0    0 -0.00000000000E+00 -0.00000000000E+00 -0.10000000000E+04  0.10000000000E+04  0.00000000000E+00 0.  1.
    9000005    2    1    2  501    0 -0.55261869556E+01 -0.32300762114E+02 -0.96643193146E+03  0.96699501683E+03  0.38479155239E+01 0.  0.
         13    1    3    3    0    0 -0.10851648232E+01 -0.98512134599E+01 -0.34321556895E+03  0.34335863285E+03  0.00000000000E+00 0.  1.
          1    1    3    3  501    0 -0.44410221324E+01 -0.22449548654E+02 -0.62321636251E+03  0.62363638397E+03  0.00000000000E+00 0.  1.
         -3    1    1    2    0  502  0.55261869556E+01  0.32300762114E+02 -0.25221115399E+02  0.41351936320E+02  0.00000000000E+00 0. -1.
<mgrwt>
<rscale>  1 0.30000000E+03</rscale>
<asrwt>0</asrwt>
<pdfrwt beam="1">  1       21 0.30352621E-01 0.30000000E+03</pdfrwt>
<pdfrwt beam="2">0</pdfrwt>
<totfact> 0.10621364E+03</totfact>
</mgrwt>
</event>
<event>
 6    1  0.1274196E-001  0.3000000E+03  0.7818608E-02  0.1093470E+00
         21   -1    0    0  501  502  0.00000000000E+00  0.00000000000E+00  0.39538586310E+01  0.39538586310E+01  0.00000000000E+00 0. -1.
         13   -1    0    0    0    0 -0.00000000000E+00 -0.00000000000E+00 -0.10000000000E+04  0.10000000000E+04  0.00000000000E+00 0.  1.
    9000005    2    1    2  501    0  0.34865236132E+02  0.34318911413E+02 -0.81308133507E+03  0.81456142817E+03  0.39611179588E+01 0.  0.
         13    1    3    3    0    0  0.18451271872E+01  0.20049589648E+01 -0.32497050371E+02  0.32611081515E+02  0.00000000000E+00 0.  1.
          1    1    3    3  501    0  0.33020108944E+02  0.32313952448E+02 -0.78058428470E+03  0.78195034666E+03  0.00000000000E+00 0.  1.
         -3    1    1    2    0  502 -0.34865236132E+02 -0.34318911413E+02 -0.18296480630E+03  0.18939243046E+03  0.00000000000E+00 0. -1.
<mgrwt>
<rscale>  1 0.30000000E+03</rscale>
<asrwt>0</asrwt>
<pdfrwt beam="1">  1       21 0.14377698E-01 0.30000000E+03</pdfrwt>
<pdfrwt beam="2">0</pdfrwt>
<totfact> 0.44531549E+03</totfact>
</mgrwt>
</event>
<event>
 6    1  0.1274196E-001  0.3000000E+03  0.7818608E-02  0.1093470E+00
         21   -1    0    0  501  502  0.00000000000E+00  0.00000000000E+00  0.22516637546E+01  0.22516637546E+01  0.00000000000E+00 0. -1.
         13   -1    0    0    0    0 -0.00000000000E+00 -0.00000000000E+00 -0.10000000000E+04  0.10000000000E+04  0.00000000000E+00 0.  1.
    9000005    2    1    2  501    0  0.26443591215E+02  0.18426005559E+02 -0.86620421913E+03  0.86681667586E+03  0.47559563479E+01 0.  0.
         13    1    3    3    0    0  0.23694521218E+02  0.16616998355E+02 -0.73150754073E+03  0.73207980242E+03  0.00000000000E+00 0.  1.
          1    1    3    3  501    0  0.27490699970E+01  0.18090072044E+01 -0.13469667840E+03  0.13473687344E+03  0.00000000000E+00 0.  1.
         -3    1    1    2    0  502 -0.26443591215E+02 -0.18426005559E+02 -0.13154411712E+03  0.13543498789E+03  0.00000000000E+00 0. -1.
<mgrwt>
<rscale>  1 0.30000000E+03</rscale>
<asrwt>0</asrwt>
<pdfrwt beam="1">  1       21 0.81878855E-02 0.30000000E+03</pdfrwt>
<pdfrwt beam="2">0</pdfrwt>
<totfact> 0.12263153E+04</totfact>
</mgrwt>
</event>
<event>
 6    1  0.1274196E-001  0.3000000E+03  0.7818608E-02  0.1093470E+00
         21   -1    0    0  501  502  0.00000000000E+00  0.00000000000E+00  0.14930906726E+01  0.14930906726E+01  0.00000000000E+00 0. -1.
         13   -1    0    0    0    0 -0.00000000000E+00 -0.00000000000E+00 -0.10000000000E+04  0.10000000000E+04  0.00000000000E+00 0.  1.
    9000005    2    1    2  501    0  0.11241788310E+01 -0.38477543184E+02 -0.48191985221E+03  0.48347381238E+03  0.42893111297E+01 0.  0.
         13    1    3    3    0    0 -0.22598429853E+00 -0.31649428244E+02 -0.40882778785E+03  0.41005109132E+03  0.00000000000E+00 0.  1.
          3    1    3    3  501    0  0.13501631295E+01 -0.68281149402E+01 -0.73092064363E+02  0.73422721054E+02  0.00000000000E+00 0.  1.
         -3    1    1    2    0  502 -0.11241788310E+01  0.38477543184E+02 -0.51658705711E+03  0.51801927830E+03  0.00000000000E+00 0. -1.
<mgrwt>
<rscale>  1 0.30000000E+03</rscale>
<asrwt>0</asrwt>
<pdfrwt beam="1">  1       21 0.54294321E-02 0.30000000E+03</pdfrwt>
<pdfrwt beam="2">0</pdfrwt>
<totfact> 0.25021854E+04</totfact>
</mgrwt>
</event>
<event>
 6    1  0.1274196E-001  0.3000000E+03  0.7818608E-02  0.1093470E+00
         21   -1    0    0  501  502  0.00000000000E+00  0.00000000000E+00  0.94551275863E+00  0.94551275863E+00  0.00000000000E+00 0. -1.
         13   -1    0    0    0    0 -0.00000000000E+00 -0.00000000000E+00 -0.10000000000E+04  0.10000000000E+04  0.00000000000E+00 0.  1.
    9000005    2    1    2  501    0  0.26352946080E+02  0.14473228195E+02 -0.59910160577E+03  0.59986415007E+03  0.32112922217E+01 0.  0.
         13    1    3    3    0    0  0.11999581541E+02  0.65279140239E+01 -0.24080205158E+03  0.24118920304E+03  0.00000000000E+00 0.  1.
          1    1    3    3  501    0  0.14353364539E+02  0.79453141706E+01 -0.35829955419E+03  0.35867494703E+03  0.00000000000E+00 0.  1.
         -3    1    1    2    0  502 -0.26352946080E+02 -0.14473228195E+02 -0.39995288147E+03  0.40108136269E+03  0.00000000000E+00 0. -1.
<mgrwt>
<rscale>  1 0.30000000E+03</rscale>
<asrwt>0</asrwt>
<pdfrwt beam="1">  1       21 0.34382355E-02 0.30000000E+03</pdfrwt>
<pdfrwt beam="2">0</pdfrwt>
<totfact> 0.54208073E+04</totfact>
</mgrwt>
</event>
<event>
 6    1  0.1274196E-001  0.3000000E+03  0.7818608E-02  0.1093470E+00
         21   -1    0    0  501  502  0.00000000000E+00  0.00000000000E+00  0.22488904976E+01  0.22488904976E+01  0.00000000000E+00 0. -1.
         13   -1    0    0    0    0 -0.00000000000E+00 -0.00000000000E+00 -0.10000000000E+04  0.10000000000E+04  0.00000000000E+00 0.  1.
    9000005    2    1    2  501    0  0.82517055182E+01  0.46422325379E+02 -0.54725490478E+03  0.54929199033E+03  0.32614261555E+01 0.  0.
         13    1    3    3    0    0  0.11961404798E+01  0.50251460442E+01 -0.72229954969E+02  0.72414427013E+02  0.00000000000E+00 0.  1.
          3    1    3    3  501    0  0.70555650383E+01  0.41397179334E+02 -0.47502494981E+03  0.47687756332E+03  0.00000000000E+00 0.  1.
         -3    1    1    2    0  502 -0.82517055182E+01 -0.46422325379E+02 -0.45049620472E+03  0.45295690017E+03  0.00000000000E+00 0. -1.
<mgrwt>
<rscale>  1 0.30000000E+03</rscale>
<asrwt>0</asrwt>
<pdfrwt beam="1">  1       21 0.81778009E-02 0.30000000E+03</pdfrwt>
<pdfrwt beam="2">0</pdfrwt>
<totfact> 0.12289763E+04</totfact>
</mgrwt>
</event>
<event>
 6    1  0.1274196E-001  0.3000000E+03  0.7818608E-02  0.1093470E+00
         21   -1    0    0  501  502  0.00000000000E+00  0.00000000000E+00  0.28995917836E+01  0.28995917836E+01  0.00000000000E+00 0. -1.
         13   -1    0    0    0    0 -0.00000000000E+00 -0.00000000000E+00 -0.10000000000E+04  0.10000000000E+04  0.00000000000E+00 0.  1.
    9000005    2    1    2  501    0 -0.45653354881E+02 -0.13961042542E+02 -0.73002909466E+03  0.73159491795E+03  0.30830821329E+01 0.  0.
         13    1    3    3    0    0 -0.85472869986E+00 -0.31571789344E+00 -0.21930610895E+02  0.21949531502E+02  0.00000000000E+00 0.  1.
          1    1    3    3  501    0 -0.44798626181E+02 -0.13645324648E+02 -0.70809848377E+03  0.70964538645E+03  0.00000000000E+00 0.  1.
         -1    1    1    2    0  502  0.45653354881E+02  0.13961042542E+02 -0.26707131355E+03  0.27130467383E+03  0.00000000000E+00 0. -1.
<mgrwt>
<rscale>  1 0.30000000E+03</rscale>
<asrwt>0</asrwt>
<pdfrwt beam="1">  1       21 0.10543992E-01 0.30000000E+03</pdfrwt>
<pdfrwt beam="2">0</pdfrwt>
<totfact> 0.78249936E+03</totfact>
</mgrwt>
</event>
<event>
 6    1  0.1274196E-001  0.3000000E+03  0.7818608E-02  0.1093470E+00
         21   -1    0    0  501  502  0.00000000000E+00  0.00000000000E+00  0.10266990696E+01  0.10266990696E+01  0.00000000000E+00 0. -1.
         13   -1    0    0    0    0 -0.00000000000E+00 -0.00000000000E+00 -0.10000000000E+04  0.10000000000E+04  0.00000000000E+00 0.  1.
    9000005    2    1    2  501    0  0.30935437536E+02 -0.61849810422E+00 -0.62482724873E+03  0.62560340169E+03  0.36251372145E+01 0.  0.
         13    1    3    3    0    0  0.27417712370E+02 -0.16342659039E+01 -0.55909373643E+03  0.55976799470E+03  0.00000000000E+00 0.  1.
          3    1    3    3  501    0  0.35177251661E+01  0.10157677997E+01 -0.65733512302E+02  0.65835406995E+02  0.00000000000E+00 0.  1.
         -1    1    1    2    0  502 -0.30935437536E+02  0.61849810422E+00 -0.37414605220E+03  0.37542329738E+03  0.00000000000E+00 0. -1.
<mgrwt>
<rscale>  1 0.30000000E+03</rscale>
<asrwt>0</asrwt>
<pdfrwt beam="1">  1       21 0.37334590E-02 0.30000000E+03</pdfrwt>
<pdfrwt beam="2">0</pdfrwt>
<totfact> 0.47216461E+04</totfact>
</mgrwt>
</event>
<event>
 6    1  0.1274196E-001  0.3000000E+03  0.7818608E-02  0.1093470E+00
         21   -1    0    0  501  502  0.00000000000E+00  0.00000000000E+00  0.26509891046E+01  0.26509891046E+01  0.00000000000E+00 0. -1.
         13   -1    0    0    0    0 -0.00000000000E+00 -0.00000000000E+00 -0.10000000000E+04  0.10000000000E+04  0.00000000000E+00 0.  1.
    9000005    2    1    2  501    0  0.32859382566E+02 -0.47654062307E+01 -0.88166716612E+03  0.88229843479E+03  0.33298801002E+01 0.  0.
         13    1    3    3    0    0  0.27772841361E+02 -0.30563283780E+01 -0.71850695268E+03  0.71905000724E+03  0.00000000000E+00 0.  1.
          3    1    3    3  501    0  0.50865412047E+01 -0.17090778526E+01 -0.16316021344E+03  0.16324842756E+03  0.00000000000E+00 0.  1.
         -1    1    1    2    0  502 -0.32859382566E+02  0.47654062307E+01 -0.11568184478E+03  0.12035255431E+03  0.00000000000E+00 0. -1.
<mgrwt>
<rscale>  1 0.30000000E+03</rscale>
<asrwt>0</asrwt>
<pdfrwt beam="1">  1       21 0.96399807E-02 0.30000000E+03</pdfrwt>
<pdfrwt beam="2">0</pdfrwt>
<totfact> 0.91850946E+03</totfact>
</mgrwt>
</event>
<event>
 6    1  0.1274196E-001  0.3000000E+03  0.7818608E-02  0.1093470E+00
         21   -1    0    0  501  502  0.00000000000E+00  0.00000000000E+00  0.48614938314E+01  0.48614938314E+01  0.00000000000E+00 0. -1.
         13   -1    0    0    0    0 -0.00000000000E+00 -0.00000000000E+00 -0.10000000000E+04  0.10000000000E+04  0.00000000000E+00 0.  1.
    9000005    2    1    2  501    0 -0.20434359962E+02  0.64170663189E+02 -0.36895071331E+03  0.37506264578E+03  0.34528722320E+01 0.  0.
         13    1    3    3    0    0 -0.41817520496E+01  0.12652467683E+02 -0.65678151595E+02  0.67016353120E+02  0.00000000000E+00 0.  1.
          3    1    3    3  501    0 -0.16252607913E+02  0.51518195506E+02 -0.30327256172E+03  0.30804629266E+03  0.00000000000E+00 0.  1.
         -3    1    1    2    0  502  0.20434359962E+02 -0.64170663189E+02 -0.62618779286E+03  0.62979884805E+03  0.00000000000E+00 0. -1.
<mgrwt>
<rscale>  1 0.30000000E+03</rscale>
<asrwt>0</asrwt>
<pdfrwt beam="1">  1       21 0.17678197E-01 0.30000000E+03</pdfrwt>
<pdfrwt beam="2">0</pdfrwt>
<totfact> 0.30307001E+03</totfact>
</mgrwt>
</event>
<event>
 6    1  0.1274196E-001  0.3000000E+03  0.7818608E-02  0.1093470E+00
         21   -1    0    0  501  502  0.00000000000E+00  0.00000000000E+00  0.45916730433E+01  0.45916730433E+01  0.00000000000E+00 0. -1.
         13   -1    0    0    0    0 -0.00000000000E+00 -0.00000000000E+00 -0.10000000000E+04  0.10000000000E+04  0.00000000000E+00 0.  1.
    9000005    2    1    2  501    0 -0.54310821066E+02  0.21066497569E+02 -0.75408731368E+03  0.75633919259E+03  0.27991039121E+01 0.  0.
         13    1    3    3    0    0 -0.39769129209E+02  0.16639853248E+02 -0.55124843546E+03  0.55293155630E+03  0.00000000000E+00 0.  1.
          3    1    3    3  501    0 -0.14541691857E+02  0.44266443217E+01 -0.20283887822E+03  0.20340763628E+03  0.00000000000E+00 0.  1.
         -3    1    1    2    0  502  0.54310821066E+02 -0.21066497569E+02 -0.24132101327E+03  0.24825248046E+03  0.00000000000E+00 0. -1.
<mgrwt>
<rscale>  1 0.30000000E+03</rscale>
<asrwt>0</asrwt>
<pdfrwt beam="1">  1       21 0.16697028E-01 0.30000000E+03</pdfrwt>
<pdfrwt beam="2">0</pdfrwt>
<totfact> 0.33731531E+03</totfact>
</mgrwt>
</event>
<event>
 6    1  0.1274196E-001  0.3000000E+03  0.7818608E-02  0.1093470E+00
         21   -1    0    0  501  502  0.00000000000E+00  0.00000000000E+00  0.10067628402E+01  0.10067628402E+01  0.00000000000E+00 0. -1.
         13   -1    0    0    0    0 -0.00000000000E+00 -0.00000000000E+00 -0.10000000000E+04  0.10000000000E+04  0.00000000000E+00 0.  1.
    9000005    2    1    2  501    0  0.18303914939E+02  0.25554171513E+02 -0.56503580831E+03  0.56591240637E+03  0.18270248751E+01 0.  0.
         13    1    3    3    0    0  0.60774028794E+01  0.99996236419E+01 -0.20939230024E+03  0.20971900891E+03  0.00000000000E+00 0.  1.
          3    1    3    3  501    0  0.12226512059E+02  0.15554547871E+02 -0.35564350808E+03  0.35619339746E+03  0.00000000000E+00 0.  1.
         -1    1    1    2    0  502 -0.18303914939E+02 -0.25554171513E+02 -0.43395742885E+03  0.43509435647E+03  0.00000000000E+00 0. -1.
<mgrwt>
<rscale>  1 0.30000000E+03</rscale>
<asrwt>0</asrwt>
<pdfrwt beam="1">  1       21 0.36609635E-02 0.30000000E+03</pdfrwt>
<pdfrwt beam="2">0</pdfrwt>
<totfact> 0.48796292E+04</totfact>
</mgrwt>
</event>
<event>
 6    1  0.1274196E-001  0.3000000E+03  0.7818608E-02  0.1093470E+00
         21   -1    0    0  501  502  0.00000000000E+00  0.00000000000E+00  0.19938302214E+01  0.19938302214E+01  0.00000000000E+00 0. -1.
         13   -1    0    0    0    0 -0.00000000000E+00 -0.00000000000E+00 -0.10000000000E+04  0.10000000000E+04  0.00000000000E+00 0.  1.
    9000005    2    1    2  501    0  0.16755409543E+02 -0.29177632861E+02 -0.82765145745E+03  0.82834819675E+03  0.46606914679E+01 0.  0.
         13    1    3    3    0    0  0.17054635757E+02 -0.28488618225E+02 -0.80563808947E+03  0.80632201581E+03  0.00000000000E+00 0.  1.
          1    1    3    3  501    0 -0.29922621391E+00 -0.68901463663E+00 -0.22013367974E+02  0.22026180946E+02  0.00000000000E+00 0.  1.
         -3    1    1    2    0  502 -0.16755409543E+02  0.29177632861E+02 -0.17035471233E+03  0.17364563347E+03  0.00000000000E+00 0. -1.
<mgrwt>
<rscale>  1 0.30000000E+03</rscale>
<asrwt>0</asrwt>
<pdfrwt beam="1">  1       21 0.72503070E-02 0.30000000E+03</pdfrwt>
<pdfrwt beam="2">0</pdfrwt>
<totfact> 0.15176879E+04</totfact>
</mgrwt>
</event>
<event>
 6    1  0.1274196E-001  0.3000000E+03  0.7818608E-02  0.1093470E+00
         21   -1    0    0  501  502  0.00000000000E+00  0.00000000000E+00  0.14033206608E+01  0.14033206608E+01  0.00000000000E+00 0. -1.
         13   -1    0    0    0    0 -0.00000000000E+00 -0.00000000000E+00 -0.10000000000E+04  0.10000000000E+04  0.00000000000E+00 0.  1.
    9000005    2    1    2  501    0  0.23849563186E+02  0.27661355986E+02 -0.60485428353E+03  0.60597061269E+03  0.42103271330E+01 0.  0.
         13    1    3    3    0    0  0.11207542448E+02  0.16185819629E+02 -0.32852828731E+03  0.32911764663E+03  0.00000000000E+00 0.  1.
          1    1    3    3  501    0  0.12642020739E+02  0.11475536357E+02 -0.27632599623E+03  0.27685296606E+03  0.00000000000E+00 0.  1.
         -1    1    1    2    0  502 -0.23849563186E+02 -0.27661355986E+02 -0.39374239580E+03  0.39543270797E+03  0.00000000000E+00 0. -1.
<mgrwt>
<rscale>  1 0.30000000E+03</rscale>
<asrwt>0</asrwt>
<pdfrwt beam="1">  1       21 0.51029950E-02 0.30000000E+03</pdfrwt>
<pdfrwt beam="2">0</pdfrwt>
<totfact> 0.27820138E+04</totfact>
</mgrwt>
</event>
<event>
 6    1  0.1274196E-001  0.3000000E+03  0.7818608E-02  0.1093470E+00
         21   -1    0    0  501  502  0.00000000000E+00  0.00000000000E+00  0.99311771416E+00  0.99311771416E+00  0.00000000000E+00 0. -1.
         13   -1    0    0    0    0 -0.00000000000E+00 -0.00000000000E+00 -0.10000000000E+04  0.10000000000E+04  0.00000000000E+00 0.  1.
    9000005    2    1    2  501    0  0.16128330379E+02  0.26964102431E+02 -0.48496249488E+03  0.48598941085E+03  0.31464514954E+01 0.  0.
         13    1    3    3    0    0  0.95533228786E+01  0.17442151383E+02 -0.32636104859E+03  0.32696640295E+03  0.00000000000E+00 0.  1.
          3    1    3    3  501    0  0.65750075007E+01  0.95219510481E+01 -0.15860144629E+03  0.15902300790E+03  0.00000000000E+00 0.  1.
         -3    1    1    2    0  502 -0.16128330379E+02 -0.26964102431E+02 -0.51404438740E+03  0.51500370686E+03  0.00000000000E+00 0. -1.
<mgrwt>
<rscale>  1 0.30000000E+03</rscale>
<asrwt>0</asrwt>
<pdfrwt beam="1">  1       21 0.36113448E-02 0.30000000E+03</pdfrwt>
<pdfrwt beam="2">0</pdfrwt>
<totfact> 0.49926177E+04</totfact>
</mgrwt>
</event>
<event>
 6    1  0.1274196E-001  0.3000000E+03  0.7818608E-02  0.1093470E+00
         21   -1    0    0  501  502  0.00000000000E+00  0.00000000000E+00  0.16402669148E+01  0.16402669148E+01  0.00000000000E+00 0. -1.
         13   -1    0    0    0    0 -0.00000000000E+00 -0.00000000000E+00 -0.10000000000E+04  0.10000000000E+04  0.00000000000E+00 0.  1.
    9000005    2    1    2  501    0  0.36018981624E+02  0.15792937364E+01 -0.72616235464E+03  0.72706555206E+03  0.35623711021E+01 0.  0.
         13    1    3    3    0    0  0.63620702230E+00 -0.18042561663E+00 -0.70030978563E+01  0.70342513719E+01  0.00000000000E+00 0.  1.
          1    1    3    3  501    0  0.35382774602E+02  0.17597193531E+01 -0.71915925678E+03  0.72003130069E+03  0.00000000000E+00 0.  1.
         -1    1    1    2    0  502 -0.36018981624E+02 -0.15792937364E+01 -0.27219737844E+03  0.27457471486E+03  0.00000000000E+00 0. -1.
<mgrwt>
<rscale>  1 0.30000000E+03</rscale>
<asrwt>0</asrwt>
<pdfrwt beam="1">  1       21 0.59646195E-02 0.30000000E+03</pdfrwt>
<pdfrwt beam="2">0</pdfrwt>
<totfact> 0.21287668E+04</totfact>
</mgrwt>
</event>
<event>
 6    1  0.1274196E-001  0.3000000E+03  0.7818608E-02  0.1093470E+00
         21   -1    0    0  501  502  0.00000000000E+00  0.00000000000E+00  0.66839367394E+01  0.66839367394E+01  0.00000000000E+00 0. -1.
         13   -1    0    0    0    0 -0.00000000000E+00 -0.00000000000E+00 -0.10000000000E+04  0.10000000000E+04  0.00000000000E+00 0.  1.
    9000005    2    1    2  501    0 -0.51678462224E+02  0.54954989178E+02 -0.30361484365E+03  0.31286948991E+03  0.38249365961E+01 0.  0.
         13    1    3    3    0    0 -0.33475961982E+01  0.50455833272E+01 -0.23557621271E+02  0.24323359788E+02  0.00000000000E+00 0.  1.
          1    1    3    3  501    0 -0.48330866026E+02  0.49909405851E+02 -0.28005722237E+03  0.28854613012E+03  0.00000000000E+00 0.  1.
         -1    1    1    2    0  502  0.51678462224E+02 -0.54954989178E+02 -0.68970121961E+03  0.69381444683E+03  0.00000000000E+00 0. -1.
<mgrwt>
<rscale>  1 0.30000000E+03</rscale>
<asrwt>0</asrwt>
<pdfrwt beam="1">  1       21 0.24305276E-01 0.30000000E+03</pdfrwt>
<pdfrwt beam="2">0</pdfrwt>
<totfact> 0.16478472E+03</totfact>
</mgrwt>
</event>
<event>
 6    1  0.1274196E-001  0.3000000E+03  0.7818608E-02  0.1093470E+00
         21   -1    0    0  501  502  0.00000000000E+00  0.00000000000E+00  0.82776593736E+01  0.82776593736E+01  0.00000000000E+00 0. -1.
         13   -1    0    0    0    0 -0.00000000000E+00 -0.00000000000E+00 -0.10000000000E+04  0.10000000000E+04  0.00000000000E+00 0.  1.
    9000005    2    1    2  501    0 -0.55012895566E+01  0.36372725289E+02 -0.95694514677E+03  0.95765461576E+03  0.22604951002E+01 0.  0.
         13    1    3    3    0    0 -0.56289049639E+01  0.32875186890E+02 -0.86286388447E+03  0.86350827767E+03  0.00000000000E+00 0.  1.
          3    1    3    3  501    0  0.12761540727E+00  0.34975383985E+01 -0.94081262301E+02  0.94146338095E+02  0.00000000000E+00 0.  1.
         -3    1    1    2    0  502  0.55012895566E+01 -0.36372725289E+02 -0.34777193858E+02  0.50623043610E+02  0.00000000000E+00 0. -1.
<mgrwt>
<rscale>  1 0.30000000E+03</rscale>
<asrwt>0</asrwt>
<pdfrwt beam="1">  1       21 0.30100643E-01 0.30000000E+03</pdfrwt>
<pdfrwt beam="2">0</pdfrwt>
<totfact> 0.10800175E+03</totfact>
</mgrwt>
</event>
<event>
 6    1  0.1274196E-001  0.3000000E+03  0.7818608E-02  0.1093470E+00
         21   -1    0    0  501  502  0.00000000000E+00  0.00000000000E+00  0.13997320180E+01  0.13997320180E+01  0.00000000000E+00 0. -1.
         13   -1    0    0    0    0 -0.00000000000E+00 -0.00000000000E+00 -0.10000000000E+04  0.10000000000E+04  0.00000000000E+00 0.  1.
    9000005    2    1    2  501    0  0.22984593076E+02 -0.28521268229E+02 -0.41141909842E+03  0.41307713331E+03  0.50288428141E+01 0.  0.
         13    1    3    3    0    0  0.15453985468E+02 -0.22066070116E+02 -0.28563833998E+03  0.28690590511E+03  0.00000000000E+00 0.  1.
          3    1    3    3  501    0  0.75306076077E+01 -0.64551981134E+01 -0.12578075843E+03  0.12617122820E+03  0.00000000000E+00 0.  1.
         -1    1    1    2    0  502 -0.22984593076E+02  0.28521268229E+02 -0.58718116956E+03  0.58832259871E+03  0.00000000000E+00 0. -1.
<mgrwt>
<rscale>  1 0.30000000E+03</rscale>
<asrwt>0</asrwt>
<pdfrwt beam="1">  1       21 0.50899453E-02 0.30000000E+03</pdfrwt>
<pdfrwt beam="2">0</pdfrwt>
<totfact> 0.27941958E+04</totfact>
</mgrwt>
</event>
<event>
 6    1  0.1274196E-001  0.3000000E+03  0.7818608E-02  0.1093470E+00
         21   -1    0    0  501  502  0.00000000000E+00  0.00000000000E+00  0.22851507547E+01  0.22851507547E+01  0.00000000000E+00 0. -1.
         13   -1    0    0    0    0 -0.00000000000E+00 -0.00000000000E+00 -0.10000000000E+04  0.10000000000E+04  0.00000000000E+00 0.  1.
    9000005    2    1    2  501    0  0.17998004830E+02  0.42770436677E+02 -0.61705744051E+03  0.61880985657E+03  0.35376910143E+01 0.  0.
         13    1    3    3    0    0  0.15693856903E+02  0.36986784027E+02 -0.54898590251E+03  0.55045421290E+03  0.00000000000E+00 0.  1.
          1    1    3    3  501    0  0.23041479264E+01  0.57836526499E+01 -0.68071538001E+02  0.68355643670E+02  0.00000000000E+00 0.  1.
         -3    1    1    2    0  502 -0.17998004830E+02 -0.42770436677E+02 -0.38065740873E+03  0.38347529419E+03  0.00000000000E+00 0. -1.
<mgrwt>
<rscale>  1 0.30000000E+03</rscale>
<asrwt>0</asrwt>
<pdfrwt beam="1">  1       21 0.83096566E-02 0.30000000E+03</pdfrwt>
<pdfrwt beam="2">0</pdfrwt>
<totfact> 0.11948680E+04</totfact>
</mgrwt>
</event>
<event>
 6    1  0.1274196E-001  0.3000000E+03  0.7818608E-02  0.1093470E+00
         21   -1    0    0  501  502  0.00000000000E+00  0.00000000000E+00  0.36784794878E+01  0.36784794878E+01  0.00000000000E+00 0. -1.
         13   -1    0    0    0    0 -0.00000000000E+00 -0.00000000000E+00 -0.10000000000E+04  0.10000000000E+04  0.00000000000E+00 0.  1.
    9000005    2    1    2  501    0  0.37904357106E+01  0.30388308760E+02 -0.93126663241E+03  0.93177607912E+03  0.33621829687E+01 0.  0.
         13    1    3    3    0    0  0.29150341190E-01  0.81316301980E+01 -0.28187662296E+03  0.28199389147E+03  0.00000000000E+00 0.  1.
          3    1    3    3  501    0  0.37612853694E+01  0.22256678562E+02 -0.64939000945E+03  0.64978218765E+03  0.00000000000E+00 0.  1.
         -3    1    1    2    0  502 -0.37904357106E+01 -0.30388308760E+02 -0.65054888102E+02  0.71902400364E+02  0.00000000000E+00 0. -1.
<mgrwt>
<rscale>  1 0.30000000E+03</rscale>
<asrwt>0</asrwt>
<pdfrwt beam="1">  1       21 0.13376317E-01 0.30000000E+03</pdfrwt>
<pdfrwt beam="2">0</pdfrwt>
<totfact> 0.50842545E+03</totfact>
</mgrwt>
</event>
<event>
 6    1  0.1274196E-001  0.3000000E+03  0.7818608E-02  0.1093470E+00
         21   -1    0    0  501  502  0.00000000000E+00  0.00000000000E+00  0.66720837440E+01  0.66720837440E+01  0.00000000000E+00 0. -1.
         13   -1    0    0    0    0 -0.00000000000E+00 -0.00000000000E+00 -0.10000000000E+04  0.10000000000E+04  0.00000000000E+00 0.  1.
    9000005    2    1    2  501    0  0.16499363464E+02 -0.75874384951E+02 -0.65250704801E+03  0.65711806000E+03  0.30896251597E+01 0.  0.
         13    1    3    3    0    0 -0.47458956469E-01 -0.21524516997E+01 -0.18103273988E+02  0.18230848301E+02  0.00000000000E+00 0.  1.
          1    1    3    3  501    0  0.16546822420E+02 -0.73721933252E+02 -0.63440377402E+03  0.63888721170E+03  0.00000000000E+00 0.  1.
         -3    1    1    2    0  502 -0.16499363464E+02  0.75874384951E+02 -0.34082086825E+03  0.34955402375E+03  0.00000000000E+00 0. -1.
<mgrwt>
<rscale>  1 0.30000000E+03</rscale>
<asrwt>0</asrwt>
<pdfrwt beam="1">  1       21 0.24262174E-01 0.30000000E+03</pdfrwt>
<pdfrwt beam="2">0</pdfrwt>
<totfact> 0.16535567E+03</totfact>
</mgrwt>
</event>
<event>
 6    1  0.1274196E-001  0.3000000E+03  0.7818608E-02  0.1093470E+00
         21   -1    0    0  501  502  0.00000000000E+00  0.00000000000E+00  0.18069774369E+01  0.18069774369E+01  0.00000000000E+00 0. -1.
         13   -1    0    0    0    0 -0.00000000000E+00 -0.00000000000E+00 -0.10000000000E+04  0.10000000000E+04  0.00000000000E+00 0.  1.
    9000005    2    1    2  501    0 -0.16254724665E+01  0.35042019661E+02 -0.21845608615E+03  0.22128133705E+03  0.34326732496E+01 0.  0.
         13    1    3    3    0    0 -0.23331092338E+01  0.18394974748E+02 -0.12049246266E+03  0.12191083648E+03  0.00000000000E+00 0.  1.
          3    1    3    3  501    0  0.70763676727E+00  0.16647044913E+02 -0.97963623495E+02  0.99370500565E+02  0.00000000000E+00 0.  1.
         -1    1    1    2    0  502  0.16254724665E+01 -0.35042019661E+02 -0.77973693641E+03  0.78052564039E+03  0.00000000000E+00 0. -1.
<mgrwt>
<rscale>  1 0.30000000E+03</rscale>
<asrwt>0</asrwt>
<pdfrwt beam="1">  1       21 0.65708409E-02 0.30000000E+03</pdfrwt>
<pdfrwt beam="2">0</pdfrwt>
<totfact> 0.18008759E+04</totfact>
</mgrwt>
</event>
<event>
 6    1  0.1274196E-001  0.3000000E+03  0.7818608E-02  0.1093470E+00
         21   -1    0    0  501  502  0.00000000000E+00  0.00000000000E+00  0.23322758369E+01  0.23322758369E+01  0.00000000000E+00 0. -1.
         13   -1    0    0    0    0 -0.00000000000E+00 -0.00000000000E+00 -0.10000000000E+04  0.10000000000E+04  0.00000000000E+00 0.  1.
    9000005    2    1    2  501    0  0.23233355197E+02  0.21760027887E+02 -0.87539419469E+03  0.87598314202E+03  0.42639644561E+01 0.  0.
         13    1    3    3    0    0  0.57222346558E+01  0.79818906701E+01 -0.27970267039E+03  0.27987504064E+03  0.00000000000E+00 0.  1.
          1    1    3    3  501    0  0.17511120541E+02  0.13778137217E+02 -0.59569152429E+03  0.59610810137E+03  0.00000000000E+00 0.  1.
         -3    1    1    2    0  502 -0.23233355197E+02 -0.21760027887E+02 -0.12227352947E+03  0.12634913382E+03  0.00000000000E+00 0. -1.
<mgrwt>
<rscale>  1 0.30000000E+03</rscale>
<asrwt>0</asrwt>
<pdfrwt beam="1">  1       21 0.84810209E-02 0.30000000E+03</pdfrwt>
<pdfrwt beam="2">0</pdfrwt>
<totfact> 0.11526603E+04</totfact>
</mgrwt>
</event>
<event>
 6    1  0.1274196E-001  0.3000000E+03  0.7818608E-02  0.1093470E+00
         21   -1    0    0  501  502  0.00000000000E+00  0.00000000000E+00  0.14164965193E+01  0.14164965193E+01  0.00000000000E+00 0. -1.
         13   -1    0    0    0    0 -0.00000000000E+00 -0.00000000000E+00 -0.10000000000E+04  0.10000000000E+04  0.00000000000E+00 0.  1.
    9000005    2    1    2  501    0  0.47871199729E+01 -0.37255147574E+02 -0.50087266133E+03  0.50229031515E+03  0.33578687761E+01 0.  0.
         13    1    3    3    0    0  0.47301203212E+00 -0.46669590233E+01 -0.78782918081E+02  0.78922445655E+02  0.00000000000E+00 0.  1.
          1    1    3    3  501    0  0.43141079408E+01 -0.32588188551E+02 -0.42208974325E+03  0.42336786949E+03  0.00000000000E+00 0.  1.
         -1    1    1    2    0  502 -0.47871199729E+01  0.37255147574E+02 -0.49771084215E+03  0.49912618137E+03  0.00000000000E+00 0. -1.
<mgrwt>
<rscale>  1 0.30000000E+03</rscale>
<asrwt>0</asrwt>
<pdfrwt beam="1">  1       21 0.51509073E-02 0.30000000E+03</pdfrwt>
<pdfrwt beam="2">0</pdfrwt>
<totfact> 0.27379874E+04</totfact>
</mgrwt>
</event>
<event>
 6    1  0.1274196E-001  0.3000000E+03  0.7818608E-02  0.1093470E+00
         21   -1    0    0  501  502  0.00000000000E+00  0.00000000000E+00  0.20633251171E+01  0.20633251171E+01  0.00000000000E+00 0. -1.
         13   -1    0    0    0    0 -0.00000000000E+00 -0.00000000000E+00 -0.10000000000E+04  0.10000000000E+04  0.00000000000E+00 0.  1.
    9000005    2    1    2  501    0 -0.15819099376E+01  0.36970506673E+02 -0.78891642251E+03  0.78979277439E+03  0.37661617921E+01 0.  0.
         13    1    3    3    0    0 -0.24378550927E+00  0.26213545644E+02 -0.52561650358E+03  0.52626981506E+03  0.00000000000E+00 0.  1.
          1    1    3    3  501    0 -0.13381244283E+01  0.10756961029E+02 -0.26329991893E+03  0.26352295933E+03  0.00000000000E+00 0.  1.
         -1    1    1    2    0  502  0.15819099376E+01 -0.36970506673E+02 -0.20902025238E+03  0.21227055073E+03  0.00000000000E+00 0. -1.
<mgrwt>
<rscale>  1 0.30000000E+03</rscale>
<asrwt>0</asrwt>
<pdfrwt beam="1">  1       21 0.75030162E-02 0.30000000E+03</pdfrwt>
<pdfrwt beam="2">0</pdfrwt>
<totfact> 0.14294396E+04</totfact>
</mgrwt>
</event>
<event>
 6    1  0.1274196E-001  0.3000000E+03  0.7818608E-02  0.1093470E+00
         21   -1    0    0  501  502  0.00000000000E+00  0.00000000000E+00  0.14239555938E+01  0.14239555938E+01  0.00000000000E+00 0. -1.
         13   -1    0    0    0    0 -0.00000000000E+00 -0.00000000000E+00 -0.10000000000E+04  0.10000000000E+04  0.00000000000E+00 0.  1.
    9000005    2    1    2  501    0 -0.14336891313E+02 -0.28599637257E+02 -0.76248274289E+03  0.76317296877E+03  0.54370346464E+01 0.  0.
         13    1    3    3    0    0 -0.89172323019E+01 -0.22539191467E+02 -0.54658090231E+03  0.54711809964E+03  0.00000000000E+00 0.  1.
          3    1    3    3  501    0 -0.54196590108E+01 -0.60604457901E+01 -0.21590184059E+03  0.21605486913E+03  0.00000000000E+00 0.  1.
         -1    1    1    2    0  502  0.14336891313E+02  0.28599637257E+02 -0.23609330151E+03  0.23825098682E+03  0.00000000000E+00 0. -1.
<mgrwt>
<rscale>  1 0.30000000E+03</rscale>
<asrwt>0</asrwt>
<pdfrwt beam="1">  1       21 0.51780313E-02 0.30000000E+03</pdfrwt>
<pdfrwt beam="2">0</pdfrwt>
<totfact> 0.27135410E+04</totfact>
</mgrwt>
</event>
<event>
 6    1  0.1274196E-001  0.3000000E+03  0.7818608E-02  0.1093470E+00
         21   -1    0    0  501  502  0.00000000000E+00  0.00000000000E+00  0.29144873632E+01  0.29144873632E+01  0.00000000000E+00 0. -1.
         13   -1    0    0    0    0 -0.00000000000E+00 -0.00000000000E+00 -0.10000000000E+04  0.10000000000E+04  0.00000000000E+00 0.  1.
    9000005    2    1    2  501    0 -0.25422800128E+02 -0.19156194472E+02 -0.90344201783E+03  0.90400855896E+03  0.32736134997E+01 0.  0.
         13    1    3    3    0    0 -0.39553997319E+01 -0.18138113502E+01 -0.10652993390E+03  0.10661876906E+03  0.00000000000E+00 0.  1.
          1    1    3    3  501    0 -0.21467400396E+02 -0.17342383122E+02 -0.79691208392E+03  0.79738978990E+03  0.00000000000E+00 0.  1.
         -3    1    1    2    0  502  0.25422800128E+02  0.19156194472E+02 -0.93643494811E+02  0.98905928404E+02  0.00000000000E+00 0. -1.
<mgrwt>
<rscale>  1 0.30000000E+03</rscale>
<asrwt>0</asrwt>
<pdfrwt beam="1">  1       21 0.10598158E-01 0.30000000E+03</pdfrwt>
<pdfrwt beam="2">0</pdfrwt>
<totfact> 0.77534146E+03</totfact>
</mgrwt>
</event>
<event>
 6    1  0.1274196E-001  0.3000000E+03  0.7818608E-02  0.1093470E+00
         21   -1    0    0  501  502  0.00000000000E+00  0.00000000000E+00  0.13134408152E+01  0.13134408152E+01  0.00000000000E+00 0. -1.
         13   -1    0    0    0    0 -0.00000000000E+00 -0.00000000000E+00 -0.10000000000E+04  0.10000000000E+04  0.00000000000E+00 0.  1.
    9000005    2    1    2  501    0  0.83103550432E+01  0.34797454816E+02 -0.57385876105E+03  0.57498189973E+03  0.32221905034E+01 0.  0.
         13    1    3    3    0    0  0.64889503953E+01  0.23717552855E+02 -0.37314698240E+03  0.37395627988E+03  0.00000000000E+00 0.  1.
          1    1    3    3  501    0  0.18214046479E+01  0.11079901962E+02 -0.20071177866E+03  0.20102561984E+03  0.00000000000E+00 0.  1.
         -3    1    1    2    0  502 -0.83103550432E+01 -0.34797454816E+02 -0.42482779813E+03  0.42633154109E+03  0.00000000000E+00 0. -1.
<mgrwt>
<rscale>  1 0.30000000E+03</rscale>
<asrwt>0</asrwt>
<pdfrwt beam="1">  1       21 0.47761585E-02 0.30000000E+03</pdfrwt>
<pdfrwt beam="2">0</pdfrwt>
<totfact> 0.31141258E+04</totfact>
</mgrwt>
</event>
<event>
 6    1  0.1274196E-001  0.3000000E+03  0.7818608E-02  0.1093470E+00
         21   -1    0    0  501  502  0.00000000000E+00  0.00000000000E+00  0.11491672366E+01  0.11491672366E+01  0.00000000000E+00 0. -1.
         13   -1    0    0    0    0 -0.00000000000E+00 -0.00000000000E+00 -0.10000000000E+04  0.10000000000E+04  0.00000000000E+00 0.  1.
    9000005    2    1    2  501    0 -0.27136369938E+02 -0.17537398285E+02 -0.64787011284E+03  0.64868440493E+03  0.34396470817E+01 0.  0.
         13    1    3    3    0    0 -0.15684638917E+02 -0.98190693178E+01 -0.33692751243E+03  0.33743528365E+03  0.00000000000E+00 0.  1.
          3    1    3    3  501    0 -0.11451731021E+02 -0.77183289674E+01 -0.31094260041E+03  0.31124912128E+03  0.00000000000E+00 0.  1.
         -1    1    1    2    0  502  0.27136369938E+02  0.17537398285E+02 -0.35098071992E+03  0.35246476231E+03  0.00000000000E+00 0. -1.
<mgrwt>
<rscale>  1 0.30000000E+03</rscale>
<asrwt>0</asrwt>
<pdfrwt beam="1">  1       21 0.41787988E-02 0.30000000E+03</pdfrwt>
<pdfrwt beam="2">0</pdfrwt>
<totfact> 0.39058768E+04</totfact>
</mgrwt>
</event>
<event>
 6    1  0.1274196E-001  0.3000000E+03  0.7818608E-02  0.1093470E+00
         21   -1    0    0  501  502  0.00000000000E+00  0.00000000000E+00  0.17658384581E+01  0.17658384581E+01  0.00000000000E+00 0. -1.
         13   -1    0    0    0    0 -0.00000000000E+00 -0.00000000000E+00 -0.10000000000E+04  0.10000000000E+04  0.00000000000E+00 0.  1.
    9000005    2    1    2  501    0  0.82265420387E+01  0.36657013572E+02 -0.27732839443E+03  0.27988181890E+03  0.33736561416E+01 0.  0.
         13    1    3    3    0    0  0.23283618194E+01  0.14519120550E+02 -0.98390975870E+02  0.99483718582E+02  0.00000000000E+00 0.  1.
          3    1    3    3  501    0  0.58981802193E+01  0.22137893022E+02 -0.17893741856E+03  0.18039810032E+03  0.00000000000E+00 0.  1.
         -3    1    1    2    0  502 -0.82265420387E+01 -0.36657013572E+02 -0.72090576711E+03  0.72188401956E+03  0.00000000000E+00 0. -1.
<mgrwt>
<rscale>  1 0.30000000E+03</rscale>
<asrwt>0</asrwt>
<pdfrwt beam="1">  1       21 0.64212443E-02 0.30000000E+03</pdfrwt>
<pdfrwt beam="2">0</pdfrwt>
<totfact> 0.18741321E+04</totfact>
</mgrwt>
</event>
<event>
 6    1  0.1274196E-001  0.3000000E+03  0.7818608E-02  0.1093470E+00
         21   -1    0    0  501  502  0.00000000000E+00  0.00000000000E+00  0.32965456540E+01  0.32965456540E+01  0.00000000000E+00 0. -1.
         13   -1    0    0    0    0 -0.00000000000E+00 -0.00000000000E+00 -0.10000000000E+04  0.10000000000E+04  0.00000000000E+00 0.  1.
    9000005    2    1    2  501    0  0.23045909544E+02  0.36899574501E+02 -0.82541874248E+03  0.82657318821E+03  0.38003283551E+01 0.  0.
         13    1    3    3    0    0  0.22848802649E+02  0.35344932641E+02 -0.79126589980E+03  0.79238441190E+03  0.00000000000E+00 0.  1.
          3    1    3    3  501    0  0.19710689503E+00  0.15546418608E+01 -0.34152842681E+02  0.34188776311E+02  0.00000000000E+00 0.  1.
         -1    1    1    2    0  502 -0.23045909544E+02 -0.36899574501E+02 -0.17128471187E+03  0.17672335744E+03  0.00000000000E+00 0. -1.
<mgrwt>
<rscale>  1 0.30000000E+03</rscale>
<asrwt>0</asrwt>
<pdfrwt beam="1">  1       21 0.11987464E-01 0.30000000E+03</pdfrwt>
<pdfrwt beam="2">0</pdfrwt>
<totfact> 0.62088861E+03</totfact>
</mgrwt>
</event>
<event>
 6    1  0.1274196E-001  0.3000000E+03  0.7818608E-02  0.1093470E+00
         21   -1    0    0  501  502  0.00000000000E+00  0.00000000000E+00  0.16821897648E+01  0.16821897648E+01  0.00000000000E+00 0. -1.
         13   -1    0    0    0    0 -0.00000000000E+00 -0.00000000000E+00 -0.10000000000E+04  0.10000000000E+04  0.00000000000E+00 0.  1.
    9000005    2    1    2  501    0 -0.24063963606E+02  0.19194263935E+02 -0.82926190022E+03  0.82984681848E+03  0.47904987151E+01 0.  0.
         13    1    3    3    0    0 -0.22947956046E+02  0.17628133046E+02 -0.74260996967E+03  0.74317355094E+03  0.00000000000E+00 0.  1.
          3    1    3    3  501    0 -0.11160075593E+01  0.15661308887E+01 -0.86651930548E+02  0.86673267543E+02  0.00000000000E+00 0.  1.
         -1    1    1    2    0  502  0.24063963606E+02 -0.19194263935E+02 -0.16905591002E+03  0.17183537128E+03  0.00000000000E+00 0. -1.
<mgrwt>
<rscale>  1 0.30000000E+03</rscale>
<asrwt>0</asrwt>
<pdfrwt beam="1">  1       21 0.61170666E-02 0.30000000E+03</pdfrwt>
<pdfrwt beam="2">0</pdfrwt>
<totfact> 0.20380743E+04</totfact>
</mgrwt>
</event>
<event>
 6    1  0.1274196E-001  0.3000000E+03  0.7818608E-02  0.1093470E+00
         21   -1    0    0  501  502  0.00000000000E+00  0.00000000000E+00  0.10050105543E+01  0.10050105543E+01  0.00000000000E+00 0. -1.
         13   -1    0    0    0    0 -0.00000000000E+00 -0.00000000000E+00 -0.10000000000E+04  0.10000000000E+04  0.00000000000E+00 0.  1.
    9000005    2    1    2  501    0 -0.67388581303E+01  0.29540090619E+02 -0.64372205599E+03  0.64444241239E+03  0.31477544059E+01 0.  0.
         13    1    3    3    0    0 -0.29532031357E+01  0.18034079025E+02 -0.40893324104E+03  0.40934135516E+03  0.00000000000E+00 0.  1.
          1    1    3    3  501    0 -0.37856549945E+01  0.11506011594E+02 -0.23478881495E+03  0.23510105723E+03  0.00000000000E+00 0.  1.
         -1    1    1    2    0  502  0.67388581303E+01 -0.29540090619E+02 -0.35527293345E+03  0.35656259816E+03  0.00000000000E+00 0. -1.
<mgrwt>
<rscale>  1 0.30000000E+03</rscale>
<asrwt>0</asrwt>
<pdfrwt beam="1">  1       21 0.36545915E-02 0.30000000E+03</pdfrwt>
<pdfrwt beam="2">0</pdfrwt>
<totfact> 0.48939121E+04</totfact>
</mgrwt>
</event>
<event>
 6    1  0.1274196E-001  0.3000000E+03  0.7818608E-02  0.1093470E+00
         21   -1    0    0  501  502  0.00000000000E+00  0.00000000000E+00  0.11146607924E+01  0.11146607924E+01  0.00000000000E+00 0. -1.
         13   -1    0    0    0    0 -0.00000000000E+00 -0.00000000000E+00 -0.10000000000E+04  0.10000000000E+04  0.00000000000E+00 0.  1.
    9000005    2    1    2  501    0 -0.31474336223E+02 -0.25472561984E+01 -0.65710882214E+03  0.65788250907E+03  0.45021389990E+01 0.  0.
         13    1    3    3    0    0 -0.10495138578E+02  0.11875373757E+01 -0.23030500077E+03  0.23054707016E+03  0.00000000000E+00 0.  1.
          1    1    3    3  501    0 -0.20979197645E+02 -0.37347935742E+01 -0.42680382137E+03  0.42733543891E+03  0.00000000000E+00 0.  1.
         -1    1    1    2    0  502  0.31474336223E+02  0.25472561984E+01 -0.34177651707E+03  0.34323215172E+03  0.00000000000E+00 0. -1.
<mgrwt>
<rscale>  1 0.30000000E+03</rscale>
<asrwt>0</asrwt>
<pdfrwt beam="1">  1       21 0.40533205E-02 0.30000000E+03</pdfrwt>
<pdfrwt beam="2">0</pdfrwt>
<totfact> 0.41119731E+04</totfact>
</mgrwt>
</event>
<event>
 6    1  0.1274196E-001  0.3000000E+03  0.7818608E-02  0.1093470E+00
         21   -1    0    0  501  502  0.00000000000E+00  0.00000000000E+00  0.14770191318E+01  0.14770191318E+01  0.00000000000E+00 0. -1.
         13   -1    0    0    0    0 -0.00000000000E+00 -0.00000000000E+00 -0.10000000000E+04  0.10000000000E+04  0.00000000000E+00 0.  1.
    9000005    2    1    2  501    0 -0.15216914686E+02 -0.34352140443E+02 -0.39823711530E+03  0.40001650967E+03  0.29637741988E+01 0.  0.
         13    1    3    3    0    0 -0.12417650188E+02 -0.28736106032E+02 -0.31961191066E+03  0.32114130109E+03  0.00000000000E+00 0.  1.
          3    1    3    3  501    0 -0.27992644988E+01 -0.56160344110E+01 -0.78625204639E+02  0.78875208581E+02  0.00000000000E+00 0.  1.
         -1    1    1    2    0  502  0.15216914686E+02  0.34352140443E+02 -0.60028586557E+03  0.60146050946E+03  0.00000000000E+00 0. -1.
<mgrwt>
<rscale>  1 0.30000000E+03</rscale>
<asrwt>0</asrwt>
<pdfrwt beam="1">  1       21 0.53709900E-02 0.30000000E+03</pdfrwt>
<pdfrwt beam="2">0</pdfrwt>
<totfact> 0.25489896E+04</totfact>
</mgrwt>
</event>
<event>
 6    1  0.1274196E-001  0.3000000E+03  0.7818608E-02  0.1093470E+00
         21   -1    0    0  501  502  0.00000000000E+00  0.00000000000E+00  0.11523132787E+01  0.11523132787E+01  0.00000000000E+00 0. -1.
         13   -1    0    0    0    0 -0.00000000000E+00 -0.00000000000E+00 -0.10000000000E+04  0.10000000000E+04  0.00000000000E+00 0.  1.
    9000005    2    1    2  501    0  0.17343748215E+02  0.26637718362E+02 -0.36350570457E+03  0.36501568651E+03  0.94699787063E+01 0.  0.
         13    1    3    3    0    0  0.54884427816E+01  0.13857452699E+02 -0.20870617897E+03  0.20923771443E+03  0.00000000000E+00 0.  1.
          1    1    3    3  501    0  0.11855305433E+02  0.12780265663E+02 -0.15479952560E+03  0.15577797208E+03  0.00000000000E+00 0.  1.
         -3    1    1    2    0  502 -0.17343748215E+02 -0.26637718362E+02 -0.63534198215E+03  0.63613662677E+03  0.00000000000E+00 0. -1.
<mgrwt>
<rscale>  1 0.30000000E+03</rscale>
<asrwt>0</asrwt>
<pdfrwt beam="1">  1       21 0.41902389E-02 0.30000000E+03</pdfrwt>
<pdfrwt beam="2">0</pdfrwt>
<totfact> 0.38878905E+04</totfact>
</mgrwt>
</event>
<event>
 6    1  0.1274196E-001  0.3000000E+03  0.7818608E-02  0.1093470E+00
         21   -1    0    0  501  502  0.00000000000E+00  0.00000000000E+00  0.12519908932E+01  0.12519908932E+01  0.00000000000E+00 0. -1.
         13   -1    0    0    0    0 -0.00000000000E+00 -0.00000000000E+00 -0.10000000000E+04  0.10000000000E+04  0.00000000000E+00 0.  1.
    9000005    2    1    2  501    0 -0.32537188008E+02 -0.10885266024E+02 -0.61528153404E+03  0.61625368555E+03  0.44812050551E+01 0.  0.
         13    1    3    3    0    0 -0.10206288850E+02 -0.55643197385E+01 -0.19692646098E+03  0.19726926020E+03  0.00000000000E+00 0.  1.
          3    1    3    3  501    0 -0.22330899158E+02 -0.53209462857E+01 -0.41835507306E+03  0.41898442535E+03  0.00000000000E+00 0.  1.
         -1    1    1    2    0  502  0.32537188008E+02  0.10885266024E+02 -0.38346647506E+03  0.38499830534E+03  0.00000000000E+00 0. -1.
<mgrwt>
<rscale>  1 0.30000000E+03</rscale>
<asrwt>0</asrwt>
<pdfrwt beam="1">  1       21 0.45527038E-02 0.30000000E+03</pdfrwt>
<pdfrwt beam="2">0</pdfrwt>
<totfact> 0.33783713E+04</totfact>
</mgrwt>
</event>
<event>
 6    1  0.1274196E-001  0.3000000E+03  0.7818608E-02  0.1093470E+00
         21   -1    0    0  501  502  0.00000000000E+00  0.00000000000E+00  0.18924737579E+01  0.18924737579E+01  0.00000000000E+00 0. -1.
         13   -1    0    0    0    0 -0.00000000000E+00 -0.00000000000E+00 -0.10000000000E+04  0.10000000000E+04  0.00000000000E+00 0.  1.
    9000005    2    1    2  501    0  0.30276965241E+02 -0.28958975724E+02 -0.63192969253E+03  0.63332562392E+03  0.33004106118E+01 0.  0.
         13    1    3    3    0    0  0.28146167702E+02 -0.26395195956E+02 -0.56808690112E+03  0.56939585558E+03  0.00000000000E+00 0.  1.
          3    1    3    3  501    0  0.21307975389E+01 -0.25637797675E+01 -0.63842791413E+02  0.63929768342E+02  0.00000000000E+00 0.  1.
         -1    1    1    2    0  502 -0.30276965241E+02  0.28958975724E+02 -0.36617783371E+03  0.36856684984E+03  0.00000000000E+00 0. -1.
<mgrwt>
<rscale>  1 0.30000000E+03</rscale>
<asrwt>0</asrwt>
<pdfrwt beam="1">  1       21 0.68817373E-02 0.30000000E+03</pdfrwt>
<pdfrwt beam="2">0</pdfrwt>
<totfact> 0.16620588E+04</totfact>
</mgrwt>
</event>
<event>
 6    1  0.1274196E-001  0.3000000E+03  0.7818608E-02  0.1093470E+00
         21   -1    0    0  501  502  0.00000000000E+00  0.00000000000E+00  0.10002264661E+01  0.10002264661E+01  0.00000000000E+00 0. -1.
         13   -1    0    0    0    0 -0.00000000000E+00 -0.00000000000E+00 -0.10000000000E+04  0.10000000000E+04  0.00000000000E+00 0.  1.
    9000005    2    1    2  501    0  0.29028134544E+02  0.12004520830E+02 -0.46034092714E+03  0.46142623347E+03  0.36957573148E+01 0.  0.
         13    1    3    3    0    0  0.12663224207E+02  0.53625774920E+01 -0.17521665817E+03  0.17575548863E+03  0.00000000000E+00 0.  1.
          3    1    3    3  501    0  0.16364910337E+02  0.66419433382E+01 -0.28512426897E+03  0.28567074484E+03  0.00000000000E+00 0.  1.
         -3    1    1    2    0  502 -0.29028134544E+02 -0.12004520830E+02 -0.53865884639E+03  0.53957399299E+03  0.00000000000E+00 0. -1.
<mgrwt>
<rscale>  1 0.30000000E+03</rscale>
<asrwt>0</asrwt>
<pdfrwt beam="1">  1       21 0.36371948E-02 0.30000000E+03</pdfrwt>
<pdfrwt beam="2">0</pdfrwt>
<totfact> 0.49332449E+04</totfact>
</mgrwt>
</event>
<event>
 6    1  0.1274196E-001  0.3000000E+03  0.7818608E-02  0.1093470E+00
         21   -1    0    0  501  502  0.00000000000E+00  0.00000000000E+00  0.17904030417E+01  0.17904030417E+01  0.00000000000E+00 0. -1.
         13   -1    0    0    0    0 -0.00000000000E+00 -0.00000000000E+00 -0.10000000000E+04  0.10000000000E+04  0.00000000000E+00 0.  1.
    9000005    2    1    2  501    0 -0.11507910881E+02  0.40333352105E+02 -0.44014991746E+03  0.44215675753E+03  0.33818761464E+01 0.  0.
         13    1    3    3    0    0 -0.87068941930E+01  0.25967574351E+02 -0.27597671691E+03  0.27733242364E+03  0.00000000000E+00 0.  1.
          1    1    3    3  501    0 -0.28010166877E+01  0.14365777754E+02 -0.16417320054E+03  0.16482433389E+03  0.00000000000E+00 0.  1.
         -1    1    1    2    0  502  0.11507910881E+02 -0.40333352105E+02 -0.55805967950E+03  0.55963364551E+03  0.00000000000E+00 0. -1.
<mgrwt>
<rscale>  1 0.30000000E+03</rscale>
<asrwt>0</asrwt>
<pdfrwt beam="1">  1       21 0.65105702E-02 0.30000000E+03</pdfrwt>
<pdfrwt beam="2">0</pdfrwt>
<totfact> 0.18298491E+04</totfact>
</mgrwt>
</event>
<event>
 6    1  0.1274196E-001  0.3000000E+03  0.7818608E-02  0.1093470E+00
         21   -1    0    0  501  502  0.00000000000E+00  0.00000000000E+00  0.21126045698E+01  0.21126045698E+01  0.00000000000E+00 0. -1.
         13   -1    0    0    0    0 -0.00000000000E+00 -0.00000000000E+00 -0.10000000000E+04  0.10000000000E+04  0.00000000000E+00 0.  1.
    9000005    2    1    2  501    0 -0.30799239948E+02  0.53709007007E+01 -0.86599409731E+03  0.86656452511E+03  0.32954287459E+01 0.  0.
         13    1    3    3    0    0 -0.19667941382E+01 -0.45673692363E+00 -0.52950354049E+02  0.52988837331E+02  0.00000000000E+00 0.  1.
          1    1    3    3  501    0 -0.28832445810E+02  0.58276376243E+01 -0.81304374326E+03  0.81357568778E+03  0.00000000000E+00 0.  1.
         -3    1    1    2    0  502  0.30799239948E+02 -0.53709007007E+01 -0.13189329812E+03  0.13554807946E+03  0.00000000000E+00 0. -1.
<mgrwt>
<rscale>  1 0.30000000E+03</rscale>
<asrwt>0</asrwt>
<pdfrwt beam="1">  1       21 0.76822146E-02 0.30000000E+03</pdfrwt>
<pdfrwt beam="2">0</pdfrwt>
<totfact> 0.13715410E+04</totfact>
</mgrwt>
</event>
<event>
 6    1  0.1274196E-001  0.3000000E+03  0.7818608E-02  0.1093470E+00
         21   -1    0    0  501  502  0.00000000000E+00  0.00000000000E+00  0.26412948385E+02  0.26412948385E+02  0.00000000000E+00 0. -1.
         13   -1    0    0    0    0 -0.00000000000E+00 -0.00000000000E+00 -0.10000000000E+04  0.10000000000E+04  0.00000000000E+00 0.  1.
    9000005    2    1    2  501    0  0.28850013122E+02  0.11986985668E+03 -0.82089109473E+03  0.83015505416E+03  0.97014809955E+01 0.  0.
         13    1    3    3    0    0  0.26827337301E+02  0.10994847652E+03 -0.76924834385E+03  0.77752902713E+03  0.00000000000E+00 0.  1.
          1    1    3    3  501    0  0.20226758206E+01  0.99213801675E+01 -0.51642750884E+02  0.52626027028E+02  0.00000000000E+00 0.  1.
         -1    1    1    2    0  502 -0.28850013122E+02 -0.11986985668E+03 -0.15269595688E+03  0.19625789423E+03  0.00000000000E+00 0. -1.
<mgrwt>
<rscale>  1 0.30000000E+03</rscale>
<asrwt>0</asrwt>
<pdfrwt beam="1">  1       21 0.96047288E-01 0.30000000E+03</pdfrwt>
<pdfrwt beam="2">0</pdfrwt>
<totfact> 0.81683365E+01</totfact>
</mgrwt>
</event>
<event>
 6    1  0.1274196E-001  0.3000000E+03  0.7818608E-02  0.1093470E+00
         21   -1    0    0  501  502  0.00000000000E+00  0.00000000000E+00  0.31569214590E+01  0.31569214590E+01  0.00000000000E+00 0. -1.
         13   -1    0    0    0    0 -0.00000000000E+00 -0.00000000000E+00 -0.10000000000E+04  0.10000000000E+04  0.00000000000E+00 0.  1.
    9000005    2    1    2  501    0  0.44763651498E+02 -0.42269620587E+01 -0.79898674883E+03  0.80025601236E+03  0.28651038602E+01 0.  0.
         13    1    3    3    0    0  0.15064908741E+02 -0.42731970554E+00 -0.28410741908E+03  0.28450687101E+03  0.00000000000E+00 0.  1.
          1    1    3    3  501    0  0.29698742757E+02 -0.37996423531E+01 -0.51487932975E+03  0.51574914135E+03  0.00000000000E+00 0.  1.
         -3    1    1    2    0  502 -0.44763651498E+02  0.42269620587E+01 -0.19785632972E+03  0.20290090910E+03  0.00000000000E+00 0. -1.
<mgrwt>
<rscale>  1 0.30000000E+03</rscale>
<asrwt>0</asrwt>
<pdfrwt beam="1">  1       21 0.11479739E-01 0.30000000E+03</pdfrwt>
<pdfrwt beam="2">0</pdfrwt>
<totfact> 0.67149097E+03</totfact>
</mgrwt>
</event>
<event>
 6    1  0.1274196E-001  0.3000000E+03  0.7818608E-02  0.1093470E+00
         21   -1    0    0  501  502  0.00000000000E+00  0.00000000000E+00  0.63769606799E+01  0.63769606799E+01  0.00000000000E+00 0. -1.
         13   -1    0    0    0    0 -0.00000000000E+00 -0.00000000000E+00 -0.10000000000E+04  0.10000000000E+04  0.00000000000E+00 0.  1.
    9000005    2    1    2  501    0  0.47429417676E+02  0.34417346641E+02 -0.83842851171E+03  0.84048710321E+03  0.47008515351E+01 0.  0.
         13    1    3    3    0    0  0.10259796076E+02  0.66943330979E+01 -0.15067439800E+03  0.15117159695E+03  0.00000000000E+00 0.  1.
          3    1    3    3  501    0  0.37169621600E+02  0.27723013543E+02 -0.68775411371E+03  0.68931550627E+03  0.00000000000E+00 0.  1.
         -1    1    1    2    0  502 -0.47429417676E+02 -0.34417346641E+02 -0.15519452761E+03  0.16588985747E+03  0.00000000000E+00 0. -1.
<mgrwt>
<rscale>  1 0.30000000E+03</rscale>
<asrwt>0</asrwt>
<pdfrwt beam="1">  1       21 0.23188997E-01 0.30000000E+03</pdfrwt>
<pdfrwt beam="2">0</pdfrwt>
<totfact> 0.18054473E+03</totfact>
</mgrwt>
</event>
<event>
 6    1  0.1274196E-001  0.3000000E+03  0.7818608E-02  0.1093470E+00
         21   -1    0    0  501  502  0.00000000000E+00  0.00000000000E+00  0.44444771090E+01  0.44444771090E+01  0.00000000000E+00 0. -1.
         13   -1    0    0    0    0 -0.00000000000E+00 -0.00000000000E+00 -0.10000000000E+04  0.10000000000E+04  0.00000000000E+00 0.  1.
    9000005    2    1    2  501    0  0.63969117783E+02 -0.14242447900E+02 -0.58839052663E+03  0.59203905822E+03  0.34553253088E+01 0.  0.
         13    1    3    3    0    0  0.44984657840E+02 -0.11307905869E+02 -0.42442150849E+03  0.42694859766E+03  0.00000000000E+00 0.  1.
          1    1    3    3  501    0  0.18984459943E+02 -0.29345420310E+01 -0.16396901814E+03  0.16509046056E+03  0.00000000000E+00 0.  1.
         -1    1    1    2    0  502 -0.63969117783E+02  0.14242447900E+02 -0.40716499626E+03  0.41240541889E+03  0.00000000000E+00 0. -1.
<mgrwt>
<rscale>  1 0.30000000E+03</rscale>
<asrwt>0</asrwt>
<pdfrwt beam="1">  1       21 0.16161769E-01 0.30000000E+03</pdfrwt>
<pdfrwt beam="2">0</pdfrwt>
<totfact> 0.35847885E+03</totfact>
</mgrwt>
</event>
<event>
 6    1  0.1274196E-001  0.3000000E+03  0.7818608E-02  0.1093470E+00
         21   -1    0    0  501  502  0.00000000000E+00  0.00000000000E+00  0.47646960369E+01  0.47646960369E+01  0.00000000000E+00 0. -1.
         13   -1    0    0    0    0 -0.00000000000E+00 -0.00000000000E+00 -0.10000000000E+04  0.10000000000E+04  0.00000000000E+00 0.  1.
    9000005    2    1    2  501    0  0.27552233745E+02  0.60978759190E+02 -0.37704402386E+03  0.38296248194E+03  0.45312239516E+01 0.  0.
         13    1    3    3    0    0  0.97681391681E+01  0.26819144173E+02 -0.16426823809E+03  0.16672953273E+03  0.00000000000E+00 0.  1.
          1    1    3    3  501    0  0.17784094577E+02  0.34159615017E+02 -0.21277578576E+03  0.21623294921E+03  0.00000000000E+00 0.  1.
         -3    1    1    2    0  502 -0.27552233745E+02 -0.60978759190E+02 -0.61819128011E+03  0.62180221410E+03  0.00000000000E+00 0. -1.
<mgrwt>
<rscale>  1 0.30000000E+03</rscale>
<asrwt>0</asrwt>
<pdfrwt beam="1">  1       21 0.17326204E-01 0.30000000E+03</pdfrwt>
<pdfrwt beam="2">0</pdfrwt>
<totfact> 0.31473614E+03</totfact>
</mgrwt>
</event>
<event>
 6    1  0.1274196E-001  0.3000000E+03  0.7818608E-02  0.1093470E+00
         21   -1    0    0  501  502  0.00000000000E+00  0.00000000000E+00  0.19627403413E+01  0.19627403413E+01  0.00000000000E+00 0. -1.
         13   -1    0    0    0    0 -0.00000000000E+00 -0.00000000000E+00 -0.10000000000E+04  0.10000000000E+04  0.00000000000E+00 0.  1.
    9000005    2    1    2  501    0  0.21809018124E+02  0.38153930284E+02 -0.44533220892E+03  0.44751325772E+03  0.39979826767E+01 0.  0.
         13    1    3    3    0    0  0.51477793350E+01  0.11821709184E+02 -0.14245573878E+03  0.14303807168E+03  0.00000000000E+00 0.  1.
          1    1    3    3  501    0  0.16661238789E+02  0.26332221100E+02 -0.30287647014E+03  0.30447518604E+03  0.00000000000E+00 0.  1.
         -3    1    1    2    0  502 -0.21809018124E+02 -0.38153930284E+02 -0.55270505074E+03  0.55444948262E+03  0.00000000000E+00 0. -1.
<mgrwt>
<rscale>  1 0.30000000E+03</rscale>
<asrwt>0</asrwt>
<pdfrwt beam="1">  1       21 0.71372527E-02 0.30000000E+03</pdfrwt>
<pdfrwt beam="2">0</pdfrwt>
<totfact> 0.15598706E+04</totfact>
</mgrwt>
</event>
<event>
 6    1  0.1274196E-001  0.3000000E+03  0.7818608E-02  0.1093470E+00
         21   -1    0    0  501  502  0.00000000000E+00  0.00000000000E+00  0.13434216660E+01  0.13434216660E+01  0.00000000000E+00 0. -1.
         13   -1    0    0    0    0 -0.00000000000E+00 -0.00000000000E+00 -0.10000000000E+04  0.10000000000E+04  0.00000000000E+00 0.  1.
    9000005    2    1    2  501    0  0.79602490305E+01 -0.31774658748E+02 -0.72288857109E+03  0.72363676290E+03  0.30469502531E+01 0.  0.
         13    1    3    3    0    0  0.13788890823E+01 -0.53558587079E+01 -0.98922781711E+02  0.99077259243E+02  0.00000000000E+00 0.  1.
          1    1    3    3  501    0  0.65813599482E+01 -0.26418800040E+02 -0.62396578938E+03  0.62455950366E+03  0.00000000000E+00 0.  1.
         -1    1    1    2    0  502 -0.79602490305E+01  0.31774658748E+02 -0.27576800724E+03  0.27770665876E+03  0.00000000000E+00 0. -1.
<mgrwt>
<rscale>  1 0.30000000E+03</rscale>
<asrwt>0</asrwt>
<pdfrwt beam="1">  1       21 0.48851800E-02 0.30000000E+03</pdfrwt>
<pdfrwt beam="2">0</pdfrwt>
<totfact> 0.29967663E+04</totfact>
</mgrwt>
</event>
<event>
 6    1  0.1274196E-001  0.3000000E+03  0.7818608E-02  0.1093470E+00
         21   -1    0    0  501  502  0.00000000000E+00  0.00000000000E+00  0.20702200352E+01  0.20702200352E+01  0.00000000000E+00 0. -1.
         13   -1    0    0    0    0 -0.00000000000E+00 -0.00000000000E+00 -0.10000000000E+04  0.10000000000E+04  0.00000000000E+00 0.  1.
    9000005    2    1    2  501    0  0.44159044393E+02  0.92804906668E+01 -0.43970409717E+03  0.44202373835E+03  0.30238211002E+01 0.  0.
         13    1    3    3    0    0  0.30964066601E+02  0.51707806126E+01 -0.30058526850E+03  0.30222014167E+03  0.00000000000E+00 0.  1.
          1    1    3    3  501    0  0.13194977792E+02  0.41097100543E+01 -0.13911882867E+03  0.13980359669E+03  0.00000000000E+00 0.  1.
         -1    1    1    2    0  502 -0.44159044393E+02 -0.92804906668E+01 -0.55822568280E+03  0.56004648168E+03  0.00000000000E+00 0. -1.
<mgrwt>
<rscale>  1 0.30000000E+03</rscale>
<asrwt>0</asrwt>
<pdfrwt beam="1">  1       21 0.75280887E-02 0.30000000E+03</pdfrwt>
<pdfrwt beam="2">0</pdfrwt>
<totfact> 0.14211138E+04</totfact>
</mgrwt>
</event>
<event>
 6    1  0.1274196E-001  0.3000000E+03  0.7818608E-02  0.1093470E+00
         21   -1    0    0  501  502  0.00000000000E+00  0.00000000000E+00  0.20605915744E+01  0.20605915744E+01  0.00000000000E+00 0. -1.
         13   -1    0    0    0    0 -0.00000000000E+00 -0.00000000000E+00 -0.10000000000E+04  0.10000000000E+04  0.00000000000E+00 0.  1.
    9000005    2    1    2  501    0  0.26292725222E+02 -0.14641769382E+02 -0.87384849249E+03  0.87437251763E+03  0.32284588821E+01 0.  0.
         13    1    3    3    0    0  0.29448660862E+01 -0.21397213027E+01 -0.80886122945E+02  0.80967990766E+02  0.00000000000E+00 0.  1.
          1    1    3    3  501    0  0.23347859136E+02 -0.12502048079E+02 -0.79296236955E+03  0.79340452687E+03  0.00000000000E+00 0.  1.
         -3    1    1    2    0  502 -0.26292725222E+02  0.14641769382E+02 -0.12409091593E+03  0.12768807394E+03  0.00000000000E+00 0. -1.
<mgrwt>
<rscale>  1 0.30000000E+03</rscale>
<asrwt>0</asrwt>
<pdfrwt beam="1">  1       21 0.74930761E-02 0.30000000E+03</pdfrwt>
<pdfrwt beam="2">0</pdfrwt>
<totfact> 0.14327614E+04</totfact>
</mgrwt>
</event>
<event>
 6    1  0.1274196E-001  0.3000000E+03  0.7818608E-02  0.1093470E+00
         21   -1    0    0  501  502  0.00000000000E+00  0.00000000000E+00  0.17005360053E+01  0.17005360053E+01  0.00000000000E+00 0. -1.
         13   -1    0    0    0    0 -0.00000000000E+00 -0.00000000000E+00 -0.10000000000E+04  0.10000000000E+04  0.00000000000E+00 0.  1.
    9000005    2    1    2  501    0  0.26489340322E+02 -0.15250887283E+02 -0.83507803036E+03  0.83564177800E+03  0.27549282658E+01 0.  0.
         13    1    3    3    0    0  0.22168385868E+02 -0.13791376180E+02 -0.72144608607E+03  0.72191834337E+03  0.00000000000E+00 0.  1.
          3    1    3    3  501    0  0.43209544538E+01 -0.14595111028E+01 -0.11363194430E+03  0.11372343463E+03  0.00000000000E+00 0.  1.
         -1    1    1    2    0  502 -0.26489340322E+02  0.15250887283E+02 -0.16322143363E+03  0.16605875801E+03  0.00000000000E+00 0. -1.
<mgrwt>
<rscale>  1 0.30000000E+03</rscale>
<asrwt>0</asrwt>
<pdfrwt beam="1">  1       21 0.61837803E-02 0.30000000E+03</pdfrwt>
<pdfrwt beam="2">0</pdfrwt>
<totfact> 0.20002625E+04</totfact>
</mgrwt>
</event>
<event>
 6    1  0.1274196E-001  0.3000000E+03  0.7818608E-02  0.1093470E+00
         21   -1    0    0  501  502  0.00000000000E+00  0.00000000000E+00  0.32344799469E+01  0.32344799469E+01  0.00000000000E+00 0. -1.
         13   -1    0    0    0    0 -0.00000000000E+00 -0.00000000000E+00 -0.10000000000E+04  0.10000000000E+04  0.00000000000E+00 0.  1.
    9000005    2    1    2  501    0  0.29250189832E+02  0.18518902513E+02 -0.89624345650E+03  0.89691793083E+03  0.33042347539E+01 0.  0.
         13    1    3    3    0    0  0.14659233902E+02  0.89557780820E+01 -0.48670833745E+03  0.48701140114E+03  0.00000000000E+00 0.  1.
          3    1    3    3  501    0  0.14590955930E+02  0.95631244308E+01 -0.40953511905E+03  0.40990652968E+03  0.00000000000E+00 0.  1.
         -1    1    1    2    0  502 -0.29250189832E+02 -0.18518902513E+02 -0.10052206355E+03  0.10631654912E+03  0.00000000000E+00 0. -1.
<mgrwt>
<rscale>  1 0.30000000E+03</rscale>
<asrwt>0</asrwt>
<pdfrwt beam="1">  1       21 0.11761770E-01 0.30000000E+03</pdfrwt>
<pdfrwt beam="2">0</pdfrwt>
<totfact> 0.64265403E+03</totfact>
</mgrwt>
</event>
<event>
 6    1  0.1274196E-001  0.3000000E+03  0.7818608E-02  0.1093470E+00
         21   -1    0    0  501  502  0.00000000000E+00  0.00000000000E+00  0.34054018471E+01  0.34054018471E+01  0.00000000000E+00 0. -1.
         13   -1    0    0    0    0 -0.00000000000E+00 -0.00000000000E+00 -0.10000000000E+04  0.10000000000E+04  0.00000000000E+00 0.  1.
    9000005    2    1    2  501    0  0.13124861936E+02 -0.45390509281E+02 -0.79240389109E+03  0.79381913039E+03  0.35106723620E+01 0.  0.
         13    1    3    3    0    0  0.46416450726E+01 -0.20776652812E+02 -0.37587204360E+03  0.37647444446E+03  0.00000000000E+00 0.  1.
          3    1    3    3  501    0  0.84832168630E+01 -0.24613856469E+02 -0.41653184749E+03  0.41734468593E+03  0.00000000000E+00 0.  1.
         -1    1    1    2    0  502 -0.13124861936E+02  0.45390509281E+02 -0.20419070706E+03  0.20958627146E+03  0.00000000000E+00 0. -1.
<mgrwt>
<rscale>  1 0.30000000E+03</rscale>
<asrwt>0</asrwt>
<pdfrwt beam="1">  1       21 0.12383306E-01 0.30000000E+03</pdfrwt>
<pdfrwt beam="2">0</pdfrwt>
<totfact> 0.58528028E+03</totfact>
</mgrwt>
</event>
<event>
 6    1  0.1274196E-001  0.3000000E+03  0.7818608E-02  0.1093470E+00
         21   -1    0    0  501  502  0.00000000000E+00  0.00000000000E+00  0.12889185418E+01  0.12889185418E+01  0.00000000000E+00 0. -1.
         13   -1    0    0    0    0 -0.00000000000E+00 -0.00000000000E+00 -0.10000000000E+04  0.10000000000E+04  0.00000000000E+00 0.  1.
    9000005    2    1    2  501    0  0.19833289101E+02 -0.28808115201E+02 -0.39124888928E+03  0.39282069276E+03  0.30226546131E+01 0.  0.
         13    1    3    3    0    0  0.45068397027E+01 -0.84828932691E+01 -0.98668796930E+02  0.99135274095E+02  0.00000000000E+00 0.  1.
          1    1    3    3  501    0  0.15326449399E+02 -0.20325221932E+02 -0.29258009235E+03  0.29368541867E+03  0.00000000000E+00 0.  1.
         -1    1    1    2    0  502 -0.19833289101E+02  0.28808115201E+02 -0.60746219218E+03  0.60846822578E+03  0.00000000000E+00 0. -1.
<mgrwt>
<rscale>  1 0.30000000E+03</rscale>
<asrwt>0</asrwt>
<pdfrwt beam="1">  1       21 0.46869864E-02 0.30000000E+03</pdfrwt>
<pdfrwt beam="2">0</pdfrwt>
<totfact> 0.32155556E+04</totfact>
</mgrwt>
</event>
<event>
 6    1  0.1274196E-001  0.3000000E+03  0.7818608E-02  0.1093470E+00
         21   -1    0    0  501  502  0.00000000000E+00  0.00000000000E+00  0.13992171146E+01  0.13992171146E+01  0.00000000000E+00 0. -1.
         13   -1    0    0    0    0 -0.00000000000E+00 -0.00000000000E+00 -0.10000000000E+04  0.10000000000E+04  0.00000000000E+00 0.  1.
    9000005    2    1    2  501    0 -0.96968650994E+00 -0.33639481233E+02 -0.71689723832E+03  0.71769260456E+03  0.29102116835E+01 0.  0.
         13    1    3    3    0    0 -0.51247506419E-01 -0.30147329474E+02 -0.63208363565E+03  0.63280217016E+03  0.00000000000E+00 0.  1.
          3    1    3    3  501    0 -0.91843900352E+00 -0.34921517590E+01 -0.84813602674E+02  0.84890434401E+02  0.00000000000E+00 0.  1.
         -3    1    1    2    0  502  0.96968650994E+00  0.33639481233E+02 -0.28170354456E+03  0.28370661256E+03  0.00000000000E+00 0. -1.
<mgrwt>
<rscale>  1 0.30000000E+03</rscale>
<asrwt>0</asrwt>
<pdfrwt beam="1">  1       21 0.50880730E-02 0.30000000E+03</pdfrwt>
<pdfrwt beam="2">0</pdfrwt>
<totfact> 0.27959505E+04</totfact>
</mgrwt>
</event>
<event>
 6    1  0.1274196E-001  0.3000000E+03  0.7818608E-02  0.1093470E+00
         21   -1    0    0  501  502  0.00000000000E+00  0.00000000000E+00  0.22441052123E+01  0.22441052123E+01  0.00000000000E+00 0. -1.
         13   -1    0    0    0    0 -0.00000000000E+00 -0.00000000000E+00 -0.10000000000E+04  0.10000000000E+04  0.00000000000E+00 0.  1.
    9000005    2    1    2  501    0  0.13206873538E+02 -0.41368211959E+02 -0.69825370675E+03  0.69961014956E+03  0.32205464695E+01 0.  0.
         13    1    3    3    0    0  0.39008424060E+01 -0.12737306422E+02 -0.19118393773E+03  0.19164747218E+03  0.00000000000E+00 0.  1.
          3    1    3    3  501    0  0.93060311318E+01 -0.28630905538E+02 -0.50706976902E+03  0.50796267739E+03  0.00000000000E+00 0.  1.
         -1    1    1    2    0  502 -0.13206873538E+02  0.41368211959E+02 -0.29950218804E+03  0.30263395565E+03  0.00000000000E+00 0. -1.
<mgrwt>
<rscale>  1 0.30000000E+03</rscale>
<asrwt>0</asrwt>
<pdfrwt beam="1">  1       21 0.81603998E-02 0.30000000E+03</pdfrwt>
<pdfrwt beam="2">0</pdfrwt>
<totfact> 0.12335888E+04</totfact>
</mgrwt>
</event>
<event>
 6    1  0.1274196E-001  0.3000000E+03  0.7818608E-02  0.1093470E+00
         21   -1    0    0  501  502  0.00000000000E+00  0.00000000000E+00  0.26616707094E+01  0.26616707094E+01  0.00000000000E+00 0. -1.
         13   -1    0    0    0    0 -0.00000000000E+00 -0.00000000000E+00 -0.10000000000E+04  0.10000000000E+04  0.00000000000E+00 0.  1.
    9000005    2    1    2  501    0  0.25955952267E+02  0.42624840558E+02 -0.61288697451E+03  0.61498470121E+03  0.92277138514E+01 0.  0.
         13    1    3    3    0    0  0.10283301911E+02  0.15333564223E+02 -0.28230480575E+03  0.28290787871E+03  0.00000000000E+00 0.  1.
          1    1    3    3  501    0  0.15672650356E+02  0.27291276335E+02 -0.33058216877E+03  0.33207682250E+03  0.00000000000E+00 0.  1.
         -3    1    1    2    0  502 -0.25955952267E+02 -0.42624840558E+02 -0.38445135478E+03  0.38767696950E+03  0.00000000000E+00 0. -1.
<mgrwt>
<rscale>  1 0.30000000E+03</rscale>
<asrwt>0</asrwt>
<pdfrwt beam="1">  1       21 0.96788230E-02 0.30000000E+03</pdfrwt>
<pdfrwt beam="2">0</pdfrwt>
<totfact> 0.91194602E+03</totfact>
</mgrwt>
</event>
<event>
 6    1  0.1274196E-001  0.3000000E+03  0.7818608E-02  0.1093470E+00
         21   -1    0    0  501  502  0.00000000000E+00  0.00000000000E+00  0.27542062113E+01  0.27542062113E+01  0.00000000000E+00 0. -1.
         13   -1    0    0    0    0 -0.00000000000E+00 -0.00000000000E+00 -0.10000000000E+04  0.10000000000E+04  0.00000000000E+00 0.  1.
    9000005    2    1    2  501    0 -0.33074234961E+02  0.36881114270E+02 -0.66306308515E+03  0.66491962486E+03  0.33661578711E+01 0.  0.
         13    1    3    3    0    0 -0.11410002691E+02  0.13693313446E+02 -0.21901710331E+03  0.21974118079E+03  0.00000000000E+00 0.  1.
          3    1    3    3  501    0 -0.21664232271E+02  0.23187800823E+02 -0.44404598184E+03  0.44517844406E+03  0.00000000000E+00 0.  1.
         -1    1    1    2    0  502  0.33074234961E+02 -0.36881114270E+02 -0.33418270863E+03  0.33783458135E+03  0.00000000000E+00 0. -1.
<mgrwt>
<rscale>  1 0.30000000E+03</rscale>
<asrwt>0</asrwt>
<pdfrwt beam="1">  1       21 0.10015316E-01 0.30000000E+03</pdfrwt>
<pdfrwt beam="2">0</pdfrwt>
<totfact> 0.85797015E+03</totfact>
</mgrwt>
</event>
<event>
 6    1  0.1274196E-001  0.3000000E+03  0.7818608E-02  0.1093470E+00
         21   -1    0    0  501  502  0.00000000000E+00  0.00000000000E+00  0.11266064811E+01  0.11266064811E+01  0.00000000000E+00 0. -1.
         13   -1    0    0    0    0 -0.00000000000E+00 -0.00000000000E+00 -0.10000000000E+04  0.10000000000E+04  0.00000000000E+00 0.  1.
    9000005    2    1    2  501    0 -0.31001117595E+02  0.19603192531E+01 -0.68717637584E+03  0.68788557633E+03  0.32066273378E+01 0.  0.
         13    1    3    3    0    0 -0.16541235316E+02 -0.18088320688E+00 -0.38741443895E+03  0.38776744666E+03  0.00000000000E+00 0.  1.
          3    1    3    3  501    0 -0.14459882279E+02  0.21412024600E+01 -0.29976193689E+03  0.30011812966E+03  0.00000000000E+00 0.  1.
         -3    1    1    2    0  502  0.31001117595E+02 -0.19603192531E+01 -0.31169701768E+03  0.31324103016E+03  0.00000000000E+00 0. -1.
<mgrwt>
<rscale>  1 0.30000000E+03</rscale>
<asrwt>0</asrwt>
<pdfrwt beam="1">  1       21 0.40967595E-02 0.30000000E+03</pdfrwt>
<pdfrwt beam="2">0</pdfrwt>
<totfact> 0.40387447E+04</totfact>
</mgrwt>
</event>
<event>
 6    1  0.1274196E-001  0.3000000E+03  0.7818608E-02  0.1093470E+00
         21   -1    0    0  501  502  0.00000000000E+00  0.00000000000E+00  0.11874503880E+01  0.11874503880E+01  0.00000000000E+00 0. -1.
         13   -1    0    0    0    0 -0.00000000000E+00 -0.00000000000E+00 -0.10000000000E+04  0.10000000000E+04  0.00000000000E+00 0.  1.
    9000005    2    1    2  501    0 -0.29203691496E+02 -0.14867380674E+02 -0.65199352184E+03  0.65282365688E+03  0.30462847982E+01 0.  0.
         13    1    3    3    0    0 -0.18470395956E+02 -0.94716657426E+01 -0.44133971628E+03  0.44182758305E+03  0.00000000000E+00 0.  1.
          1    1    3    3  501    0 -0.10733295540E+02 -0.53957149314E+01 -0.21065380557E+03  0.21099607383E+03  0.00000000000E+00 0.  1.
         -3    1    1    2    0  502  0.29203691496E+02  0.14867380674E+02 -0.34681902777E+03  0.34836379351E+03  0.00000000000E+00 0. -1.
<mgrwt>
<rscale>  1 0.30000000E+03</rscale>
<asrwt>0</asrwt>
<pdfrwt beam="1">  1       21 0.43180105E-02 0.30000000E+03</pdfrwt>
<pdfrwt beam="2">0</pdfrwt>
<totfact> 0.36954556E+04</totfact>
</mgrwt>
</event>
<event>
 6    1  0.1274196E-001  0.3000000E+03  0.7818608E-02  0.1093470E+00
         21   -1    0    0  501  502  0.00000000000E+00  0.00000000000E+00  0.21630901003E+01  0.21630901003E+01  0.00000000000E+00 0. -1.
         13   -1    0    0    0    0 -0.00000000000E+00 -0.00000000000E+00 -0.10000000000E+04  0.10000000000E+04  0.00000000000E+00 0.  1.
    9000005    2    1    2  501    0  0.25604050125E+02 -0.31045265026E+02 -0.24939835805E+03  0.25264348278E+03  0.31324957371E+01 0.  0.
         13    1    3    3    0    0  0.25979391173E+01 -0.47538764785E+01 -0.35429701630E+02  0.35841489741E+02  0.00000000000E+00 0.  1.
          1    1    3    3  501    0  0.23006111008E+02 -0.26291388548E+02 -0.21396865642E+03  0.21680199304E+03  0.00000000000E+00 0.  1.
         -3    1    1    2    0  502 -0.25604050125E+02  0.31045265026E+02 -0.74843855185E+03  0.74951960732E+03  0.00000000000E+00 0. -1.
<mgrwt>
<rscale>  1 0.30000000E+03</rscale>
<asrwt>0</asrwt>
<pdfrwt beam="1">  1       21 0.78657988E-02 0.30000000E+03</pdfrwt>
<pdfrwt beam="2">0</pdfrwt>
<totfact> 0.13158954E+04</totfact>
</mgrwt>
</event>
<event>
 6    1  0.1274196E-001  0.3000000E+03  0.7818608E-02  0.1093470E+00
         21   -1    0    0  501  502  0.00000000000E+00  0.00000000000E+00  0.18458133154E+01  0.18458133154E+01  0.00000000000E+00 0. -1.
         13   -1    0    0    0    0 -0.00000000000E+00 -0.00000000000E+00 -0.10000000000E+04  0.10000000000E+04  0.00000000000E+00 0.  1.
    9000005    2    1    2  501    0 -0.34353879195E+02 -0.13371084278E+02 -0.75618805825E+03  0.75708760156E+03  0.15106589327E+01 0.  0.
         13    1    3    3    0    0 -0.30770759844E+02 -0.12385880944E+02 -0.67479139495E+03  0.67560615480E+03  0.00000000000E+00 0.  1.
          3    1    3    3  501    0 -0.35831193506E+01 -0.98520333343E+00 -0.81396663299E+02  0.81481446760E+02  0.00000000000E+00 0.  1.
         -1    1    1    2    0  502  0.34353879195E+02  0.13371084278E+02 -0.24196612843E+03  0.24475821175E+03  0.00000000000E+00 0. -1.
<mgrwt>
<rscale>  1 0.30000000E+03</rscale>
<asrwt>0</asrwt>
<pdfrwt beam="1">  1       21 0.67120626E-02 0.30000000E+03</pdfrwt>
<pdfrwt beam="2">0</pdfrwt>
<totfact> 0.17356933E+04</totfact>
</mgrwt>
</event>
<event>
 6    1  0.1274196E-001  0.3000000E+03  0.7818608E-02  0.1093470E+00
         21   -1    0    0  501  502  0.00000000000E+00  0.00000000000E+00  0.19151762452E+01  0.19151762452E+01  0.00000000000E+00 0. -1.
         13   -1    0    0    0    0 -0.00000000000E+00 -0.00000000000E+00 -0.10000000000E+04  0.10000000000E+04  0.00000000000E+00 0.  1.
    9000005    2    1    2  501    0 -0.75528358017E+01 -0.31383789555E+02 -0.83688697234E+03  0.83751707749E+03  0.36142813580E+01 0.  0.
         13    1    3    3    0    0 -0.47786834830E+01 -0.20641293003E+02 -0.50362398242E+03  0.50406945401E+03  0.00000000000E+00 0.  1.
          3    1    3    3  501    0 -0.27741523187E+01 -0.10742496552E+02 -0.33326298992E+03  0.33344762348E+03  0.00000000000E+00 0.  1.
         -3    1    1    2    0  502  0.75528358017E+01  0.31383789555E+02 -0.16119785141E+03  0.16439809876E+03  0.00000000000E+00 0. -1.
<mgrwt>
<rscale>  1 0.30000000E+03</rscale>
<asrwt>0</asrwt>
<pdfrwt beam="1">  1       21 0.69642919E-02 0.30000000E+03</pdfrwt>
<pdfrwt beam="2">0</pdfrwt>
<totfact> 0.16279509E+04</totfact>
</mgrwt>
</event>
<event>
 6    1  0.1274196E-001  0.3000000E+03  0.7818608E-02  0.1093470E+00
         21   -1    0    0  501  502  0.00000000000E+00  0.00000000000E+00  0.34415678084E+01  0.34415678084E+01  0.00000000000E+00 0. -1.
         13   -1    0    0    0    0 -0.00000000000E+00 -0.00000000000E+00 -0.10000000000E+04  0.10000000000E+04  0.00000000000E+00 0.  1.
    9000005    2    1    2  501    0  0.17624448820E+02  0.33794010511E+02 -0.87917440522E+03  0.88002493145E+03  0.66021838533E+01 0.  0.
         13    1    3    3    0    0  0.74844989706E+01  0.21305285753E+02 -0.52452222602E+03  0.52500809376E+03  0.00000000000E+00 0.  1.
          1    1    3    3  501    0  0.10139949850E+02  0.12488724758E+02 -0.35465217921E+03  0.35501683769E+03  0.00000000000E+00 0.  1.
         -1    1    1    2    0  502 -0.17624448820E+02 -0.33794010511E+02 -0.11738402697E+03  0.12341663636E+03  0.00000000000E+00 0. -1.
<mgrwt>
<rscale>  1 0.30000000E+03</rscale>
<asrwt>0</asrwt>
<pdfrwt beam="1">  1       21 0.12514818E-01 0.30000000E+03</pdfrwt>
<pdfrwt beam="2">0</pdfrwt>
<totfact> 0.57412911E+03</totfact>
</mgrwt>
</event>
<event>
 6    1  0.1274196E-001  0.3000000E+03  0.7818608E-02  0.1093470E+00
         21   -1    0    0  501  502  0.00000000000E+00  0.00000000000E+00  0.10098179035E+01  0.10098179035E+01  0.00000000000E+00 0. -1.
         13   -1    0    0    0    0 -0.00000000000E+00 -0.00000000000E+00 -0.10000000000E+04  0.10000000000E+04  0.00000000000E+00 0.  1.
    9000005    2    1    2  501    0 -0.25333787110E+02 -0.18757094041E+02 -0.44811674446E+03  0.44923525013E+03  0.31723728180E+01 0.  0.
         13    1    3    3    0    0 -0.17919352207E+02 -0.11510124238E+02 -0.29468131189E+03  0.29544993099E+03  0.00000000000E+00 0.  1.
          1    1    3    3  501    0 -0.74144349031E+01 -0.72469698029E+01 -0.15343543256E+03  0.15378531914E+03  0.00000000000E+00 0.  1.
         -1    1    1    2    0  502  0.25333787110E+02  0.18757094041E+02 -0.55087343764E+03  0.55177456778E+03  0.00000000000E+00 0. -1.
<mgrwt>
<rscale>  1 0.30000000E+03</rscale>
<asrwt>0</asrwt>
<pdfrwt beam="1">  1       21 0.36720728E-02 0.30000000E+03</pdfrwt>
<pdfrwt beam="2">0</pdfrwt>
<totfact> 0.48548838E+04</totfact>
</mgrwt>
</event>
<event>
 6    1  0.1274196E-001  0.3000000E+03  0.7818608E-02  0.1093470E+00
         21   -1    0    0  501  502  0.00000000000E+00  0.00000000000E+00  0.13126079201E+01  0.13126079201E+01  0.00000000000E+00 0. -1.
         13   -1    0    0    0    0 -0.00000000000E+00 -0.00000000000E+00 -0.10000000000E+04  0.10000000000E+04  0.00000000000E+00 0.  1.
    9000005    2    1    2  501    0 -0.13727057082E+02 -0.32760999720E+02 -0.59406729536E+03  0.59513636801E+03  0.31032098828E+01 0.  0.
         13    1    3    3    0    0 -0.95159104695E+00 -0.49421655669E+01 -0.89134097537E+02  0.89276076694E+02  0.00000000000E+00 0.  1.
          3    1    3    3  501    0 -0.12775466035E+02 -0.27818834153E+02 -0.50493319783E+03  0.50586029132E+03  0.00000000000E+00 0.  1.
         -1    1    1    2    0  502  0.13727057082E+02  0.32760999720E+02 -0.40462009672E+03  0.40617623991E+03  0.00000000000E+00 0. -1.
<mgrwt>
<rscale>  1 0.30000000E+03</rscale>
<asrwt>0</asrwt>
<pdfrwt beam="1">  1       21 0.47731298E-02 0.30000000E+03</pdfrwt>
<pdfrwt beam="2">0</pdfrwt>
<totfact> 0.31174882E+04</totfact>
</mgrwt>
</event>
<event>
 6    1  0.1274196E-001  0.3000000E+03  0.7818608E-02  0.1093470E+00
         21   -1    0    0  501  502  0.00000000000E+00  0.00000000000E+00  0.15161472945E+01  0.15161472945E+01  0.00000000000E+00 0. -1.
         13   -1    0    0    0    0 -0.00000000000E+00 -0.00000000000E+00 -0.10000000000E+04  0.10000000000E+04  0.00000000000E+00 0.  1.
    9000005    2    1    2  501    0  0.35585293241E+02 -0.17922783026E+01 -0.69920595489E+03  0.70012473156E+03  0.40183372369E+01 0.  0.
         13    1    3    3    0    0  0.21245456030E+02 -0.32027311212E+00 -0.38023649221E+03  0.38082970208E+03  0.00000000000E+00 0.  1.
          1    1    3    3  501    0  0.14339837211E+02 -0.14720051905E+01 -0.31896946268E+03  0.31929502948E+03  0.00000000000E+00 0.  1.
         -3    1    1    2    0  502 -0.35585293241E+02  0.17922783026E+01 -0.29927789781E+03  0.30139141573E+03  0.00000000000E+00 0. -1.
<mgrwt>
<rscale>  1 0.30000000E+03</rscale>
<asrwt>0</asrwt>
<pdfrwt beam="1">  1       21 0.55132745E-02 0.30000000E+03</pdfrwt>
<pdfrwt beam="2">0</pdfrwt>
<totfact> 0.24373186E+04</totfact>
</mgrwt>
</event>
<event>
 6    1  0.1274196E-001  0.3000000E+03  0.7818608E-02  0.1093470E+00
         21   -1    0    0  501  502  0.00000000000E+00  0.00000000000E+00  0.30462465420E+01  0.30462465420E+01  0.00000000000E+00 0. -1.
         13   -1    0    0    0    0 -0.00000000000E+00 -0.00000000000E+00 -0.10000000000E+04  0.10000000000E+04  0.00000000000E+00 0.  1.
    9000005    2    1    2  501    0  0.46765639115E+02  0.45698070004E+01 -0.76125678761E+03  0.76271113082E+03  0.29093402470E+01 0.  0.
         13    1    3    3    0    0  0.34943834773E+02  0.46760051966E+01 -0.56818095186E+03  0.56927368696E+03  0.00000000000E+00 0.  1.
          1    1    3    3  501    0  0.11821804342E+02 -0.10619819627E+00 -0.19307583575E+03  0.19343744386E+03  0.00000000000E+00 0.  1.
         -3    1    1    2    0  502 -0.46765639115E+02 -0.45698070004E+01 -0.23569696585E+03  0.24033511572E+03  0.00000000000E+00 0. -1.
<mgrwt>
<rscale>  1 0.30000000E+03</rscale>
<asrwt>0</asrwt>
<pdfrwt beam="1">  1       21 0.11077284E-01 0.30000000E+03</pdfrwt>
<pdfrwt beam="2">0</pdfrwt>
<totfact> 0.71612212E+03</totfact>
</mgrwt>
</event>
<event>
 6    1  0.1274196E-001  0.3000000E+03  0.7818608E-02  0.1093470E+00
         21   -1    0    0  501  502  0.00000000000E+00  0.00000000000E+00  0.56075178001E+01  0.56075178001E+01  0.00000000000E+00 0. -1.
         13   -1    0    0    0    0 -0.00000000000E+00 -0.00000000000E+00 -0.10000000000E+04  0.10000000000E+04  0.00000000000E+00 0.  1.
    9000005    2    1    2  501    0 -0.95835200399E+01 -0.47171471405E+02 -0.88230687457E+03  0.88362319501E+03  0.27455890950E+01 0.  0.
         13    1    3    3    0    0 -0.75102737227E+01 -0.40941924986E+02 -0.75246421108E+03  0.75361464582E+03  0.00000000000E+00 0.  1.
          3    1    3    3  501    0 -0.20732463172E+01 -0.62295464196E+01 -0.12984266349E+03  0.13000854918E+03  0.00000000000E+00 0.  1.
         -3    1    1    2    0  502  0.95835200399E+01  0.47171471405E+02 -0.11208560763E+03  0.12198432279E+03  0.00000000000E+00 0. -1.
<mgrwt>
<rscale>  1 0.30000000E+03</rscale>
<asrwt>0</asrwt>
<pdfrwt beam="1">  1       21 0.20391017E-01 0.30000000E+03</pdfrwt>
<pdfrwt beam="2">0</pdfrwt>
<totfact> 0.23120831E+03</totfact>
</mgrwt>
</event>
<event>
 6    1  0.1274196E-001  0.3000000E+03  0.7818608E-02  0.1093470E+00
         21   -1    0    0  501  502  0.00000000000E+00  0.00000000000E+00  0.11669221143E+01  0.11669221143E+01  0.00000000000E+00 0. -1.
         13   -1    0    0    0    0 -0.00000000000E+00 -0.00000000000E+00 -0.10000000000E+04  0.10000000000E+04  0.00000000000E+00 0.  1.
    9000005    2    1    2  501    0  0.22221721990E+02  0.23877946496E+02 -0.63713682151E+03  0.63800285020E+03  0.63518718186E+01 0.  0.
         13    1    3    3    0    0  0.59997999378E+01  0.98678407182E+01 -0.18736481192E+03  0.18772038948E+03  0.00000000000E+00 0.  1.
          3    1    3    3  501    0  0.16221922052E+02  0.14010105778E+02 -0.44977200959E+03  0.45028246071E+03  0.00000000000E+00 0.  1.
         -1    1    1    2    0  502 -0.22221721990E+02 -0.23877946496E+02 -0.36169625637E+03  0.36316407192E+03  0.00000000000E+00 0. -1.
<mgrwt>
<rscale>  1 0.30000000E+03</rscale>
<asrwt>0</asrwt>
<pdfrwt beam="1">  1       21 0.42433621E-02 0.30000000E+03</pdfrwt>
<pdfrwt beam="2">0</pdfrwt>
<totfact> 0.38060342E+04</totfact>
</mgrwt>
</event>
<event>
 6    1  0.1274196E-001  0.3000000E+03  0.7818608E-02  0.1093470E+00
         21   -1    0    0  501  502  0.00000000000E+00  0.00000000000E+00  0.22315654017E+01  0.22315654017E+01  0.00000000000E+00 0. -1.
         13   -1    0    0    0    0 -0.00000000000E+00 -0.00000000000E+00 -0.10000000000E+04  0.10000000000E+04  0.00000000000E+00 0.  1.
    9000005    2    1    2  501    0 -0.31996557548E+02 -0.24575284390E+02 -0.75895011009E+03  0.76002934324E+03  0.34071522818E+01 0.  0.
         13    1    3    3    0    0 -0.26619367371E+02 -0.20909334873E+02 -0.65744534012E+03  0.65831615980E+03  0.00000000000E+00 0.  1.
          1    1    3    3  501    0 -0.53771901769E+01 -0.36659495172E+01 -0.10150476997E+03  0.10171318344E+03  0.00000000000E+00 0.  1.
         -1    1    1    2    0  502  0.31996557548E+02  0.24575284390E+02 -0.23881832451E+03  0.24220222216E+03  0.00000000000E+00 0. -1.
<mgrwt>
<rscale>  1 0.30000000E+03</rscale>
<asrwt>0</asrwt>
<pdfrwt beam="1">  1       21 0.81148004E-02 0.30000000E+03</pdfrwt>
<pdfrwt beam="2">0</pdfrwt>
<totfact> 0.12458026E+04</totfact>
</mgrwt>
</event>
<event>
 6    1  0.1274196E-001  0.3000000E+03  0.7818608E-02  0.1093470E+00
         21   -1    0    0  501  502  0.00000000000E+00  0.00000000000E+00  0.13982683017E+01  0.13982683017E+01  0.00000000000E+00 0. -1.
         13   -1    0    0    0    0 -0.00000000000E+00 -0.00000000000E+00 -0.10000000000E+04  0.10000000000E+04  0.00000000000E+00 0.  1.
    9000005    2    1    2  501    0 -0.13167270361E+02  0.29307023401E+02 -0.75368773041E+03  0.75438582599E+03  0.45277870703E+01 0.  0.
         13    1    3    3    0    0 -0.82274634032E+01  0.19217447122E+02 -0.43859902598E+03  0.43909692212E+03  0.00000000000E+00 0.  1.
          1    1    3    3  501    0 -0.49398069576E+01  0.10089576279E+02 -0.31508870443E+03  0.31528890386E+03  0.00000000000E+00 0.  1.
         -3    1    1    2    0  502  0.13167270361E+02 -0.29307023401E+02 -0.24491400129E+03  0.24701244232E+03  0.00000000000E+00 0. -1.
<mgrwt>
<rscale>  1 0.30000000E+03</rscale>
<asrwt>0</asrwt>
<pdfrwt beam="1">  1       21 0.50846227E-02 0.30000000E+03</pdfrwt>
<pdfrwt beam="2">0</pdfrwt>
<totfact> 0.27991884E+04</totfact>
</mgrwt>
</event>
<event>
 6    1  0.1274196E-001  0.3000000E+03  0.7818608E-02  0.1093470E+00
         21   -1    0    0  501  502  0.00000000000E+00  0.00000000000E+00  0.23896499161E+01  0.23896499161E+01  0.00000000000E+00 0. -1.
         13   -1    0    0    0    0 -0.00000000000E+00 -0.00000000000E+00 -0.10000000000E+04  0.10000000000E+04  0.00000000000E+00 0.  1.
    9000005    2    1    2  501    0 -0.23945026837E+02 -0.31337938292E+02 -0.79448245498E+03  0.79546847542E+03  0.35061980725E+01 0.  0.
         13    1    3    3    0    0 -0.18713666645E+02 -0.22091500652E+02 -0.57027667608E+03  0.57101114087E+03  0.00000000000E+00 0.  1.
          3    1    3    3  501    0 -0.52313601922E+01 -0.92464376404E+01 -0.22420577890E+03  0.22445733455E+03  0.00000000000E+00 0.  1.
         -1    1    1    2    0  502  0.23945026837E+02  0.31337938292E+02 -0.20312789510E+03  0.20692117450E+03  0.00000000000E+00 0. -1.
<mgrwt>
<rscale>  1 0.30000000E+03</rscale>
<asrwt>0</asrwt>
<pdfrwt beam="1">  1       21 0.86896544E-02 0.30000000E+03</pdfrwt>
<pdfrwt beam="2">0</pdfrwt>
<totfact> 0.11042722E+04</totfact>
</mgrwt>
</event>
<event>
 6    1  0.1274196E-001  0.3000000E+03  0.7818608E-02  0.1093470E+00
         21   -1    0    0  501  502  0.00000000000E+00  0.00000000000E+00  0.11237386620E+01  0.11237386620E+01  0.00000000000E+00 0. -1.
         13   -1    0    0    0    0 -0.00000000000E+00 -0.00000000000E+00 -0.10000000000E+04  0.10000000000E+04  0.00000000000E+00 0.  1.
    9000005    2    1    2  501    0 -0.19792625350E+02 -0.26858077359E+02 -0.52370107993E+03  0.52477874041E+03  0.40988930421E+01 0.  0.
         13    1    3    3    0    0 -0.51188399709E+01 -0.51672654735E+01 -0.94531373596E+02  0.94810778654E+02  0.00000000000E+00 0.  1.
          3    1    3    3  501    0 -0.14673785379E+02 -0.21690811886E+02 -0.42916970633E+03  0.42996796175E+03  0.00000000000E+00 0.  1.
         -3    1    1    2    0  502  0.19792625350E+02  0.26858077359E+02 -0.47517518141E+03  0.47634499826E+03  0.00000000000E+00 0. -1.
<mgrwt>
<rscale>  1 0.30000000E+03</rscale>
<asrwt>0</asrwt>
<pdfrwt beam="1">  1       21 0.40863310E-02 0.30000000E+03</pdfrwt>
<pdfrwt beam="2">0</pdfrwt>
<totfact> 0.40561380E+04</totfact>
</mgrwt>
</event>
<event>
 6    1  0.1274196E-001  0.3000000E+03  0.7818608E-02  0.1093470E+00
         21   -1    0    0  501  502  0.00000000000E+00  0.00000000000E+00  0.12488850796E+01  0.12488850796E+01  0.00000000000E+00 0. -1.
         13   -1    0    0    0    0 -0.00000000000E+00 -0.00000000000E+00 -0.10000000000E+04  0.10000000000E+04  0.00000000000E+00 0.  1.
    9000005    2    1    2  501    0 -0.33763886461E+02 -0.15256323187E+01 -0.35778599127E+03  0.35939328035E+03  0.32228606756E+01 0.  0.
         13    1    3    3    0    0 -0.11975356423E+02 -0.18917302036E+01 -0.13595875874E+03  0.13649824864E+03  0.00000000000E+00 0.  1.
          3    1    3    3  501    0 -0.21788530037E+02  0.36609788492E+00 -0.22182723253E+03  0.22289503171E+03  0.00000000000E+00 0.  1.
         -3    1    1    2    0  502  0.33763886461E+02  0.15256323187E+01 -0.64096512365E+03  0.64185560473E+03  0.00000000000E+00 0. -1.
<mgrwt>
<rscale>  1 0.30000000E+03</rscale>
<asrwt>0</asrwt>
<pdfrwt beam="1">  1       21 0.45414099E-02 0.30000000E+03</pdfrwt>
<pdfrwt beam="2">0</pdfrwt>
<totfact> 0.33926522E+04</totfact>
</mgrwt>
</event>
<event>
 6    1  0.1274196E-001  0.3000000E+03  0.7818608E-02  0.1093470E+00
         21   -1    0    0  501  502  0.00000000000E+00  0.00000000000E+00  0.23702011473E+02  0.23702011473E+02  0.00000000000E+00 0. -1.
         13   -1    0    0    0    0 -0.00000000000E+00 -0.00000000000E+00 -0.10000000000E+04  0.10000000000E+04  0.00000000000E+00 0.  1.
    9000005    2    1    2  501    0 -0.11812391160E+03 -0.32453423708E+02 -0.79813242087E+03  0.80748579400E+03  0.33857131695E+01 0.  0.
         13    1    3    3    0    0 -0.88389591197E+00 -0.80265690462E-01 -0.43953103797E+01  0.44840236282E+01  0.00000000000E+00 0.  1.
          1    1    3    3  501    0 -0.11724001569E+03 -0.32373158017E+02 -0.79373711049E+03  0.80300177037E+03  0.00000000000E+00 0.  1.
         -1    1    1    2    0  502  0.11812391160E+03  0.32453423708E+02 -0.17816556765E+03  0.21621621748E+03  0.00000000000E+00 0. -1.
<mgrwt>
<rscale>  1 0.30000000E+03</rscale>
<asrwt>0</asrwt>
<pdfrwt beam="1">  1       21 0.86189314E-01 0.30000000E+03</pdfrwt>
<pdfrwt beam="2">0</pdfrwt>
<totfact> 0.10726792E+02</totfact>
</mgrwt>
</event>
<event>
 6    1  0.1274196E-001  0.3000000E+03  0.7818608E-02  0.1093470E+00
         21   -1    0    0  501  502  0.00000000000E+00  0.00000000000E+00  0.16888116245E+01  0.16888116245E+01  0.00000000000E+00 0. -1.
         13   -1    0    0    0    0 -0.00000000000E+00 -0.00000000000E+00 -0.10000000000E+04  0.10000000000E+04  0.00000000000E+00 0.  1.
    9000005    2    1    2  501    0  0.50924476765E+00  0.36568051447E+02 -0.72652327953E+03  0.72745141609E+03  0.34648737900E+01 0.  0.
         13    1    3    3    0    0  0.36735728568E+00  0.17952096800E+02 -0.39098001650E+03  0.39139211289E+03  0.00000000000E+00 0.  1.
          1    1    3    3  501    0  0.14188748197E+00  0.18615954647E+02 -0.33554326303E+03  0.33605930319E+03  0.00000000000E+00 0.  1.
         -1    1    1    2    0  502 -0.50924476765E+00 -0.36568051447E+02 -0.27178790885E+03  0.27423739554E+03  0.00000000000E+00 0. -1.
<mgrwt>
<rscale>  1 0.30000000E+03</rscale>
<asrwt>0</asrwt>
<pdfrwt beam="1">  1       21 0.61411461E-02 0.30000000E+03</pdfrwt>
<pdfrwt beam="2">0</pdfrwt>
<totfact> 0.20242995E+04</totfact>
</mgrwt>
</event>
<event>
 6    1  0.1274196E-001  0.3000000E+03  0.7818608E-02  0.1093470E+00
         21   -1    0    0  501  502  0.00000000000E+00  0.00000000000E+00  0.16569640420E+01  0.16569640420E+01  0.00000000000E+00 0. -1.
         13   -1    0    0    0    0 -0.00000000000E+00 -0.00000000000E+00 -0.10000000000E+04  0.10000000000E+04  0.00000000000E+00 0.  1.
    9000005    2    1    2  501    0 -0.37981532739E+02 -0.25580666066E+00 -0.67798643576E+03  0.67905657105E+03  0.30914963095E+01 0.  0.
         13    1    3    3    0    0 -0.23484463239E+02 -0.10914457204E+01 -0.43976267342E+03  0.44039064499E+03  0.00000000000E+00 0.  1.
          3    1    3    3  501    0 -0.14497069500E+02  0.83563905975E+00 -0.23822376234E+03  0.23866592606E+03  0.00000000000E+00 0.  1.
         -1    1    1    2    0  502  0.37981532739E+02  0.25580666066E+00 -0.32035660020E+03  0.32260039299E+03  0.00000000000E+00 0. -1.
<mgrwt>
<rscale>  1 0.30000000E+03</rscale>
<asrwt>0</asrwt>
<pdfrwt beam="1">  1       21 0.60253365E-02 0.30000000E+03</pdfrwt>
<pdfrwt beam="2">0</pdfrwt>
<totfact> 0.20919072E+04</totfact>
</mgrwt>
</event>
<event>
 6    1  0.1274196E-001  0.3000000E+03  0.7818608E-02  0.1093470E+00
         21   -1    0    0  501  502  0.00000000000E+00  0.00000000000E+00  0.40123902811E+01  0.40123902811E+01  0.00000000000E+00 0. -1.
         13   -1    0    0    0    0 -0.00000000000E+00 -0.00000000000E+00 -0.10000000000E+04  0.10000000000E+04  0.00000000000E+00 0.  1.
    9000005    2    1    2  501    0  0.24637560947E+02  0.35428711850E+02 -0.86536274599E+03  0.86644401435E+03  0.32163362656E+01 0.  0.
         13    1    3    3    0    0  0.16205119853E+02  0.25137152863E+02 -0.57738795406E+03  0.57816202906E+03  0.00000000000E+00 0.  1.
          1    1    3    3  501    0  0.84324410939E+01  0.10291558987E+02 -0.28797479194E+03  0.28828198528E+03  0.00000000000E+00 0.  1.
         -3    1    1    2    0  502 -0.24637560947E+02 -0.35428711850E+02 -0.13062486373E+03  0.13756837593E+03  0.00000000000E+00 0. -1.
<mgrwt>
<rscale>  1 0.30000000E+03</rscale>
<asrwt>0</asrwt>
<pdfrwt beam="1">  1       21 0.14590541E-01 0.30000000E+03</pdfrwt>
<pdfrwt beam="2">0</pdfrwt>
<totfact> 0.43341296E+03</totfact>
</mgrwt>
</event>
<event>
 6    1  0.1274196E-001  0.3000000E+03  0.7818608E-02  0.1093470E+00
         21   -1    0    0  501  502  0.00000000000E+00  0.00000000000E+00  0.10507087619E+01  0.10507087619E+01  0.00000000000E+00 0. -1.
         13   -1    0    0    0    0 -0.00000000000E+00 -0.00000000000E+00 -0.10000000000E+04  0.10000000000E+04  0.00000000000E+00 0.  1.
    9000005    2    1    2  501    0 -0.63624361265E+01 -0.29317740581E+02 -0.68676404185E+03  0.68742730331E+03  0.33819615148E+01 0.  0.
         13    1    3    3    0    0 -0.33511151156E+01 -0.18237161423E+02 -0.45815816485E+03  0.45853323549E+03  0.00000000000E+00 0.  1.
          1    1    3    3  501    0 -0.30113210109E+01 -0.11080579158E+02 -0.22860587699E+03  0.22889406782E+03  0.00000000000E+00 0.  1.
         -1    1    1    2    0  502  0.63624361265E+01  0.29317740581E+02 -0.31218524939E+03  0.31362340545E+03  0.00000000000E+00 0. -1.
<mgrwt>
<rscale>  1 0.30000000E+03</rscale>
<asrwt>0</asrwt>
<pdfrwt beam="1">  1       21 0.38207672E-02 0.30000000E+03</pdfrwt>
<pdfrwt beam="2">0</pdfrwt>
<totfact> 0.45418228E+04</totfact>
</mgrwt>
</event>
<event>
 6    1  0.1274196E-001  0.3000000E+03  0.7818608E-02  0.1093470E+00
         21   -1    0    0  501  502  0.00000000000E+00  0.00000000000E+00  0.24636553942E+01  0.24636553942E+01  0.00000000000E+00 0. -1.
         13   -1    0    0    0    0 -0.00000000000E+00 -0.00000000000E+00 -0.10000000000E+04  0.10000000000E+04  0.00000000000E+00 0.  1.
    9000005    2    1    2  501    0  0.37082040815E+02  0.31225589323E+02 -0.60414554936E+03  0.60609711674E+03  0.34285464962E+01 0.  0.
         13    1    3    3    0    0  0.27691467810E+02  0.22038632112E+02 -0.45475413219E+03  0.45612919161E+03  0.00000000000E+00 0.  1.
          3    1    3    3  501    0  0.93905730047E+01  0.91869572107E+01 -0.14939141717E+03  0.14996792513E+03  0.00000000000E+00 0.  1.
         -3    1    1    2    0  502 -0.37082040815E+02 -0.31225589323E+02 -0.39339079525E+03  0.39636653865E+03  0.00000000000E+00 0. -1.
<mgrwt>
<rscale>  1 0.30000000E+03</rscale>
<asrwt>0</asrwt>
<pdfrwt beam="1">  1       21 0.89587658E-02 0.30000000E+03</pdfrwt>
<pdfrwt beam="2">0</pdfrwt>
<totfact> 0.10462849E+04</totfact>
</mgrwt>
</event>
<event>
 6    1  0.1274196E-001  0.3000000E+03  0.7818608E-02  0.1093470E+00
         21   -1    0    0  501  502  0.00000000000E+00  0.00000000000E+00  0.46656523929E+01  0.46656523929E+01  0.00000000000E+00 0. -1.
         13   -1    0    0    0    0 -0.00000000000E+00 -0.00000000000E+00 -0.10000000000E+04  0.10000000000E+04  0.00000000000E+00 0.  1.
    9000005    2    1    2  501    0 -0.46060602633E+01  0.46767837915E+02 -0.86203624604E+03  0.86332623703E+03  0.41539859117E+01 0.  0.
         13    1    3    3    0    0 -0.28348818471E+01  0.11020835329E+02 -0.20171404538E+03  0.20203477787E+03  0.00000000000E+00 0.  1.
          1    1    3    3  501    0 -0.17711784162E+01  0.35747002586E+02 -0.66032220067E+03  0.66129145916E+03  0.00000000000E+00 0.  1.
         -3    1    1    2    0  502  0.46060602633E+01 -0.46767837915E+02 -0.13329810156E+03  0.14133941536E+03  0.00000000000E+00 0. -1.
<mgrwt>
<rscale>  1 0.30000000E+03</rscale>
<asrwt>0</asrwt>
<pdfrwt beam="1">  1       21 0.16966044E-01 0.30000000E+03</pdfrwt>
<pdfrwt beam="2">0</pdfrwt>
<totfact> 0.32737563E+03</totfact>
</mgrwt>
</event>
<event>
 6    1  0.1274196E-001  0.3000000E+03  0.7818608E-02  0.1093470E+00
         21   -1    0    0  501  502  0.00000000000E+00  0.00000000000E+00  0.11129140660E+01  0.11129140660E+01  0.00000000000E+00 0. -1.
         13   -1    0    0    0    0 -0.00000000000E+00 -0.00000000000E+00 -0.10000000000E+04  0.10000000000E+04  0.00000000000E+00 0.  1.
    9000005    2    1    2  501    0 -0.28256345901E+02 -0.17345768266E+02 -0.54616056851E+03  0.54717393542E+03  0.29414692467E+01 0.  0.
         13    1    3    3    0    0 -0.40404581222E+01 -0.21894813632E+01 -0.60866479323E+02  0.61039720147E+02  0.00000000000E+00 0.  1.
          1    1    3    3  501    0 -0.24215887779E+02 -0.15156286903E+02 -0.48529408919E+03  0.48613421527E+03  0.00000000000E+00 0.  1.
         -3    1    1    2    0  502  0.28256345901E+02  0.17345768266E+02 -0.45272651742E+03  0.45393897865E+03  0.00000000000E+00 0. -1.
<mgrwt>
<rscale>  1 0.30000000E+03</rscale>
<asrwt>0</asrwt>
<pdfrwt beam="1">  1       21 0.40469688E-02 0.30000000E+03</pdfrwt>
<pdfrwt beam="2">0</pdfrwt>
<totfact> 0.41228543E+04</totfact>
</mgrwt>
</event>
<event>
 6    1  0.1274196E-001  0.3000000E+03  0.7818608E-02  0.1093470E+00
         21   -1    0    0  501  502  0.00000000000E+00  0.00000000000E+00  0.50302214364E+01  0.50302214364E+01  0.00000000000E+00 0. -1.
         13   -1    0    0    0    0 -0.00000000000E+00 -0.00000000000E+00 -0.10000000000E+04  0.10000000000E+04  0.00000000000E+00 0.  1.
    9000005    2    1    2  501    0  0.20463792901E+02 -0.31229401811E+02 -0.92465779434E+03  0.92541981079E+03  0.39682764025E+01 0.  0.
         13    1    3    3    0    0  0.20593486021E+02 -0.30596903245E+02 -0.90434576682E+03  0.90509752409E+03  0.00000000000E+00 0.  1.
          3    1    3    3  501    0 -0.12969311965E+00 -0.63249856669E+00 -0.20312027514E+02  0.20322286694E+02  0.00000000000E+00 0.  1.
         -1    1    1    2    0  502 -0.20463792901E+02  0.31229401811E+02 -0.70311984228E+02  0.79610410647E+02  0.00000000000E+00 0. -1.
<mgrwt>
<rscale>  1 0.30000000E+03</rscale>
<asrwt>0</asrwt>
<pdfrwt beam="1">  1       21 0.18291753E-01 0.30000000E+03</pdfrwt>
<pdfrwt beam="2">0</pdfrwt>
<totfact> 0.28420922E+03</totfact>
</mgrwt>
</event>
<event>
 6    1  0.1274196E-001  0.3000000E+03  0.7818608E-02  0.1093470E+00
         21   -1    0    0  501  502  0.00000000000E+00  0.00000000000E+00  0.25769818097E+01  0.25769818097E+01  0.00000000000E+00 0. -1.
         13   -1    0    0    0    0 -0.00000000000E+00 -0.00000000000E+00 -0.10000000000E+04  0.10000000000E+04  0.00000000000E+00 0.  1.
    9000005    2    1    2  501    0  0.39654557898E+01 -0.33473604510E+02 -0.87326559828E+03  0.87392523500E+03  0.40378448539E+01 0.  0.
         13    1    3    3    0    0  0.25297837765E+00 -0.14198428434E+01 -0.64606086998E+02  0.64622182175E+02  0.00000000000E+00 0.  1.
          1    1    3    3  501    0  0.37124774121E+01 -0.32053761667E+02 -0.80865951128E+03  0.80930305282E+03  0.00000000000E+00 0.  1.
         -3    1    1    2    0  502 -0.39654557898E+01  0.33473604510E+02 -0.12415741991E+03  0.12865174681E+03  0.00000000000E+00 0. -1.
<mgrwt>
<rscale>  1 0.30000000E+03</rscale>
<asrwt>0</asrwt>
<pdfrwt beam="1">  1       21 0.93708627E-02 0.30000000E+03</pdfrwt>
<pdfrwt beam="2">0</pdfrwt>
<totfact> 0.96602284E+03</totfact>
</mgrwt>
</event>
<event>
 6    1  0.1274196E-001  0.3000000E+03  0.7818608E-02  0.1093470E+00
         21   -1    0    0  501  502  0.00000000000E+00  0.00000000000E+00  0.96451923566E+00  0.96451923566E+00  0.00000000000E+00 0. -1.
         13   -1    0    0    0    0 -0.00000000000E+00 -0.00000000000E+00 -0.10000000000E+04  0.10000000000E+04  0.00000000000E+00 0.  1.
    9000005    2    1    2  501    0 -0.29510342085E+02 -0.89887724244E+01 -0.45448744090E+03  0.45554337366E+03  0.30451652094E+01 0.  0.
         13    1    3    3    0    0 -0.25574338645E+02 -0.66740777537E+01 -0.38928851092E+03  0.39018474451E+03  0.00000000000E+00 0.  1.
          1    1    3    3  501    0 -0.39360034394E+01 -0.23146946708E+01 -0.65198929978E+02  0.65358629153E+02  0.00000000000E+00 0.  1.
         -3    1    1    2    0  502  0.29510342085E+02  0.89887724244E+01 -0.54454803987E+03  0.54542114558E+03  0.00000000000E+00 0. -1.
<mgrwt>
<rscale>  1 0.30000000E+03</rscale>
<asrwt>0</asrwt>
<pdfrwt beam="1">  1       21 0.35073501E-02 0.30000000E+03</pdfrwt>
<pdfrwt beam="2">0</pdfrwt>
<totfact> 0.52432289E+04</totfact>
</mgrwt>
</event>
<event>
 6    1  0.1274196E-001  0.3000000E+03  0.7818608E-02  0.1093470E+00
         21   -1    0    0  501  502  0.00000000000E+00  0.00000000000E+00  0.33433144861E+01  0.33433144861E+01  0.00000000000E+00 0. -1.
         13   -1    0    0    0    0 -0.00000000000E+00 -0.00000000000E+00 -0.10000000000E+04  0.10000000000E+04  0.00000000000E+00 0.  1.
    9000005    2    1    2  501    0 -0.46023406679E+02 -0.31790766264E+02 -0.62401722688E+03  0.62652907257E+03  0.35174631003E+01 0.  0.
         13    1    3    3    0    0 -0.18201332834E+02 -0.10716648803E+02 -0.24378840785E+03  0.24470170184E+03  0.00000000000E+00 0.  1.
          3    1    3    3  501    0 -0.27822073845E+02 -0.21074117461E+02 -0.38022881902E+03  0.38182737073E+03  0.00000000000E+00 0.  1.
         -1    1    1    2    0  502  0.46023406679E+02  0.31790766264E+02 -0.37263945864E+03  0.37681424192E+03  0.00000000000E+00 0. -1.
<mgrwt>
<rscale>  1 0.30000000E+03</rscale>
<asrwt>0</asrwt>
<pdfrwt beam="1">  1       21 0.12157533E-01 0.30000000E+03</pdfrwt>
<pdfrwt beam="2">0</pdfrwt>
<totfact> 0.60520412E+03</totfact>
</mgrwt>
</event>
<event>
 6    1  0.1274196E-001  0.3000000E+03  0.7818608E-02  0.1093470E+00
         21   -1    0    0  501  502  0.00000000000E+00  0.00000000000E+00  0.13873752428E+01  0.13873752428E+01  0.00000000000E+00 0. -1.
         13   -1    0    0    0    0 -0.00000000000E+00 -0.00000000000E+00 -0.10000000000E+04  0.10000000000E+04  0.00000000000E+00 0.  1.
    9000005    2    1    2  501    0 -0.10783131758E+02 -0.35435880192E+02 -0.46371469363E+03  0.46520851119E+03  0.39578096726E+01 0.  0.
         13    1    3    3    0    0 -0.26119395850E+01 -0.46556908767E+01 -0.57406437141E+02  0.57654112699E+02  0.00000000000E+00 0.  1.
          3    1    3    3  501    0 -0.81711921725E+01 -0.30780189315E+02 -0.40630825649E+03  0.40755439849E+03  0.00000000000E+00 0.  1.
         -1    1    1    2    0  502  0.10783131758E+02  0.35435880192E+02 -0.53489793113E+03  0.53617886406E+03  0.00000000000E+00 0. -1.
<mgrwt>
<rscale>  1 0.30000000E+03</rscale>
<asrwt>0</asrwt>
<pdfrwt beam="1">  1       21 0.50450115E-02 0.30000000E+03</pdfrwt>
<pdfrwt beam="2">0</pdfrwt>
<totfact> 0.28367832E+04</totfact>
</mgrwt>
</event>
<event>
 6    1  0.1274196E-001  0.3000000E+03  0.7818608E-02  0.1093470E+00
         21   -1    0    0  501  502  0.00000000000E+00  0.00000000000E+00  0.68578621941E+01  0.68578621941E+01  0.00000000000E+00 0. -1.
         13   -1    0    0    0    0 -0.00000000000E+00 -0.00000000000E+00 -0.10000000000E+04  0.10000000000E+04  0.00000000000E+00 0.  1.
    9000005    2    1    2  501    0  0.81349975563E+02 -0.43185242051E+01 -0.58610958572E+03  0.59175309635E+03  0.32882187304E+01 0.  0.
         13    1    3    3    0    0  0.48693095398E+02 -0.11705987874E+01 -0.35583894347E+03  0.35915698731E+03  0.00000000000E+00 0.  1.
          1    1    3    3  501    0  0.32656880164E+02 -0.31479254177E+01 -0.23027064225E+03  0.23259610904E+03  0.00000000000E+00 0.  1.
         -3    1    1    2    0  502 -0.81349975563E+02  0.43185242051E+01 -0.40703255208E+03  0.41510476585E+03  0.00000000000E+00 0. -1.
<mgrwt>
<rscale>  1 0.30000000E+03</rscale>
<asrwt>0</asrwt>
<pdfrwt beam="1">  1       21 0.24937733E-01 0.30000000E+03</pdfrwt>
<pdfrwt beam="2">0</pdfrwt>
<totfact> 0.15672274E+03</totfact>
</mgrwt>
</event>
<event>
 6    1  0.1274196E-001  0.3000000E+03  0.7818608E-02  0.1093470E+00
         21   -1    0    0  501  502  0.00000000000E+00  0.00000000000E+00  0.26083183656E+01  0.26083183656E+01  0.00000000000E+00 0. -1.
         13   -1    0    0    0    0 -0.00000000000E+00 -0.00000000000E+00 -0.10000000000E+04  0.10000000000E+04  0.00000000000E+00 0.  1.
    9000005    2    1    2  501    0  0.32653158536E+01  0.43619599602E+02 -0.75694275793E+03  0.75821311247E+03  0.33842831647E+01 0.  0.
         13    1    3    3    0    0  0.27753036508E+01  0.15413204629E+02 -0.27218941438E+03  0.27263959083E+03  0.00000000000E+00 0.  1.
          1    1    3    3  501    0  0.49001220277E+00  0.28206394973E+02 -0.48475334355E+03  0.48557352163E+03  0.00000000000E+00 0.  1.
         -1    1    1    2    0  502 -0.32653158536E+01 -0.43619599602E+02 -0.24044892370E+03  0.24439520590E+03  0.00000000000E+00 0. -1.
<mgrwt>
<rscale>  1 0.30000000E+03</rscale>
<asrwt>0</asrwt>
<pdfrwt beam="1">  1       21 0.94848141E-02 0.30000000E+03</pdfrwt>
<pdfrwt beam="2">0</pdfrwt>
<totfact> 0.94546271E+03</totfact>
</mgrwt>
</event>
<event>
 6    1  0.1274196E-001  0.3000000E+03  0.7818608E-02  0.1093470E+00
         21   -1    0    0  501  502  0.00000000000E+00  0.00000000000E+00  0.20166637621E+01  0.20166637621E+01  0.00000000000E+00 0. -1.
         13   -1    0    0    0    0 -0.00000000000E+00 -0.00000000000E+00 -0.10000000000E+04  0.10000000000E+04  0.00000000000E+00 0.  1.
    9000005    2    1    2  501    0 -0.10873131840E+02 -0.43441672831E+02 -0.51011200823E+03  0.51209438765E+03  0.45822475182E+01 0.  0.
         13    1    3    3    0    0 -0.10463062837E+02 -0.36849525791E+02 -0.44663625894E+03  0.44827593180E+03  0.00000000000E+00 0.  1.
          1    1    3    3  501    0 -0.41006900288E+00 -0.65921470395E+01 -0.63475749288E+02  0.63818455849E+02  0.00000000000E+00 0.  1.
         -3    1    1    2    0  502  0.10873131840E+02  0.43441672831E+02 -0.48787132801E+03  0.48992227611E+03  0.00000000000E+00 0. -1.
<mgrwt>
<rscale>  1 0.30000000E+03</rscale>
<asrwt>0</asrwt>
<pdfrwt beam="1">  1       21 0.73333382E-02 0.30000000E+03</pdfrwt>
<pdfrwt beam="2">0</pdfrwt>
<totfact> 0.14878017E+04</totfact>
</mgrwt>
</event>
<event>
 6    1  0.1274196E-001  0.3000000E+03  0.7818608E-02  0.1093470E+00
         21   -1    0    0  501  502  0.00000000000E+00  0.00000000000E+00  0.41282959575E+01  0.41282959575E+01  0.00000000000E+00 0. -1.
         13   -1    0    0    0    0 -0.00000000000E+00 -0.00000000000E+00 -0.10000000000E+04  0.10000000000E+04  0.00000000000E+00 0.  1.
    9000005    2    1    2  501    0 -0.35444546113E+01 -0.64037228283E+02 -0.47819404576E+03  0.48249289872E+03  0.40647449886E+01 0.  0.
         13    1    3    3    0    0 -0.12161593142E+01 -0.48686978359E+02 -0.36937092236E+03  0.37256781825E+03  0.00000000000E+00 0.  1.
          1    1    3    3  501    0 -0.23282952971E+01 -0.15350249924E+02 -0.10882312340E+03  0.10992508048E+03  0.00000000000E+00 0.  1.
         -3    1    1    2    0  502  0.35444546113E+01  0.64037228283E+02 -0.51767765828E+03  0.52163539723E+03  0.00000000000E+00 0. -1.
<mgrwt>
<rscale>  1 0.30000000E+03</rscale>
<asrwt>0</asrwt>
<pdfrwt beam="1">  1       21 0.15012017E-01 0.30000000E+03</pdfrwt>
<pdfrwt beam="2">0</pdfrwt>
<totfact> 0.41119365E+03</totfact>
</mgrwt>
</event>
<event>
 6    1  0.1274196E-001  0.3000000E+03  0.7818608E-02  0.1093470E+00
         21   -1    0    0  501  502  0.00000000000E+00  0.00000000000E+00  0.15510313258E+01  0.15510313258E+01  0.00000000000E+00 0. -1.
         13   -1    0    0    0    0 -0.00000000000E+00 -0.00000000000E+00 -0.10000000000E+04  0.10000000000E+04  0.00000000000E+00 0.  1.
    9000005    2    1    2  501    0  0.27577179380E+02  0.22043333421E+02 -0.72006844903E+03  0.72094076229E+03  0.32560823075E+01 0.  0.
         13    1    3    3    0    0  0.13271779497E+01  0.82418519974E+00 -0.47740998414E+02  0.47766553279E+02  0.00000000000E+00 0.  1.
          1    1    3    3  501    0  0.26250001431E+02  0.21219148222E+02 -0.67232745062E+03  0.67317420901E+03  0.00000000000E+00 0.  1.
         -3    1    1    2    0  502 -0.27577179380E+02 -0.22043333421E+02 -0.27838051964E+03  0.28061026903E+03  0.00000000000E+00 0. -1.
<mgrwt>
<rscale>  1 0.30000000E+03</rscale>
<asrwt>0</asrwt>
<pdfrwt beam="1">  1       21 0.56401258E-02 0.30000000E+03</pdfrwt>
<pdfrwt beam="2">0</pdfrwt>
<totfact> 0.23439854E+04</totfact>
</mgrwt>
</event>
<event>
 6    1  0.1274196E-001  0.3000000E+03  0.7818608E-02  0.1093470E+00
         21   -1    0    0  501  502  0.00000000000E+00  0.00000000000E+00  0.10564675393E+01  0.10564675393E+01  0.00000000000E+00 0. -1.
         13   -1    0    0    0    0 -0.00000000000E+00 -0.00000000000E+00 -0.10000000000E+04  0.10000000000E+04  0.00000000000E+00 0.  1.
    9000005    2    1    2  501    0 -0.30080518386E+02 -0.78566282915E+01 -0.64182138745E+03  0.64258360852E+03  0.35265222643E+01 0.  0.
         13    1    3    3    0    0 -0.26724660737E+02 -0.65506531683E+01 -0.54313421066E+03  0.54383075431E+03  0.00000000000E+00 0.  1.
          1    1    3    3  501    0 -0.33558576492E+01 -0.13059751232E+01 -0.98687176790E+02  0.98752854209E+02  0.00000000000E+00 0.  1.
         -3    1    1    2    0  502  0.30080518386E+02  0.78566282915E+01 -0.35712214502E+03  0.35847285902E+03  0.00000000000E+00 0. -1.
<mgrwt>
<rscale>  1 0.30000000E+03</rscale>
<asrwt>0</asrwt>
<pdfrwt beam="1">  1       21 0.38417082E-02 0.30000000E+03</pdfrwt>
<pdfrwt beam="2">0</pdfrwt>
<totfact> 0.45002903E+04</totfact>
</mgrwt>
</event>
<event>
 6    1  0.1274196E-001  0.3000000E+03  0.7818608E-02  0.1093470E+00
         21   -1    0    0  501  502  0.00000000000E+00  0.00000000000E+00  0.12702281266E+01  0.12702281266E+01  0.00000000000E+00 0. -1.
         13   -1    0    0    0    0 -0.00000000000E+00 -0.00000000000E+00 -0.10000000000E+04  0.10000000000E+04  0.00000000000E+00 0.  1.
    9000005    2    1    2  501    0  0.32730795903E+02  0.46965480841E+01 -0.67400282288E+03  0.67486410997E+03  0.82703759095E+01 0.  0.
         13    1    3    3    0    0  0.31049841874E+02  0.23061312056E+01 -0.60819631469E+03  0.60899274882E+03  0.00000000000E+00 0.  1.
          1    1    3    3  501    0  0.16809540289E+01  0.23904168785E+01 -0.65806508192E+02  0.65871361150E+02  0.00000000000E+00 0.  1.
         -1    1    1    2    0  502 -0.32730795903E+02 -0.46965480841E+01 -0.32472694899E+03  0.32640611815E+03  0.00000000000E+00 0. -1.
<mgrwt>
<rscale>  1 0.30000000E+03</rscale>
<asrwt>0</asrwt>
<pdfrwt beam="1">  1       21 0.46190211E-02 0.30000000E+03</pdfrwt>
<pdfrwt beam="2">0</pdfrwt>
<totfact> 0.32963854E+04</totfact>
</mgrwt>
</event>
<event>
 6    1  0.1274196E-001  0.3000000E+03  0.7818608E-02  0.1093470E+00
         21   -1    0    0  501  502  0.00000000000E+00  0.00000000000E+00  0.20089123580E+01  0.20089123580E+01  0.00000000000E+00 0. -1.
         13   -1    0    0    0    0 -0.00000000000E+00 -0.00000000000E+00 -0.10000000000E+04  0.10000000000E+04  0.00000000000E+00 0.  1.
    9000005    2    1    2  501    0 -0.23492688540E+02  0.37239181810E+02 -0.58960578917E+03  0.59125690069E+03  0.33275998352E+01 0.  0.
         13    1    3    3    0    0 -0.12531242868E+02  0.22049820485E+02 -0.32347742280E+03  0.32447013682E+03  0.00000000000E+00 0.  1.
          3    1    3    3  501    0 -0.10961445672E+02  0.15189361325E+02 -0.26612836637E+03  0.26678676387E+03  0.00000000000E+00 0.  1.
         -3    1    1    2    0  502  0.23492688540E+02 -0.37239181810E+02 -0.40838529848E+03  0.41075201167E+03  0.00000000000E+00 0. -1.
<mgrwt>
<rscale>  1 0.30000000E+03</rscale>
<asrwt>0</asrwt>
<pdfrwt beam="1">  1       21 0.73051513E-02 0.30000000E+03</pdfrwt>
<pdfrwt beam="2">0</pdfrwt>
<totfact> 0.14978464E+04</totfact>
</mgrwt>
</event>
<event>
 6    1  0.1274196E-001  0.3000000E+03  0.7818608E-02  0.1093470E+00
         21   -1    0    0  501  502  0.00000000000E+00  0.00000000000E+00  0.14669386188E+01  0.14669386188E+01  0.00000000000E+00 0. -1.
         13   -1    0    0    0    0 -0.00000000000E+00 -0.00000000000E+00 -0.10000000000E+04  0.10000000000E+04  0.00000000000E+00 0.  1.
    9000005    2    1    2  501    0 -0.32457522209E+02 -0.18626719546E+02 -0.56073784749E+03  0.56207520595E+03  0.10057738835E+02 0.  0.
         13    1    3    3    0    0 -0.94145294041E+01 -0.10806708538E+02 -0.22606885796E+03  0.22652272922E+03  0.00000000000E+00 0.  1.
          1    1    3    3  501    0 -0.23042992805E+02 -0.78200110078E+01 -0.33466898952E+03  0.33555247673E+03  0.00000000000E+00 0.  1.
         -1    1    1    2    0  502  0.32457522209E+02  0.18626719546E+02 -0.43779521389E+03  0.43939173267E+03  0.00000000000E+00 0. -1.
<mgrwt>
<rscale>  1 0.30000000E+03</rscale>
<asrwt>0</asrwt>
<pdfrwt beam="1">  1       21 0.53343335E-02 0.30000000E+03</pdfrwt>
<pdfrwt beam="2">0</pdfrwt>
<totfact> 0.25790403E+04</totfact>
</mgrwt>
</event>
<event>
 6    1  0.1274196E-001  0.3000000E+03  0.7818608E-02  0.1093470E+00
         21   -1    0    0  501  502  0.00000000000E+00  0.00000000000E+00  0.12101515785E+01  0.12101515785E+01  0.00000000000E+00 0. -1.
         13   -1    0    0    0    0 -0.00000000000E+00 -0.00000000000E+00 -0.10000000000E+04  0.10000000000E+04  0.00000000000E+00 0.  1.
    9000005    2    1    2  501    0  0.49386774887E+01  0.30023278835E+02 -0.74004134954E+03  0.74067882241E+03  0.42580656714E+01 0.  0.
         13    1    3    3    0    0  0.34117155399E+01  0.14988998564E+02 -0.41926391166E+03  0.41954563220E+03  0.00000000000E+00 0.  1.
          3    1    3    3  501    0  0.15269619488E+01  0.15034280271E+02 -0.32077743788E+03  0.32113319021E+03  0.00000000000E+00 0.  1.
         -1    1    1    2    0  502 -0.49386774887E+01 -0.30023278835E+02 -0.25874849888E+03  0.26053132917E+03  0.00000000000E+00 0. -1.
<mgrwt>
<rscale>  1 0.30000000E+03</rscale>
<asrwt>0</asrwt>
<pdfrwt beam="1">  1       21 0.44005605E-02 0.30000000E+03</pdfrwt>
<pdfrwt beam="2">0</pdfrwt>
<totfact> 0.35788682E+04</totfact>
</mgrwt>
</event>
<event>
 6    1  0.1274196E-001  0.3000000E+03  0.7818608E-02  0.1093470E+00
         21   -1    0    0  501  502  0.00000000000E+00  0.00000000000E+00  0.24442613370E+01  0.24442613370E+01  0.00000000000E+00 0. -1.
         13   -1    0    0    0    0 -0.00000000000E+00 -0.00000000000E+00 -0.10000000000E+04  0.10000000000E+04  0.00000000000E+00 0.  1.
    9000005    2    1    2  501    0  0.29668004016E+01  0.35690224345E+02 -0.84335787743E+03  0.84414209955E+03  0.63859836233E+01 0.  0.
         13    1    3    3    0    0 -0.18141394965E+01  0.64707318077E+01 -0.17392427873E+03  0.17405406115E+03  0.00000000000E+00 0.  1.
          1    1    3    3  501    0  0.47809398981E+01  0.29219492537E+02 -0.66943359870E+03  0.67008803839E+03  0.00000000000E+00 0.  1.
         -1    1    1    2    0  502 -0.29668004016E+01 -0.35690224345E+02 -0.15419786124E+03  0.15830216179E+03  0.00000000000E+00 0. -1.
<mgrwt>
<rscale>  1 0.30000000E+03</rscale>
<asrwt>0</asrwt>
<pdfrwt beam="1">  1       21 0.88882418E-02 0.30000000E+03</pdfrwt>
<pdfrwt beam="2">0</pdfrwt>
<totfact> 0.10610264E+04</totfact>
</mgrwt>
</event>
<event>
 6    1  0.1274196E-001  0.3000000E+03  0.7818608E-02  0.1093470E+00
         21   -1    0    0  501  502  0.00000000000E+00  0.00000000000E+00  0.19775684677E+01  0.19775684677E+01  0.00000000000E+00 0. -1.
         13   -1    0    0    0    0 -0.00000000000E+00 -0.00000000000E+00 -0.10000000000E+04  0.10000000000E+04  0.00000000000E+00 0.  1.
    9000005    2    1    2  501    0  0.42277540445E+02  0.13439603361E+02 -0.47780592007E+03  0.47987295044E+03  0.33967555737E+01 0.  0.
         13    1    3    3    0    0  0.29710425565E+01  0.10828865495E+01 -0.44614779363E+02  0.44726706504E+02  0.00000000000E+00 0.  1.
          1    1    3    3  501    0  0.39306497888E+02  0.12356716811E+02 -0.43319114071E+03  0.43514624394E+03  0.00000000000E+00 0.  1.
         -3    1    1    2    0  502 -0.42277540445E+02 -0.13439603361E+02 -0.52021651146E+03  0.52210461802E+03  0.00000000000E+00 0. -1.
<mgrwt>
<rscale>  1 0.30000000E+03</rscale>
<asrwt>0</asrwt>
<pdfrwt beam="1">  1       21 0.71911732E-02 0.30000000E+03</pdfrwt>
<pdfrwt beam="2">0</pdfrwt>
<totfact> 0.15395323E+04</totfact>
</mgrwt>
</event>
<event>
 6    1  0.1274196E-001  0.3000000E+03  0.7818608E-02  0.1093470E+00
         21   -1    0    0  501  502  0.00000000000E+00  0.00000000000E+00  0.97364184409E+00  0.97364184409E+00  0.00000000000E+00 0. -1.
         13   -1    0    0    0    0 -0.00000000000E+00 -0.00000000000E+00 -0.10000000000E+04  0.10000000000E+04  0.00000000000E+00 0.  1.
    9000005    2    1    2  501    0  0.63202842413E+01 -0.30249438571E+02 -0.44080172506E+03  0.44189429549E+03  0.30713258338E+01 0.  0.
         13    1    3    3    0    0  0.53640618945E+00 -0.50726293667E+01 -0.59310650182E+02  0.59529593693E+02  0.00000000000E+00 0.  1.
          1    1    3    3  501    0  0.57838780519E+01 -0.25176809204E+02 -0.38149107488E+03  0.38236470180E+03  0.00000000000E+00 0.  1.
         -1    1    1    2    0  502 -0.63202842413E+01  0.30249438571E+02 -0.55822463309E+03  0.55907934635E+03  0.00000000000E+00 0. -1.
<mgrwt>
<rscale>  1 0.30000000E+03</rscale>
<asrwt>0</asrwt>
<pdfrwt beam="1">  1       21 0.35405233E-02 0.30000000E+03</pdfrwt>
<pdfrwt beam="2">0</pdfrwt>
<totfact> 0.51611869E+04</totfact>
</mgrwt>
</event>
<event>
 6    1  0.1274196E-001  0.3000000E+03  0.7818608E-02  0.1093470E+00
         21   -1    0    0  501  502  0.00000000000E+00  0.00000000000E+00  0.12067802339E+01  0.12067802339E+01  0.00000000000E+00 0. -1.
         13   -1    0    0    0    0 -0.00000000000E+00 -0.00000000000E+00 -0.10000000000E+04  0.10000000000E+04  0.00000000000E+00 0.  1.
    9000005    2    1    2  501    0  0.30992915858E+02 -0.45866454783E+01 -0.71344065354E+03  0.71413939232E+03  0.39884074579E+01 0.  0.
         13    1    3    3    0    0  0.10381157725E+02 -0.27788292154E+01 -0.21239749604E+03  0.21266919536E+03  0.00000000000E+00 0.  1.
          3    1    3    3  501    0  0.20611758133E+02 -0.18078162629E+01 -0.50104315749E+03  0.50147019697E+03  0.00000000000E+00 0.  1.
         -3    1    1    2    0  502 -0.30992915858E+02  0.45866454783E+01 -0.28535256623E+03  0.28706738791E+03  0.00000000000E+00 0. -1.
<mgrwt>
<rscale>  1 0.30000000E+03</rscale>
<asrwt>0</asrwt>
<pdfrwt beam="1">  1       21 0.43883010E-02 0.30000000E+03</pdfrwt>
<pdfrwt beam="2">0</pdfrwt>
<totfact> 0.35958195E+04</totfact>
</mgrwt>
</event>
<event>
 6    1  0.1274196E-001  0.3000000E+03  0.7818608E-02  0.1093470E+00
         21   -1    0    0  501  502  0.00000000000E+00  0.00000000000E+00  0.15136821331E+01  0.15136821331E+01  0.00000000000E+00 0. -1.
         13   -1    0    0    0    0 -0.00000000000E+00 -0.00000000000E+00 -0.10000000000E+04  0.10000000000E+04  0.00000000000E+00 0.  1.
    9000005    2    1    2  501    0 -0.32725824885E+02 -0.38236929977E+00 -0.23125002980E+03  0.23357966964E+03  0.34292805190E+01 0.  0.
         13    1    3    3    0    0 -0.29439621504E+02 -0.12136408187E+01 -0.20305849460E+03  0.20518507857E+03  0.00000000000E+00 0.  1.
          3    1    3    3  501    0 -0.32862033806E+01  0.83127151892E+00 -0.28191535204E+02  0.28394591072E+02  0.00000000000E+00 0.  1.
         -1    1    1    2    0  502  0.32725824885E+02  0.38236929977E+00 -0.76723628807E+03  0.76793401250E+03  0.00000000000E+00 0. -1.
<mgrwt>
<rscale>  1 0.30000000E+03</rscale>
<asrwt>0</asrwt>
<pdfrwt beam="1">  1       21 0.55043103E-02 0.30000000E+03</pdfrwt>
<pdfrwt beam="2">0</pdfrwt>
<totfact> 0.24441296E+04</totfact>
</mgrwt>
</event>
<event>
 6    1  0.1274196E-001  0.3000000E+03  0.7818608E-02  0.1093470E+00
         21   -1    0    0  501  502  0.00000000000E+00  0.00000000000E+00  0.23574145761E+01  0.23574145761E+01  0.00000000000E+00 0. -1.
         13   -1    0    0    0    0 -0.00000000000E+00 -0.00000000000E+00 -0.10000000000E+04  0.10000000000E+04  0.00000000000E+00 0.  1.
    9000005    2    1    2  501    0  0.26156951047E+02  0.19571875446E+02 -0.86929815563E+03  0.86992049731E+03  0.38915108732E+01 0.  0.
         13    1    3    3    0    0  0.97202787283E+01  0.51371798976E+01 -0.27345329483E+03  0.27367422035E+03  0.00000000000E+00 0.  1.
          3    1    3    3  501    0  0.16436672319E+02  0.14434695549E+02 -0.59584486080E+03  0.59624627695E+03  0.00000000000E+00 0.  1.
         -3    1    1    2    0  502 -0.26156951047E+02 -0.19571875446E+02 -0.12834442979E+03  0.13243691727E+03  0.00000000000E+00 0. -1.
<mgrwt>
<rscale>  1 0.30000000E+03</rscale>
<asrwt>0</asrwt>
<pdfrwt beam="1">  1       21 0.85724347E-02 0.30000000E+03</pdfrwt>
<pdfrwt beam="2">0</pdfrwt>
<totfact> 0.11310690E+04</totfact>
</mgrwt>
</event>
<event>
 6    1  0.1274196E-001  0.3000000E+03  0.7818608E-02  0.1093470E+00
         21   -1    0    0  501  502  0.00000000000E+00  0.00000000000E+00  0.16031269278E+01  0.16031269278E+01  0.00000000000E+00 0. -1.
         13   -1    0    0    0    0 -0.00000000000E+00 -0.00000000000E+00 -0.10000000000E+04  0.10000000000E+04  0.00000000000E+00 0.  1.
    9000005    2    1    2  501    0 -0.17828602483E+02  0.27747138498E+02 -0.78217077886E+03  0.78287615881E+03  0.40236771931E+01 0.  0.
         13    1    3    3    0    0 -0.53341985719E+01  0.95632999126E+01 -0.21944660863E+03  0.21971964960E+03  0.00000000000E+00 0.  1.
          1    1    3    3  501    0 -0.12494403911E+02  0.18183838586E+02 -0.56272417023E+03  0.56315650922E+03  0.00000000000E+00 0.  1.
         -3    1    1    2    0  502  0.17828602483E+02 -0.27747138498E+02 -0.21622609422E+03  0.21872696812E+03  0.00000000000E+00 0. -1.
<mgrwt>
<rscale>  1 0.30000000E+03</rscale>
<asrwt>0</asrwt>
<pdfrwt beam="1">  1       21 0.58295648E-02 0.30000000E+03</pdfrwt>
<pdfrwt beam="2">0</pdfrwt>
<totfact> 0.22144775E+04</totfact>
</mgrwt>
</event>
<event>
 6    1  0.1274196E-001  0.3000000E+03  0.7818608E-02  0.1093470E+00
         21   -1    0    0  501  502  0.00000000000E+00  0.00000000000E+00  0.20115725391E+01  0.20115725391E+01  0.00000000000E+00 0. -1.
         13   -1    0    0    0    0 -0.00000000000E+00 -0.00000000000E+00 -0.10000000000E+04  0.10000000000E+04  0.00000000000E+00 0.  1.
    9000005    2    1    2  501    0 -0.17031761597E+01 -0.44316678811E+02 -0.57005827007E+03  0.57178943407E+03  0.31395543815E+01 0.  0.
         13    1    3    3    0    0 -0.10081725357E+01 -0.17956836695E+02 -0.21200951549E+03  0.21277100145E+03  0.00000000000E+00 0.  1.
          1    1    3    3  501    0 -0.69500362393E+00 -0.26359842115E+02 -0.35804875458E+03  0.35901843262E+03  0.00000000000E+00 0.  1.
         -1    1    1    2    0  502  0.17031761597E+01  0.44316678811E+02 -0.42793015739E+03  0.43022213847E+03  0.00000000000E+00 0. -1.
<mgrwt>
<rscale>  1 0.30000000E+03</rscale>
<asrwt>0</asrwt>
<pdfrwt beam="1">  1       21 0.73148247E-02 0.30000000E+03</pdfrwt>
<pdfrwt beam="2">0</pdfrwt>
<totfact> 0.14943876E+04</totfact>
</mgrwt>
</event>
<event>
 6    1  0.1274196E-001  0.3000000E+03  0.7818608E-02  0.1093470E+00
         21   -1    0    0  501  502  0.00000000000E+00  0.00000000000E+00  0.25706790840E+01  0.25706790840E+01  0.00000000000E+00 0. -1.
         13   -1    0    0    0    0 -0.00000000000E+00 -0.00000000000E+00 -0.10000000000E+04  0.10000000000E+04  0.00000000000E+00 0.  1.
    9000005    2    1    2  501    0 -0.89400800026E+01 -0.43600920467E+02 -0.73833293311E+03  0.73967925003E+03  0.29845458503E+01 0.  0.
         13    1    3    3    0    0 -0.13563082593E+01 -0.28911785358E+01 -0.50251798551E+02  0.50353170139E+02  0.00000000000E+00 0.  1.
          1    1    3    3  501    0 -0.75837717432E+01 -0.40709741932E+02 -0.68808113456E+03  0.68932607989E+03  0.00000000000E+00 0.  1.
         -3    1    1    2    0  502  0.89400800026E+01  0.43600920467E+02 -0.25909638781E+03  0.26289142906E+03  0.00000000000E+00 0. -1.
<mgrwt>
<rscale>  1 0.30000000E+03</rscale>
<asrwt>0</asrwt>
<pdfrwt beam="1">  1       21 0.93479437E-02 0.30000000E+03</pdfrwt>
<pdfrwt beam="2">0</pdfrwt>
<totfact> 0.97023916E+03</totfact>
</mgrwt>
</event>
<event>
 6    1  0.1274196E-001  0.3000000E+03  0.7818608E-02  0.1093470E+00
         21   -1    0    0  501  502  0.00000000000E+00  0.00000000000E+00  0.46695062548E+01  0.46695062548E+01  0.00000000000E+00 0. -1.
         13   -1    0    0    0    0 -0.00000000000E+00 -0.00000000000E+00 -0.10000000000E+04  0.10000000000E+04  0.00000000000E+00 0.  1.
    9000005    2    1    2  501    0 -0.18469393088E+02 -0.55075169187E+02 -0.76198322329E+03  0.76420050333E+03  0.30957974245E+01 0.  0.
         13    1    3    3    0    0 -0.77436096820E+01 -0.22366456518E+02 -0.29090720410E+03  0.29186850338E+03  0.00000000000E+00 0.  1.
          1    1    3    3  501    0 -0.10725783406E+02 -0.32708712670E+02 -0.47107601919E+03  0.47233199995E+03  0.00000000000E+00 0.  1.
         -3    1    1    2    0  502  0.18469393088E+02  0.55075169187E+02 -0.23334727045E+03  0.24046900293E+03  0.00000000000E+00 0. -1.
<mgrwt>
<rscale>  1 0.30000000E+03</rscale>
<asrwt>0</asrwt>
<pdfrwt beam="1">  1       21 0.16980059E-01 0.30000000E+03</pdfrwt>
<pdfrwt beam="2">0</pdfrwt>
<totfact> 0.32686983E+03</totfact>
</mgrwt>
</event>
<event>
 6    1  0.1274196E-001  0.3000000E+03  0.7818608E-02  0.1093470E+00
         21   -1    0    0  501  502  0.00000000000E+00  0.00000000000E+00  0.47764639428E+01  0.47764639428E+01  0.00000000000E+00 0. -1.
         13   -1    0    0    0    0 -0.00000000000E+00 -0.00000000000E+00 -0.10000000000E+04  0.10000000000E+04  0.00000000000E+00 0.  1.
    9000005    2    1    2  501    0  0.10863010237E+02 -0.63297771868E+02 -0.31901378983E+03  0.32552376148E+03  0.84444223816E+01 0.  0.
         13    1    3    3    0    0  0.86835962052E+01 -0.48957135912E+02 -0.26324219834E+03  0.26789673568E+03  0.00000000000E+00 0.  1.
          3    1    3    3  501    0  0.21794140315E+01 -0.14340635956E+02 -0.55771591496E+02  0.57627025805E+02  0.00000000000E+00 0.  1.
         -3    1    1    2    0  502 -0.10863010237E+02  0.63297771868E+02 -0.67620974622E+03  0.67925270246E+03  0.00000000000E+00 0. -1.
<mgrwt>
<rscale>  1 0.30000000E+03</rscale>
<asrwt>0</asrwt>
<pdfrwt beam="1">  1       21 0.17368996E-01 0.30000000E+03</pdfrwt>
<pdfrwt beam="2">0</pdfrwt>
<totfact> 0.31328269E+03</totfact>
</mgrwt>
</event>
<event>
 6    1  0.1274196E-001  0.3000000E+03  0.7818608E-02  0.1093470E+00
         21   -1    0    0  501  502  0.00000000000E+00  0.00000000000E+00  0.25837235596E+01  0.25837235596E+01  0.00000000000E+00 0. -1.
         13   -1    0    0    0    0 -0.00000000000E+00 -0.00000000000E+00 -0.10000000000E+04  0.10000000000E+04  0.00000000000E+00 0.  1.
    9000005    2    1    2  501    0  0.12234505570E+02 -0.28866842102E+02 -0.89313233881E+03  0.89368874045E+03  0.33485031297E+01 0.  0.
         13    1    3    3    0    0  0.26299609985E+01 -0.83806462661E+01 -0.21609688013E+03  0.21627531882E+03  0.00000000000E+00 0.  1.
          3    1    3    3  501    0  0.96045445714E+01 -0.20486195836E+02 -0.67703545868E+03  0.67741342163E+03  0.00000000000E+00 0.  1.
         -1    1    1    2    0  502 -0.12234505570E+02  0.28866842102E+02 -0.10428393763E+03  0.10889498311E+03  0.00000000000E+00 0. -1.
<mgrwt>
<rscale>  1 0.30000000E+03</rscale>
<asrwt>0</asrwt>
<pdfrwt beam="1">  1       21 0.93953782E-02 0.30000000E+03</pdfrwt>
<pdfrwt beam="2">0</pdfrwt>
<totfact> 0.96154324E+03</totfact>
</mgrwt>
</event>
<event>
 6    1  0.1274196E-001  0.3000000E+03  0.7818608E-02  0.1093470E+00
         21   -1    0    0  501  502  0.00000000000E+00  0.00000000000E+00  0.76483899240E+01  0.76483899240E+01  0.00000000000E+00 0. -1.
         13   -1    0    0    0    0 -0.00000000000E+00 -0.00000000000E+00 -0.10000000000E+04  0.10000000000E+04  0.00000000000E+00 0.  1.
    9000005    2    1    2  501    0 -0.30710891356E+02 -0.53155610478E+01 -0.96690349821E+03  0.96741133691E+03  0.33024098187E+01 0.  0.
         13    1    3    3    0    0 -0.67095100615E+01 -0.48621824418E-01 -0.18389954118E+03  0.18402190395E+03  0.00000000000E+00 0.  1.
          3    1    3    3  501    0 -0.24001381295E+02 -0.52669392234E+01 -0.78300395703E+03  0.78338943296E+03  0.00000000000E+00 0.  1.
         -1    1    1    2    0  502  0.30710891356E+02  0.53155610478E+01 -0.25448111870E+02  0.40237053010E+02  0.00000000000E+00 0. -1.
<mgrwt>
<rscale>  1 0.30000000E+03</rscale>
<asrwt>0</asrwt>
<pdfrwt beam="1">  1       21 0.27812386E-01 0.30000000E+03</pdfrwt>
<pdfrwt beam="2">0</pdfrwt>
<totfact> 0.12641325E+03</totfact>
</mgrwt>
</event>
<event>
 6    1  0.1274196E-001  0.3000000E+03  0.7818608E-02  0.1093470E+00
         21   -1    0    0  501  502  0.00000000000E+00  0.00000000000E+00  0.13245559483E+01  0.13245559483E+01  0.00000000000E+00 0. -1.
         13   -1    0    0    0    0 -0.00000000000E+00 -0.00000000000E+00 -0.10000000000E+04  0.10000000000E+04  0.00000000000E+00 0.  1.
    9000005    2    1    2  501    0 -0.26251940255E+02 -0.22710600171E+02 -0.35408486184E+03  0.35579999840E+03  0.35515837281E+01 0.  0.
         13    1    3    3    0    0 -0.17178618804E+02 -0.16697763914E+02 -0.23427057031E+03  0.23549229367E+03  0.00000000000E+00 0.  1.
          1    1    3    3  501    0 -0.90733214514E+01 -0.60128362575E+01 -0.11981429153E+03  0.12030770473E+03  0.00000000000E+00 0.  1.
         -3    1    1    2    0  502  0.26251940255E+02  0.22710600171E+02 -0.64459058221E+03  0.64552455755E+03  0.00000000000E+00 0. -1.
<mgrwt>
<rscale>  1 0.30000000E+03</rscale>
<asrwt>0</asrwt>
<pdfrwt beam="1">  1       21 0.48165772E-02 0.30000000E+03</pdfrwt>
<pdfrwt beam="2">0</pdfrwt>
<totfact> 0.30697910E+04</totfact>
</mgrwt>
</event>
<event>
 6    1  0.1274196E-001  0.3000000E+03  0.7818608E-02  0.1093470E+00
         21   -1    0    0  501  502  0.00000000000E+00  0.00000000000E+00  0.70388237511E+01  0.70388237511E+01  0.00000000000E+00 0. -1.
         13   -1    0    0    0    0 -0.00000000000E+00 -0.00000000000E+00 -0.10000000000E+04  0.10000000000E+04  0.00000000000E+00 0.  1.
    9000005    2    1    2  501    0  0.41694697813E+02  0.89750845746E+01 -0.93004938730E+03  0.93103294794E+03  0.33893018678E+01 0.  0.
         13    1    3    3    0    0  0.23317715413E+02  0.51154474188E+01 -0.55677974835E+03  0.55729128096E+03  0.00000000000E+00 0.  1.
          1    1    3    3  501    0  0.18376982400E+02  0.38596371557E+01 -0.37326963895E+03  0.37374166698E+03  0.00000000000E+00 0.  1.
         -1    1    1    2    0  502 -0.41694697813E+02 -0.89750845746E+01 -0.62911788951E+02  0.76005875811E+02  0.00000000000E+00 0. -1.
<mgrwt>
<rscale>  1 0.30000000E+03</rscale>
<asrwt>0</asrwt>
<pdfrwt beam="1">  1       21 0.25595777E-01 0.30000000E+03</pdfrwt>
<pdfrwt beam="2">0</pdfrwt>
<totfact> 0.14892065E+03</totfact>
</mgrwt>
</event>
<event>
 6    1  0.1274196E-001  0.3000000E+03  0.7818608E-02  0.1093470E+00
         21   -1    0    0  501  502  0.00000000000E+00  0.00000000000E+00  0.99451562821E+00  0.99451562821E+00  0.00000000000E+00 0. -1.
         13   -1    0    0    0    0 -0.00000000000E+00 -0.00000000000E+00 -0.10000000000E+04  0.10000000000E+04  0.00000000000E+00 0.  1.
    9000005    2    1    2  501    0  0.28760853349E+02  0.12002595369E+02 -0.55457905993E+03  0.55547673178E+03  0.50216389323E+01 0.  0.
         13    1    3    3    0    0  0.28716660208E+02  0.12295134600E+02 -0.55131886588E+03  0.55220314087E+03  0.00000000000E+00 0.  1.
          1    1    3    3  501    0  0.44193141004E-01 -0.29253923046E+00 -0.32601940474E+01  0.32735909124E+01  0.00000000000E+00 0.  1.
         -3    1    1    2    0  502 -0.28760853349E+02 -0.12002595369E+02 -0.44442642445E+03  0.44551778385E+03  0.00000000000E+00 0. -1.
<mgrwt>
<rscale>  1 0.30000000E+03</rscale>
<asrwt>0</asrwt>
<pdfrwt beam="1">  1       21 0.36164281E-02 0.30000000E+03</pdfrwt>
<pdfrwt beam="2">0</pdfrwt>
<totfact> 0.49808534E+04</totfact>
</mgrwt>
</event>
<event>
 6    1  0.1274196E-001  0.3000000E+03  0.7818608E-02  0.1093470E+00
         21   -1    0    0  501  502  0.00000000000E+00  0.00000000000E+00  0.11084735107E+01  0.11084735107E+01  0.00000000000E+00 0. -1.
         13   -1    0    0    0    0 -0.00000000000E+00 -0.00000000000E+00 -0.10000000000E+04  0.10000000000E+04  0.00000000000E+00 0.  1.
    9000005    2    1    2  501    0  0.31587872187E+02  0.62198111459E+01 -0.37915196034E+03  0.38053324876E+03  0.35867344963E+01 0.  0.
         13    1    3    3    0    0  0.58784311808E+00  0.49819129526E+00 -0.54731801199E+01  0.55271561153E+01  0.00000000000E+00 0.  1.
          3    1    3    3  501    0  0.31000029069E+02  0.57216198507E+01 -0.37367878022E+03  0.37500609265E+03  0.00000000000E+00 0.  1.
         -1    1    1    2    0  502 -0.31587872187E+02 -0.62198111459E+01 -0.61973956615E+03  0.62057522475E+03  0.00000000000E+00 0. -1.
<mgrwt>
<rscale>  1 0.30000000E+03</rscale>
<asrwt>0</asrwt>
<pdfrwt beam="1">  1       21 0.40308213E-02 0.30000000E+03</pdfrwt>
<pdfrwt beam="2">0</pdfrwt>
<totfact> 0.41507202E+04</totfact>
</mgrwt>
</event>
<event>
 6    1  0.1274196E-001  0.3000000E+03  0.7818608E-02  0.1093470E+00
         21   -1    0    0  501  502  0.00000000000E+00  0.00000000000E+00  0.42202876967E+01  0.42202876967E+01  0.00000000000E+00 0. -1.
         13   -1    0    0    0    0 -0.00000000000E+00 -0.00000000000E+00 -0.10000000000E+04  0.10000000000E+04  0.00000000000E+00 0.  1.
    9000005    2    1    2  501    0 -0.13662446789E+02 -0.28760942593E+02 -0.93537063804E+03  0.93593331585E+03  0.62519543512E+01 0.  0.
         13    1    3    3    0    0 -0.12525257586E+02 -0.23267077390E+02 -0.82104312699E+03  0.82146823149E+03  0.00000000000E+00 0.  1.
          1    1    3    3  501    0 -0.11371892037E+01 -0.54938652027E+01 -0.11432751105E+03  0.11446508436E+03  0.00000000000E+00 0.  1.
         -1    1    1    2    0  502  0.13662446789E+02  0.28760942593E+02 -0.60409074263E+02  0.68286971850E+02  0.00000000000E+00 0. -1.
<mgrwt>
<rscale>  1 0.30000000E+03</rscale>
<asrwt>0</asrwt>
<pdfrwt beam="1">  1       21 0.15346533E-01 0.30000000E+03</pdfrwt>
<pdfrwt beam="2">0</pdfrwt>
<totfact> 0.39473473E+03</totfact>
</mgrwt>
</event>
<event>
 6    1  0.1274196E-001  0.3000000E+03  0.7818608E-02  0.1093470E+00
         21   -1    0    0  501  502  0.00000000000E+00  0.00000000000E+00  0.40877384396E+01  0.40877384396E+01  0.00000000000E+00 0. -1.
         13   -1    0    0    0    0 -0.00000000000E+00 -0.00000000000E+00 -0.10000000000E+04  0.10000000000E+04  0.00000000000E+00 0.  1.
    9000005    2    1    2  501    0 -0.39487405615E+02  0.17388693544E+02 -0.86831654254E+03  0.86939442243E+03  0.33796209612E+01 0.  0.
         13    1    3    3    0    0 -0.95304576002E-01 -0.13321302909E+00 -0.28579561172E+01  0.28626459511E+01  0.00000000000E+00 0.  1.
          3    1    3    3  501    0 -0.39392101039E+02  0.17521906573E+02 -0.86545858642E+03  0.86653177648E+03  0.00000000000E+00 0.  1.
         -3    1    1    2    0  502  0.39487405615E+02 -0.17388693544E+02 -0.12759571902E+03  0.13469331601E+03  0.00000000000E+00 0. -1.
<mgrwt>
<rscale>  1 0.30000000E+03</rscale>
<asrwt>0</asrwt>
<pdfrwt beam="1">  1       21 0.14864535E-01 0.30000000E+03</pdfrwt>
<pdfrwt beam="2">0</pdfrwt>
<totfact> 0.41877294E+03</totfact>
</mgrwt>
</event>
<event>
 6    1  0.1274196E-001  0.3000000E+03  0.7818608E-02  0.1093470E+00
         21   -1    0    0  501  502  0.00000000000E+00  0.00000000000E+00  0.16854675170E+01  0.16854675170E+01  0.00000000000E+00 0. -1.
         13   -1    0    0    0    0 -0.00000000000E+00 -0.00000000000E+00 -0.10000000000E+04  0.10000000000E+04  0.00000000000E+00 0.  1.
    9000005    2    1    2  501    0 -0.17745683595E+02  0.36826242630E+02 -0.51321794565E+03  0.51486950641E+03  0.51833830821E+01 0.  0.
         13    1    3    3    0    0 -0.99492227646E+01  0.15539766618E+02 -0.21396193622E+03  0.21475609778E+03  0.00000000000E+00 0.  1.
          1    1    3    3  501    0 -0.77964608303E+01  0.21286476012E+02 -0.29925600943E+03  0.30011340864E+03  0.00000000000E+00 0.  1.
         -3    1    1    2    0  502  0.17745683595E+02 -0.36826242630E+02 -0.48509658683E+03  0.48681596110E+03  0.00000000000E+00 0. -1.
<mgrwt>
<rscale>  1 0.30000000E+03</rscale>
<asrwt>0</asrwt>
<pdfrwt beam="1">  1       21 0.61289857E-02 0.30000000E+03</pdfrwt>
<pdfrwt beam="2">0</pdfrwt>
<totfact> 0.20312378E+04</totfact>
</mgrwt>
</event>
<event>
 6    1  0.1274196E-001  0.3000000E+03  0.7818608E-02  0.1093470E+00
         21   -1    0    0  501  502  0.00000000000E+00  0.00000000000E+00  0.11238774649E+02  0.11238774649E+02  0.00000000000E+00 0. -1.
         13   -1    0    0    0    0 -0.00000000000E+00 -0.00000000000E+00 -0.10000000000E+04  0.10000000000E+04  0.00000000000E+00 0.  1.
    9000005    2    1    2  501    0  0.93738457878E+01  0.56169299818E+02 -0.92083426518E+03  0.92259944283E+03  0.33359790241E+01 0.  0.
         13    1    3    3    0    0  0.50586589852E+01  0.35066517202E+02 -0.59528023695E+03  0.59633364081E+03  0.00000000000E+00 0.  1.
          1    1    3    3  501    0  0.43151868025E+01  0.21102782615E+02 -0.32555402824E+03  0.32626580203E+03  0.00000000000E+00 0.  1.
         -1    1    1    2    0  502 -0.93738457878E+01 -0.56169299818E+02 -0.67926960168E+02  0.88639331814E+02  0.00000000000E+00 0. -1.
<mgrwt>
<rscale>  1 0.30000000E+03</rscale>
<asrwt>0</asrwt>
<pdfrwt beam="1">  1       21 0.40868358E-01 0.30000000E+03</pdfrwt>
<pdfrwt beam="2">0</pdfrwt>
<totfact> 0.57747785E+02</totfact>
</mgrwt>
</event>
<event>
 6    1  0.1274196E-001  0.3000000E+03  0.7818608E-02  0.1093470E+00
         21   -1    0    0  501  502  0.00000000000E+00  0.00000000000E+00  0.17339827314E+01  0.17339827314E+01  0.00000000000E+00 0. -1.
         13   -1    0    0    0    0 -0.00000000000E+00 -0.00000000000E+00 -0.10000000000E+04  0.10000000000E+04  0.00000000000E+00 0.  1.
    9000005    2    1    2  501    0 -0.31618267489E+02 -0.13781327133E+02 -0.77927566956E+03  0.78004408173E+03  0.29258258795E+01 0.  0.
         13    1    3    3    0    0 -0.75225327668E+00 -0.41015717777E+00 -0.11487082227E+02  0.11518991796E+02  0.00000000000E+00 0.  1.
          3    1    3    3  501    0 -0.30866014212E+02 -0.13371169956E+02 -0.76778858733E+03  0.76852508993E+03  0.00000000000E+00 0.  1.
         -1    1    1    2    0  502  0.31618267489E+02  0.13781327133E+02 -0.21899034771E+03  0.22168990100E+03  0.00000000000E+00 0. -1.
<mgrwt>
<rscale>  1 0.30000000E+03</rscale>
<asrwt>0</asrwt>
<pdfrwt beam="1">  1       21 0.63054050E-02 0.30000000E+03</pdfrwt>
<pdfrwt beam="2">0</pdfrwt>
<totfact> 0.19340721E+04</totfact>
</mgrwt>
</event>
<event>
 6    1  0.1274196E-001  0.3000000E+03  0.7818608E-02  0.1093470E+00
         21   -1    0    0  501  502  0.00000000000E+00  0.00000000000E+00  0.22067940827E+01  0.22067940827E+01  0.00000000000E+00 0. -1.
         13   -1    0    0    0    0 -0.00000000000E+00 -0.00000000000E+00 -0.10000000000E+04  0.10000000000E+04  0.00000000000E+00 0.  1.
    9000005    2    1    2  501    0  0.36294931434E+02 -0.29324855681E+02 -0.55193808926E+03  0.55391664891E+03  0.32757222671E+01 0.  0.
         13    1    3    3    0    0  0.26951575511E+02 -0.20371646234E+02 -0.41038540468E+03  0.41177368999E+03  0.00000000000E+00 0.  1.
          1    1    3    3  501    0  0.93433559233E+01 -0.89532094471E+01 -0.14155268457E+03  0.14214295892E+03  0.00000000000E+00 0.  1.
         -3    1    1    2    0  502 -0.36294931434E+02  0.29324855681E+02 -0.44585511666E+03  0.44829014517E+03  0.00000000000E+00 0. -1.
<mgrwt>
<rscale>  1 0.30000000E+03</rscale>
<asrwt>0</asrwt>
<pdfrwt beam="1">  1       21 0.80247227E-02 0.30000000E+03</pdfrwt>
<pdfrwt beam="2">0</pdfrwt>
<totfact> 0.12704820E+04</totfact>
</mgrwt>
</event>
<event>
 6    1  0.1274196E-001  0.3000000E+03  0.7818608E-02  0.1093470E+00
         21   -1    0    0  501  502  0.00000000000E+00  0.00000000000E+00  0.93694562664E+01  0.93694562664E+01  0.00000000000E+00 0. -1.
         13   -1    0    0    0    0 -0.00000000000E+00 -0.00000000000E+00 -0.10000000000E+04  0.10000000000E+04  0.00000000000E+00 0.  1.
    9000005    2    1    2  501    0 -0.38926486864E+02  0.20261222846E+02 -0.94513377085E+03  0.94615755174E+03  0.32371884312E+01 0.  0.
         13    1    3    3    0    0 -0.22409414459E+02  0.10917054220E+02 -0.56772636523E+03  0.56827334066E+03  0.00000000000E+00 0.  1.
          3    1    3    3  501    0 -0.16517072405E+02  0.93441686258E+01 -0.37740740562E+03  0.37788421108E+03  0.00000000000E+00 0.  1.
         -3    1    1    2    0  502  0.38926486864E+02 -0.20261222846E+02 -0.45496772888E+02  0.63211904527E+02  0.00000000000E+00 0. -1.
<mgrwt>
<rscale>  1 0.30000000E+03</rscale>
<asrwt>0</asrwt>
<pdfrwt beam="1">  1       21 0.34070822E-01 0.30000000E+03</pdfrwt>
<pdfrwt beam="2">0</pdfrwt>
<totfact> 0.84074742E+02</totfact>
</mgrwt>
</event>
<event>
 6    1  0.1274196E-001  0.3000000E+03  0.7818608E-02  0.1093470E+00
         21   -1    0    0  501  502  0.00000000000E+00  0.00000000000E+00  0.25021985280E+01  0.25021985280E+01  0.00000000000E+00 0. -1.
         13   -1    0    0    0    0 -0.00000000000E+00 -0.00000000000E+00 -0.10000000000E+04  0.10000000000E+04  0.00000000000E+00 0.  1.
    9000005    2    1    2  501    0  0.47302214902E+02 -0.12636565717E+02 -0.59957225380E+03  0.60157586637E+03  0.30745965697E+01 0.  0.
         13    1    3    3    0    0  0.42130648484E+02 -0.12185082756E+02 -0.53250725583E+03  0.53431025190E+03  0.00000000000E+00 0.  1.
          1    1    3    3  501    0  0.51715664184E+01 -0.45148296070E+00 -0.67064997972E+02  0.67265614463E+02  0.00000000000E+00 0.  1.
         -1    1    1    2    0  502 -0.47302214902E+02  0.12636565717E+02 -0.39792554767E+03  0.40092633216E+03  0.00000000000E+00 0. -1.
<mgrwt>
<rscale>  1 0.30000000E+03</rscale>
<asrwt>0</asrwt>
<pdfrwt beam="1">  1       21 0.90989229E-02 0.30000000E+03</pdfrwt>
<pdfrwt beam="2">0</pdfrwt>
<totfact> 0.10178933E+04</totfact>
</mgrwt>
</event>
<event>
 6    1  0.1274196E-001  0.3000000E+03  0.7818608E-02  0.1093470E+00
         21   -1    0    0  501  502  0.00000000000E+00  0.00000000000E+00  0.29564664809E+01  0.29564664809E+01  0.00000000000E+00 0. -1.
         13   -1    0    0    0    0 -0.00000000000E+00 -0.00000000000E+00 -0.10000000000E+04  0.10000000000E+04  0.00000000000E+00 0.  1.
    9000005    2    1    2  501    0  0.29883025920E+02 -0.17000334179E+02 -0.88684043067E+03  0.88751500738E+03  0.38642288753E+01 0.  0.
         13    1    3    3    0    0  0.17068375437E+02 -0.76568009558E+01 -0.49842640847E+03  0.49877734582E+03  0.00000000000E+00 0.  1.
          1    1    3    3  501    0  0.12814650483E+02 -0.93435332232E+01 -0.38841402219E+03  0.38873766156E+03  0.00000000000E+00 0.  1.
         -1    1    1    2    0  502 -0.29883025920E+02  0.17000334179E+02 -0.11020310285E+03  0.11544145910E+03  0.00000000000E+00 0. -1.
<mgrwt>
<rscale>  1 0.30000000E+03</rscale>
<asrwt>0</asrwt>
<pdfrwt beam="1">  1       21 0.10750810E-01 0.30000000E+03</pdfrwt>
<pdfrwt beam="2">0</pdfrwt>
<totfact> 0.75569432E+03</totfact>
</mgrwt>
</event>
<event>
 6    1  0.1274196E-001  0.3000000E+03  0.7818608E-02  0.1093470E+00
         21   -1    0    0  501  502  0.00000000000E+00  0.00000000000E+00  0.27287247699E+01  0.27287247699E+01  0.00000000000E+00 0. -1.
         13   -1    0    0    0    0 -0.00000000000E+00 -0.00000000000E+00 -0.10000000000E+04  0.10000000000E+04  0.00000000000E+00 0.  1.
    9000005    2    1    2  501    0  0.22331721876E+02 -0.26085596747E+02 -0.87629825463E+03  0.87697644498E+03  0.31448083957E+01 0.  0.
         13    1    3    3    0    0  0.15561265203E+02 -0.19999745608E+02 -0.62596467084E+03  0.62647738342E+03  0.00000000000E+00 0.  1.
          1    1    3    3  501    0  0.67704566737E+01 -0.60858511386E+01 -0.25033358380E+03  0.25049906156E+03  0.00000000000E+00 0.  1.
         -1    1    1    2    0  502 -0.22331721876E+02  0.26085596747E+02 -0.12097302060E+03  0.12575227979E+03  0.00000000000E+00 0. -1.
<mgrwt>
<rscale>  1 0.30000000E+03</rscale>
<asrwt>0</asrwt>
<pdfrwt beam="1">  1       21 0.99226565E-02 0.30000000E+03</pdfrwt>
<pdfrwt beam="2">0</pdfrwt>
<totfact> 0.87233604E+03</totfact>
</mgrwt>
</event>
<event>
 6    1  0.1274196E-001  0.3000000E+03  0.7818608E-02  0.1093470E+00
         21   -1    0    0  501  502  0.00000000000E+00  0.00000000000E+00  0.19362409802E+01  0.19362409802E+01  0.00000000000E+00 0. -1.
         13   -1    0    0    0    0 -0.00000000000E+00 -0.00000000000E+00 -0.10000000000E+04  0.10000000000E+04  0.00000000000E+00 0.  1.
    9000005    2    1    2  501    0 -0.33354021159E+02 -0.10345192023E+02 -0.80202574282E+03  0.80281211506E+03  0.65181458809E+01 0.  0.
         13    1    3    3    0    0 -0.23401661098E+02 -0.10203774309E+02 -0.55914117409E+03  0.55972368836E+03  0.00000000000E+00 0.  1.
          1    1    3    3  501    0 -0.99523600614E+01 -0.14141771392E+00 -0.24288456873E+03  0.24308842670E+03  0.00000000000E+00 0.  1.
         -1    1    1    2    0  502  0.33354021159E+02  0.10345192023E+02 -0.19603801620E+03  0.19912412592E+03  0.00000000000E+00 0. -1.
<mgrwt>
<rscale>  1 0.30000000E+03</rscale>
<asrwt>0</asrwt>
<pdfrwt beam="1">  1       21 0.70408911E-02 0.30000000E+03</pdfrwt>
<pdfrwt beam="2">0</pdfrwt>
<totfact> 0.15972515E+04</totfact>
</mgrwt>
</event>
<event>
 6    1  0.1274196E-001  0.3000000E+03  0.7818608E-02  0.1093470E+00
         21   -1    0    0  501  502  0.00000000000E+00  0.00000000000E+00  0.19476544456E+01  0.19476544456E+01  0.00000000000E+00 0. -1.
         13   -1    0    0    0    0 -0.00000000000E+00 -0.00000000000E+00 -0.10000000000E+04  0.10000000000E+04  0.00000000000E+00 0.  1.
    9000005    2    1    2  501    0 -0.41510490282E+02 -0.12730517418E+02 -0.41328661009E+03  0.41557221818E+03  0.30429541309E+01 0.  0.
         13    1    3    3    0    0 -0.61743745348E+01 -0.27278089502E+01 -0.71759001575E+02  0.72075780603E+02  0.00000000000E+00 0.  1.
          1    1    3    3  501    0 -0.35336115747E+02 -0.10002708468E+02 -0.34152760851E+03  0.34349643758E+03  0.00000000000E+00 0.  1.
         -1    1    1    2    0  502  0.41510490282E+02  0.12730517418E+02 -0.58476573547E+03  0.58637543626E+03  0.00000000000E+00 0. -1.
<mgrwt>
<rscale>  1 0.30000000E+03</rscale>
<asrwt>0</asrwt>
<pdfrwt beam="1">  1       21 0.70823947E-02 0.30000000E+03</pdfrwt>
<pdfrwt beam="2">0</pdfrwt>
<totfact> 0.15809856E+04</totfact>
</mgrwt>
</event>
<event>
 6    1  0.1274196E-001  0.3000000E+03  0.7818608E-02  0.1093470E+00
         21   -1    0    0  501  502  0.00000000000E+00  0.00000000000E+00  0.19366048792E+01  0.19366048792E+01  0.00000000000E+00 0. -1.
         13   -1    0    0    0    0 -0.00000000000E+00 -0.00000000000E+00 -0.10000000000E+04  0.10000000000E+04  0.00000000000E+00 0.  1.
    9000005    2    1    2  501    0 -0.35637033020E+02  0.45128992339E+00 -0.79249012611E+03  0.79329679392E+03  0.30002462772E+01 0.  0.
         13    1    3    3    0    0 -0.20697974358E+02 -0.77504870004E+00 -0.43609525711E+03  0.43658685289E+03  0.00000000000E+00 0.  1.
          1    1    3    3  501    0 -0.14939058663E+02  0.12263386234E+01 -0.35639486900E+03  0.35670994103E+03  0.00000000000E+00 0.  1.
         -3    1    1    2    0  502  0.35637033020E+02 -0.45128992339E+00 -0.20557326901E+03  0.20863981096E+03  0.00000000000E+00 0. -1.
<mgrwt>
<rscale>  1 0.30000000E+03</rscale>
<asrwt>0</asrwt>
<pdfrwt beam="1">  1       21 0.70422144E-02 0.30000000E+03</pdfrwt>
<pdfrwt beam="2">0</pdfrwt>
<totfact> 0.15967290E+04</totfact>
</mgrwt>
</event>
<event>
 6    1  0.1274196E-001  0.3000000E+03  0.7818608E-02  0.1093470E+00
         21   -1    0    0  501  502  0.00000000000E+00  0.00000000000E+00  0.45421191322E+01  0.45421191322E+01  0.00000000000E+00 0. -1.
         13   -1    0    0    0    0 -0.00000000000E+00 -0.00000000000E+00 -0.10000000000E+04  0.10000000000E+04  0.00000000000E+00 0.  1.
    9000005    2    1    2  501    0  0.56272814213E+02  0.13340828771E+02 -0.24072728267E+03  0.24759900159E+03  0.33216919131E+01 0.  0.
         13    1    3    3    0    0  0.25284880946E+02  0.67751526359E+01 -0.11522913966E+03  0.11816506474E+03  0.00000000000E+00 0.  1.
          1    1    3    3  501    0  0.30987933267E+02  0.65656761350E+01 -0.12549814300E+03  0.12943393685E+03  0.00000000000E+00 0.  1.
         -3    1    1    2    0  502 -0.56272814213E+02 -0.13340828771E+02 -0.75473059820E+03  0.75694311754E+03  0.00000000000E+00 0. -1.
<mgrwt>
<rscale>  1 0.30000000E+03</rscale>
<asrwt>0</asrwt>
<pdfrwt beam="1">  1       21 0.16516832E-01 0.30000000E+03</pdfrwt>
<pdfrwt beam="2">0</pdfrwt>
<totfact> 0.34422682E+03</totfact>
</mgrwt>
</event>
<event>
 6    1  0.1274196E-001  0.3000000E+03  0.7818608E-02  0.1093470E+00
         21   -1    0    0  501  502  0.00000000000E+00  0.00000000000E+00  0.19341342908E+01  0.19341342908E+01  0.00000000000E+00 0. -1.
         13   -1    0    0    0    0 -0.00000000000E+00 -0.00000000000E+00 -0.10000000000E+04  0.10000000000E+04  0.00000000000E+00 0.  1.
    9000005    2    1    2  501    0 -0.78833095853E+01  0.33886073192E+02 -0.80498932951E+03  0.80574809667E+03  0.34295971716E+01 0.  0.
         13    1    3    3    0    0 -0.76437384378E+01  0.27308187721E+02 -0.66360725981E+03  0.66421288690E+03  0.00000000000E+00 0.  1.
          3    1    3    3  501    0 -0.23957114752E+00  0.65778854717E+01 -0.14138206971E+03  0.14153520977E+03  0.00000000000E+00 0.  1.
         -3    1    1    2    0  502  0.78833095853E+01 -0.33886073192E+02 -0.19307653620E+03  0.19618603762E+03  0.00000000000E+00 0. -1.
<mgrwt>
<rscale>  1 0.30000000E+03</rscale>
<asrwt>0</asrwt>
<pdfrwt beam="1">  1       21 0.70332304E-02 0.30000000E+03</pdfrwt>
<pdfrwt beam="2">0</pdfrwt>
<totfact> 0.16002818E+04</totfact>
</mgrwt>
</event>
<event>
 6    1  0.1274196E-001  0.3000000E+03  0.7818608E-02  0.1093470E+00
         21   -1    0    0  501  502  0.00000000000E+00  0.00000000000E+00  0.15038492075E+01  0.15038492075E+01  0.00000000000E+00 0. -1.
         13   -1    0    0    0    0 -0.00000000000E+00 -0.00000000000E+00 -0.10000000000E+04  0.10000000000E+04  0.00000000000E+00 0.  1.
    9000005    2    1    2  501    0  0.28237669904E+02 -0.25360966575E+02 -0.59817880705E+03  0.59939127749E+03  0.33872861555E+01 0.  0.
         13    1    3    3    0    0  0.21333108300E+02 -0.20491340702E+02 -0.48035978754E+03  0.48126969782E+03  0.00000000000E+00 0.  1.
          1    1    3    3  501    0  0.69045616035E+01 -0.48696258733E+01 -0.11781901951E+03  0.11812157967E+03  0.00000000000E+00 0.  1.
         -3    1    1    2    0  502 -0.28237669904E+02  0.25360966575E+02 -0.40031734374E+03  0.40211257171E+03  0.00000000000E+00 0. -1.
<mgrwt>
<rscale>  1 0.30000000E+03</rscale>
<asrwt>0</asrwt>
<pdfrwt beam="1">  1       21 0.54685541E-02 0.30000000E+03</pdfrwt>
<pdfrwt beam="2">0</pdfrwt>
<totfact> 0.24715907E+04</totfact>
</mgrwt>
</event>
<event>
 6    1  0.1274196E-001  0.3000000E+03  0.7818608E-02  0.1093470E+00
         21   -1    0    0  501  502  0.00000000000E+00  0.00000000000E+00  0.12263894671E+01  0.12263894671E+01  0.00000000000E+00 0. -1.
         13   -1    0    0    0    0 -0.00000000000E+00 -0.00000000000E+00 -0.10000000000E+04  0.10000000000E+04  0.00000000000E+00 0.  1.
    9000005    2    1    2  501    0  0.22292995393E+02 -0.22347940591E+02 -0.28383934011E+03  0.28559560539E+03  0.19159155388E+01 0.  0.
         13    1    3    3    0    0  0.37171577777E+00 -0.87434228105E-01 -0.34359396513E+01  0.34570939604E+01  0.00000000000E+00 0.  1.
          3    1    3    3  501    0  0.21921279615E+02 -0.22260506363E+02 -0.28040340046E+03  0.28213851143E+03  0.00000000000E+00 0.  1.
         -3    1    1    2    0  502 -0.22292995393E+02  0.22347940591E+02 -0.71493427042E+03  0.71563078408E+03  0.00000000000E+00 0. -1.
<mgrwt>
<rscale>  1 0.30000000E+03</rscale>
<asrwt>0</asrwt>
<pdfrwt beam="1">  1       21 0.44596075E-02 0.30000000E+03</pdfrwt>
<pdfrwt beam="2">0</pdfrwt>
<totfact> 0.34989274E+04</totfact>
</mgrwt>
</event>
<event>
 6    1  0.1274196E-001  0.3000000E+03  0.7818608E-02  0.1093470E+00
         21   -1    0    0  501  502  0.00000000000E+00  0.00000000000E+00  0.16569949019E+01  0.16569949019E+01  0.00000000000E+00 0. -1.
         13   -1    0    0    0    0 -0.00000000000E+00 -0.00000000000E+00 -0.10000000000E+04  0.10000000000E+04  0.00000000000E+00 0.  1.
    9000005    2    1    2  501    0 -0.38553074557E+02  0.16273625958E+01 -0.65696634160E+03  0.65810639565E+03  0.32040802874E+01 0.  0.
         13    1    3    3    0    0 -0.75176255469E+01  0.11203303889E+01 -0.11322531987E+03  0.11348014317E+03  0.00000000000E+00 0.  1.
          1    1    3    3  501    0 -0.31035449010E+02  0.50703220687E+00 -0.54374102173E+03  0.54462625248E+03  0.00000000000E+00 0.  1.
         -1    1    1    2    0  502  0.38553074557E+02 -0.16273625958E+01 -0.34137666350E+03  0.34355059925E+03  0.00000000000E+00 0. -1.
<mgrwt>
<rscale>  1 0.30000000E+03</rscale>
<asrwt>0</asrwt>
<pdfrwt beam="1">  1       21 0.60254487E-02 0.30000000E+03</pdfrwt>
<pdfrwt beam="2">0</pdfrwt>
<totfact> 0.20918400E+04</totfact>
</mgrwt>
</event>
<event>
 6    1  0.1274196E-001  0.3000000E+03  0.7818608E-02  0.1093470E+00
         21   -1    0    0  501  502  0.00000000000E+00  0.00000000000E+00  0.16421351049E+01  0.16421351049E+01  0.00000000000E+00 0. -1.
         13   -1    0    0    0    0 -0.00000000000E+00 -0.00000000000E+00 -0.10000000000E+04  0.10000000000E+04  0.00000000000E+00 0.  1.
    9000005    2    1    2  501    0  0.25764420770E+02  0.18521928094E+02 -0.81008853322E+03  0.81071752054E+03  0.35495430018E+01 0.  0.
         13    1    3    3    0    0  0.14520651941E+02  0.82578661328E+01 -0.42169602338E+03  0.42202675012E+03  0.00000000000E+00 0.  1.
          1    1    3    3  501    0  0.11243768829E+02  0.10264061961E+02 -0.38839250984E+03  0.38869077042E+03  0.00000000000E+00 0.  1.
         -3    1    1    2    0  502 -0.25764420770E+02 -0.18521928094E+02 -0.18826933168E+03  0.19092461457E+03  0.00000000000E+00 0. -1.
<mgrwt>
<rscale>  1 0.30000000E+03</rscale>
<asrwt>0</asrwt>
<pdfrwt beam="1">  1       21 0.59714130E-02 0.30000000E+03</pdfrwt>
<pdfrwt beam="2">0</pdfrwt>
<totfact> 0.21245927E+04</totfact>
</mgrwt>
</event>
<event>
 6    1  0.1274196E-001  0.3000000E+03  0.7818608E-02  0.1093470E+00
         21   -1    0    0  501  502  0.00000000000E+00  0.00000000000E+00  0.13937408799E+01  0.13937408799E+01  0.00000000000E+00 0. -1.
         13   -1    0    0    0    0 -0.00000000000E+00 -0.00000000000E+00 -0.10000000000E+04  0.10000000000E+04  0.00000000000E+00 0.  1.
    9000005    2    1    2  501    0  0.26766250298E+02 -0.21104592465E+02 -0.29877051199E+03  0.30072840783E+03  0.34526022702E+01 0.  0.
         13    1    3    3    0    0  0.73414065832E+01 -0.76978647240E+01 -0.97708034467E+02  0.98285367025E+02  0.00000000000E+00 0.  1.
          1    1    3    3  501    0  0.19424843715E+02 -0.13406727741E+02 -0.20106247753E+03  0.20244304081E+03  0.00000000000E+00 0.  1.
         -3    1    1    2    0  502 -0.26766250298E+02  0.21104592465E+02 -0.69983574713E+03  0.70066533305E+03  0.00000000000E+00 0. -1.
<mgrwt>
<rscale>  1 0.30000000E+03</rscale>
<asrwt>0</asrwt>
<pdfrwt beam="1">  1       21 0.50681593E-02 0.30000000E+03</pdfrwt>
<pdfrwt beam="2">0</pdfrwt>
<totfact> 0.28147190E+04</totfact>
</mgrwt>
</event>
<event>
 6    1  0.1274196E-001  0.3000000E+03  0.7818608E-02  0.1093470E+00
         21   -1    0    0  501  502  0.00000000000E+00  0.00000000000E+00  0.99570200643E+00  0.99570200643E+00  0.00000000000E+00 0. -1.
         13   -1    0    0    0    0 -0.00000000000E+00 -0.00000000000E+00 -0.10000000000E+04  0.10000000000E+04  0.00000000000E+00 0.  1.
    9000005    2    1    2  501    0 -0.22070370618E+02 -0.20487599714E+02 -0.64586327606E+03  0.64657303854E+03  0.32372537626E+01 0.  0.
         13    1    3    3    0    0 -0.14347512370E+02 -0.14281536153E+02 -0.46141404239E+03  0.46185791311E+03  0.00000000000E+00 0.  1.
          1    1    3    3  501    0 -0.77228582482E+01 -0.62060635611E+01 -0.18444923367E+03  0.18471512544E+03  0.00000000000E+00 0.  1.
         -1    1    1    2    0  502  0.22070370618E+02  0.20487599714E+02 -0.35314102194E+03  0.35442266346E+03  0.00000000000E+00 0. -1.
<mgrwt>
<rscale>  1 0.30000000E+03</rscale>
<asrwt>0</asrwt>
<pdfrwt beam="1">  1       21 0.36207422E-02 0.30000000E+03</pdfrwt>
<pdfrwt beam="2">0</pdfrwt>
<totfact> 0.49709037E+04</totfact>
</mgrwt>
</event>
<event>
 6    1  0.1274196E-001  0.3000000E+03  0.7818608E-02  0.1093470E+00
         21   -1    0    0  501  502  0.00000000000E+00  0.00000000000E+00  0.23165103871E+01  0.23165103871E+01  0.00000000000E+00 0. -1.
         13   -1    0    0    0    0 -0.00000000000E+00 -0.00000000000E+00 -0.10000000000E+04  0.10000000000E+04  0.00000000000E+00 0.  1.
    9000005    2    1    2  501    0  0.19067530805E+02 -0.34262150768E+02 -0.78908647988E+03  0.79006623789E+03  0.31179825805E+01 0.  0.
         13    1    3    3    0    0  0.37966017201E+01 -0.45369990998E+01 -0.11862384839E+03  0.11877127579E+03  0.00000000000E+00 0.  1.
          1    1    3    3  501    0  0.15270929085E+02 -0.29725151668E+02 -0.67046263149E+03  0.67129496210E+03  0.00000000000E+00 0.  1.
         -1    1    1    2    0  502 -0.19067530805E+02  0.34262150768E+02 -0.20859700973E+03  0.21225027250E+03  0.00000000000E+00 0. -1.
<mgrwt>
<rscale>  1 0.30000000E+03</rscale>
<asrwt>0</asrwt>
<pdfrwt beam="1">  1       21 0.84236919E-02 0.30000000E+03</pdfrwt>
<pdfrwt beam="2">0</pdfrwt>
<totfact> 0.11665236E+04</totfact>
</mgrwt>
</event>
<event>
 6    1  0.1274196E-001  0.3000000E+03  0.7818608E-02  0.1093470E+00
         21   -1    0    0  501  502  0.00000000000E+00  0.00000000000E+00  0.12439771913E+01  0.12439771913E+01  0.00000000000E+00 0. -1.
         13   -1    0    0    0    0 -0.00000000000E+00 -0.00000000000E+00 -0.10000000000E+04  0.10000000000E+04  0.00000000000E+00 0.  1.
    9000005    2    1    2  501    0  0.20837936581E+02  0.24900562101E+02 -0.30764991847E+03  0.30937556120E+03  0.32415950676E+01 0.  0.
         13    1    3    3    0    0  0.80541275015E+01  0.72827216648E+01 -0.99861904139E+02  0.10045051968E+03  0.00000000000E+00 0.  1.
          1    1    3    3  501    0  0.12783809079E+02  0.17617840436E+02 -0.20778801433E+03  0.20892504152E+03  0.00000000000E+00 0.  1.
         -1    1    1    2    0  502 -0.20837936581E+02 -0.24900562101E+02 -0.69110610434E+03  0.69186841599E+03  0.00000000000E+00 0. -1.
<mgrwt>
<rscale>  1 0.30000000E+03</rscale>
<asrwt>0</asrwt>
<pdfrwt beam="1">  1       21 0.45235630E-02 0.30000000E+03</pdfrwt>
<pdfrwt beam="2">0</pdfrwt>
<totfact> 0.34154100E+04</totfact>
</mgrwt>
</event>
<event>
 6    1  0.1274196E-001  0.3000000E+03  0.7818608E-02  0.1093470E+00
         21   -1    0    0  501  502  0.00000000000E+00  0.00000000000E+00  0.16731883739E+01  0.16731883739E+01  0.00000000000E+00 0. -1.
         13   -1    0    0    0    0 -0.00000000000E+00 -0.00000000000E+00 -0.10000000000E+04  0.10000000000E+04  0.00000000000E+00 0.  1.
    9000005    2    1    2  501    0 -0.23648167617E+02 -0.24165958140E+02 -0.78044203753E+03  0.78118054870E+03  0.31696008185E+01 0.  0.
         13    1    3    3    0    0 -0.39691179130E+01 -0.31700504609E+01 -0.14059941097E+03  0.14069114216E+03  0.00000000000E+00 0.  1.
          1    1    3    3  501    0 -0.19679049704E+02 -0.20995907679E+02 -0.63984262655E+03  0.64048940654E+03  0.00000000000E+00 0.  1.
         -1    1    1    2    0  502  0.23648167617E+02  0.24165958140E+02 -0.21788477410E+03  0.22049263967E+03  0.00000000000E+00 0. -1.
<mgrwt>
<rscale>  1 0.30000000E+03</rscale>
<asrwt>0</asrwt>
<pdfrwt beam="1">  1       21 0.60843342E-02 0.30000000E+03</pdfrwt>
<pdfrwt beam="2">0</pdfrwt>
<totfact> 0.20570339E+04</totfact>
</mgrwt>
</event>
<event>
 6    1  0.1274196E-001  0.3000000E+03  0.7818608E-02  0.1093470E+00
         21   -1    0    0  501  502  0.00000000000E+00  0.00000000000E+00  0.15884352605E+02  0.15884352605E+02  0.00000000000E+00 0. -1.
         13   -1    0    0    0    0 -0.00000000000E+00 -0.00000000000E+00 -0.10000000000E+04  0.10000000000E+04  0.00000000000E+00 0.  1.
    9000005    2    1    2  501    0  0.81817354165E+02  0.88710827340E+02 -0.63832908951E+03  0.64964394803E+03  0.30890721605E+01 0.  0.
         13    1    3    3    0    0  0.31028155654E+02  0.33562990190E+02 -0.23376108965E+03  0.23818788338E+03  0.00000000000E+00 0.  1.
          3    1    3    3  501    0  0.50789198511E+02  0.55147837150E+02 -0.40456799986E+03  0.41145606465E+03  0.00000000000E+00 0.  1.
         -3    1    1    2    0  502 -0.81817354165E+02 -0.88710827340E+02 -0.34578655789E+03  0.36624040458E+03  0.00000000000E+00 0. -1.
<mgrwt>
<rscale>  1 0.30000000E+03</rscale>
<asrwt>0</asrwt>
<pdfrwt beam="1">  1       21 0.57761404E-01 0.30000000E+03</pdfrwt>
<pdfrwt beam="2">0</pdfrwt>
<totfact> 0.27343540E+02</totfact>
</mgrwt>
</event>
<event>
 6    1  0.1274196E-001  0.3000000E+03  0.7818608E-02  0.1093470E+00
         21   -1    0    0  501  502  0.00000000000E+00  0.00000000000E+00  0.30305824189E+01  0.30305824189E+01  0.00000000000E+00 0. -1.
         13   -1    0    0    0    0 -0.00000000000E+00 -0.00000000000E+00 -0.10000000000E+04  0.10000000000E+04  0.00000000000E+00 0.  1.
    9000005    2    1    2  501    0  0.33438524627E+02  0.13605939068E+02 -0.87694141390E+03  0.87769113063E+03  0.34958355093E+01 0.  0.
         13    1    3    3    0    0  0.32688464125E+01  0.23469854993E+01 -0.11172460809E+03  0.11179705609E+03  0.00000000000E+00 0.  1.
          3    1    3    3  501    0  0.30169678215E+02  0.11258953568E+02 -0.76521680581E+03  0.76589407454E+03  0.00000000000E+00 0.  1.
         -1    1    1    2    0  502 -0.33438524627E+02 -0.13605939068E+02 -0.12002800368E+03  0.12533945179E+03  0.00000000000E+00 0. -1.
<mgrwt>
<rscale>  1 0.30000000E+03</rscale>
<asrwt>0</asrwt>
<pdfrwt beam="1">  1       21 0.11020323E-01 0.30000000E+03</pdfrwt>
<pdfrwt beam="2">0</pdfrwt>
<totfact> 0.72279775E+03</totfact>
</mgrwt>
</event>
<event>
 6    1  0.1274196E-001  0.3000000E+03  0.7818608E-02  0.1093470E+00
         21   -1    0    0  501  502  0.00000000000E+00  0.00000000000E+00  0.25713536455E+01  0.25713536455E+01  0.00000000000E+00 0. -1.
         13   -1    0    0    0    0 -0.00000000000E+00 -0.00000000000E+00 -0.10000000000E+04  0.10000000000E+04  0.00000000000E+00 0.  1.
    9000005    2    1    2  501    0  0.33427752265E+02 -0.33369996907E+02 -0.68023696162E+03  0.68188219546E+03  0.31675245852E+01 0.  0.
         13    1    3    3    0    0  0.41711526104E+01 -0.46457090067E+01 -0.76218805175E+02  0.76474096194E+02  0.00000000000E+00 0.  1.
          3    1    3    3  501    0  0.29256599655E+02 -0.28724287900E+02 -0.60401815644E+03  0.60540809926E+03  0.00000000000E+00 0.  1.
         -3    1    1    2    0  502 -0.33427752265E+02  0.33369996907E+02 -0.31719168473E+03  0.32068915819E+03  0.00000000000E+00 0. -1.
<mgrwt>
<rscale>  1 0.30000000E+03</rscale>
<asrwt>0</asrwt>
<pdfrwt beam="1">  1       21 0.93503966E-02 0.30000000E+03</pdfrwt>
<pdfrwt beam="2">0</pdfrwt>
<totfact> 0.96978658E+03</totfact>
</mgrwt>
</event>
<event>
 6    1  0.1274196E-001  0.3000000E+03  0.7818608E-02  0.1093470E+00
         21   -1    0    0  501  502  0.00000000000E+00  0.00000000000E+00  0.15037137515E+01  0.15037137515E+01  0.00000000000E+00 0. -1.
         13   -1    0    0    0    0 -0.00000000000E+00 -0.00000000000E+00 -0.10000000000E+04  0.10000000000E+04  0.00000000000E+00 0.  1.
    9000005    2    1    2  501    0 -0.23626320478E+02 -0.29311501730E+02 -0.38244328680E+03  0.38430142496E+03  0.27111730574E+01 0.  0.
         13    1    3    3    0    0 -0.12931777958E+02 -0.13927064944E+02 -0.19534037426E+03  0.19626272146E+03  0.00000000000E+00 0.  1.
          1    1    3    3  501    0 -0.10694542520E+02 -0.15384436786E+02 -0.18710291253E+03  0.18803870350E+03  0.00000000000E+00 0.  1.
         -3    1    1    2    0  502  0.23626320478E+02  0.29311501730E+02 -0.61605299945E+03  0.61720228879E+03  0.00000000000E+00 0. -1.
<mgrwt>
<rscale>  1 0.30000000E+03</rscale>
<asrwt>0</asrwt>
<pdfrwt beam="1">  1       21 0.54680615E-02 0.30000000E+03</pdfrwt>
<pdfrwt beam="2">0</pdfrwt>
<totfact> 0.24719723E+04</totfact>
</mgrwt>
</event>
<event>
 6    1  0.1274196E-001  0.3000000E+03  0.7818608E-02  0.1093470E+00
         21   -1    0    0  501  502  0.00000000000E+00  0.00000000000E+00  0.15440109912E+01  0.15440109912E+01  0.00000000000E+00 0. -1.
         13   -1    0    0    0    0 -0.00000000000E+00 -0.00000000000E+00 -0.10000000000E+04  0.10000000000E+04  0.00000000000E+00 0.  1.
    9000005    2    1    2  501    0 -0.34033174748E+02 -0.10160965651E+02 -0.71220647499E+03  0.71309941235E+03  0.33476375105E+01 0.  0.
         13    1    3    3    0    0 -0.32245959477E+02 -0.99641943804E+01 -0.68726592769E+03  0.68809413778E+03  0.00000000000E+00 0.  1.
          3    1    3    3  501    0 -0.17872152709E+01 -0.19677127088E+00 -0.24940547295E+02  0.25005274578E+02  0.00000000000E+00 0.  1.
         -3    1    1    2    0  502  0.34033174748E+02  0.10160965651E+02 -0.28624951402E+03  0.28844459864E+03  0.00000000000E+00 0. -1.
<mgrwt>
<rscale>  1 0.30000000E+03</rscale>
<asrwt>0</asrwt>
<pdfrwt beam="1">  1       21 0.56145973E-02 0.30000000E+03</pdfrwt>
<pdfrwt beam="2">0</pdfrwt>
<totfact> 0.23623220E+04</totfact>
</mgrwt>
</event>
<event>
 6    1  0.1274196E-001  0.3000000E+03  0.7818608E-02  0.1093470E+00
         21   -1    0    0  501  502  0.00000000000E+00  0.00000000000E+00  0.17212789578E+01  0.17212789578E+01  0.00000000000E+00 0. -1.
         13   -1    0    0    0    0 -0.00000000000E+00 -0.00000000000E+00 -0.10000000000E+04  0.10000000000E+04  0.00000000000E+00 0.  1.
    9000005    2    1    2  501    0  0.57300264699E+01  0.31084801226E+02 -0.82313945317E+03  0.82375257041E+03  0.32618745070E+01 0.  0.
         13    1    3    3    0    0  0.71846281938E+00  0.11056769331E+01 -0.46138290211E+02  0.46157128744E+02  0.00000000000E+00 0.  1.
          1    1    3    3  501    0  0.50115636506E+01  0.29979124293E+02 -0.77700116295E+03  0.77759544166E+03  0.00000000000E+00 0.  1.
         -1    1    1    2    0  502 -0.57300264699E+01 -0.31084801226E+02 -0.17513926788E+03  0.17796870855E+03  0.00000000000E+00 0. -1.
<mgrwt>
<rscale>  1 0.30000000E+03</rscale>
<asrwt>0</asrwt>
<pdfrwt beam="1">  1       21 0.62592094E-02 0.30000000E+03</pdfrwt>
<pdfrwt beam="2">0</pdfrwt>
<totfact> 0.19588070E+04</totfact>
</mgrwt>
</event>
<event>
 6    1  0.1274196E-001  0.3000000E+03  0.7818608E-02  0.1093470E+00
         21   -1    0    0  501  502  0.00000000000E+00  0.00000000000E+00  0.10452723928E+01  0.10452723928E+01  0.00000000000E+00 0. -1.
         13   -1    0    0    0    0 -0.00000000000E+00 -0.00000000000E+00 -0.10000000000E+04  0.10000000000E+04  0.00000000000E+00 0.  1.
    9000005    2    1    2  501    0 -0.24823528830E+02 -0.19537439427E+02 -0.60095015062E+03  0.60178901080E+03  0.33182615151E+01 0.  0.
         13    1    3    3    0    0 -0.19602729432E+02 -0.15215877675E+02 -0.44450916024E+03  0.44520128422E+03  0.00000000000E+00 0.  1.
          1    1    3    3  501    0 -0.52207993980E+01 -0.43215617520E+01 -0.15644099038E+03  0.15658772658E+03  0.00000000000E+00 0.  1.
         -3    1    1    2    0  502  0.24823528830E+02  0.19537439427E+02 -0.39800457698E+03  0.39925626160E+03  0.00000000000E+00 0. -1.
<mgrwt>
<rscale>  1 0.30000000E+03</rscale>
<asrwt>0</asrwt>
<pdfrwt beam="1">  1       21 0.38009985E-02 0.30000000E+03</pdfrwt>
<pdfrwt beam="2">0</pdfrwt>
<totfact> 0.45815852E+04</totfact>
</mgrwt>
</event>
<event>
 6    1  0.1274196E-001  0.3000000E+03  0.7818608E-02  0.1093470E+00
         21   -1    0    0  501  502  0.00000000000E+00  0.00000000000E+00  0.16883068770E+01  0.16883068770E+01  0.00000000000E+00 0. -1.
         13   -1    0    0    0    0 -0.00000000000E+00 -0.00000000000E+00 -0.10000000000E+04  0.10000000000E+04  0.00000000000E+00 0.  1.
    9000005    2    1    2  501    0  0.29013369762E+02 -0.22961244521E+02 -0.71562337608E+03  0.71658888743E+03  0.37179060173E+01 0.  0.
         13    1    3    3    0    0  0.11412237591E+02 -0.10036658370E+02 -0.26238461974E+03  0.26282439452E+03  0.00000000000E+00 0.  1.
          1    1    3    3  501    0  0.17601132171E+02 -0.12924586150E+02 -0.45323875634E+03  0.45376449291E+03  0.00000000000E+00 0.  1.
         -1    1    1    2    0  502 -0.29013369762E+02  0.22961244521E+02 -0.28268831704E+03  0.28509941944E+03  0.00000000000E+00 0. -1.
<mgrwt>
<rscale>  1 0.30000000E+03</rscale>
<asrwt>0</asrwt>
<pdfrwt beam="1">  1       21 0.61393107E-02 0.30000000E+03</pdfrwt>
<pdfrwt beam="2">0</pdfrwt>
<totfact> 0.20253444E+04</totfact>
</mgrwt>
</event>
<event>
 6    1  0.1274196E-001  0.3000000E+03  0.7818608E-02  0.1093470E+00
         21   -1    0    0  501  502  0.00000000000E+00  0.00000000000E+00  0.19244235339E+01  0.19244235339E+01  0.00000000000E+00 0. -1.
         13   -1    0    0    0    0 -0.00000000000E+00 -0.00000000000E+00 -0.10000000000E+04  0.10000000000E+04  0.00000000000E+00 0.  1.
    9000005    2    1    2  501    0 -0.38292029938E+02  0.21043107665E+02 -0.53198406132E+03  0.53378940836E+03  0.38728602021E+01 0.  0.
         13    1    3    3    0    0 -0.11607124951E+02  0.69284014272E+01 -0.18626280410E+03  0.18675267143E+03  0.00000000000E+00 0.  1.
          1    1    3    3  501    0 -0.26684904987E+02  0.14114706237E+02 -0.34572125722E+03  0.34703673693E+03  0.00000000000E+00 0.  1.
         -3    1    1    2    0  502  0.38292029938E+02 -0.21043107665E+02 -0.46609151515E+03  0.46813501517E+03  0.00000000000E+00 0. -1.
<mgrwt>
<rscale>  1 0.30000000E+03</rscale>
<asrwt>0</asrwt>
<pdfrwt beam="1">  1       21 0.69979185E-02 0.30000000E+03</pdfrwt>
<pdfrwt beam="2">0</pdfrwt>
<totfact> 0.16143640E+04</totfact>
</mgrwt>
</event>
<event>
 6    1  0.1274196E-001  0.3000000E+03  0.7818608E-02  0.1093470E+00
         21   -1    0    0  501  502  0.00000000000E+00  0.00000000000E+00  0.30793535904E+01  0.30793535904E+01  0.00000000000E+00 0. -1.
         13   -1    0    0    0    0 -0.00000000000E+00 -0.00000000000E+00 -0.10000000000E+04  0.10000000000E+04  0.00000000000E+00 0.  1.
    9000005    2    1    2  501    0 -0.33302114844E+02 -0.72326202489E+01 -0.89372294508E+03  0.89440043563E+03  0.70777855825E+01 0.  0.
         13    1    3    3    0    0 -0.65519812163E+01 -0.31369058983E+01 -0.25703771328E+03  0.25714034045E+03  0.00000000000E+00 0.  1.
          3    1    3    3  501    0 -0.26750133628E+02 -0.40957143506E+01 -0.63668523180E+03  0.63726009518E+03  0.00000000000E+00 0.  1.
         -1    1    1    2    0  502  0.33302114844E+02  0.72326202489E+01 -0.10319770133E+03  0.10867891796E+03  0.00000000000E+00 0. -1.
<mgrwt>
<rscale>  1 0.30000000E+03</rscale>
<asrwt>0</asrwt>
<pdfrwt beam="1">  1       21 0.11197673E-01 0.30000000E+03</pdfrwt>
<pdfrwt beam="2">0</pdfrwt>
<totfact> 0.70231484E+03</totfact>
</mgrwt>
</event>
<event>
 6    1  0.1274196E-001  0.3000000E+03  0.7818608E-02  0.1093470E+00
         21   -1    0    0  501  502  0.00000000000E+00  0.00000000000E+00  0.37691734138E+01  0.37691734138E+01  0.00000000000E+00 0. -1.
         13   -1    0    0    0    0 -0.00000000000E+00 -0.00000000000E+00 -0.10000000000E+04  0.10000000000E+04  0.00000000000E+00 0.  1.
    9000005    2    1    2  501    0  0.49797094628E+02  0.35026245957E+02 -0.43904899702E+03  0.44327102022E+03  0.43112689429E+01 0.  0.
         13    1    3    3    0    0  0.22430784719E+02  0.13228386773E+02 -0.18410686384E+03  0.18593941925E+03  0.00000000000E+00 0.  1.
          3    1    3    3  501    0  0.27366309909E+02  0.21797859184E+02 -0.25494213318E+03  0.25733160097E+03  0.00000000000E+00 0.  1.
         -3    1    1    2    0  502 -0.49797094628E+02 -0.35026245957E+02 -0.55718182957E+03  0.56049815320E+03  0.00000000000E+00 0. -1.
<mgrwt>
<rscale>  1 0.30000000E+03</rscale>
<asrwt>0</asrwt>
<pdfrwt beam="1">  1       21 0.13706114E-01 0.30000000E+03</pdfrwt>
<pdfrwt beam="2">0</pdfrwt>
<totfact> 0.48623878E+03</totfact>
</mgrwt>
</event>
<event>
 6    1  0.1274196E-001  0.3000000E+03  0.7818608E-02  0.1093470E+00
         21   -1    0    0  501  502  0.00000000000E+00  0.00000000000E+00  0.32942285270E+01  0.32942285270E+01  0.00000000000E+00 0. -1.
         13   -1    0    0    0    0 -0.00000000000E+00 -0.00000000000E+00 -0.10000000000E+04  0.10000000000E+04  0.00000000000E+00 0.  1.
    9000005    2    1    2  501    0 -0.39331045364E+02  0.14266536913E+02 -0.84155409155E+03  0.84260039234E+03  0.34156940721E+01 0.  0.
         13    1    3    3    0    0 -0.21616781188E+02  0.89793112459E+01 -0.49641968619E+03  0.49697124474E+03  0.00000000000E+00 0.  1.
          1    1    3    3  501    0 -0.17714264176E+02  0.52872256673E+01 -0.34513440536E+03  0.34562914760E+03  0.00000000000E+00 0.  1.
         -3    1    1    2    0  502  0.39331045364E+02 -0.14266536913E+02 -0.15515167993E+03  0.16069383619E+03  0.00000000000E+00 0. -1.
<mgrwt>
<rscale>  1 0.30000000E+03</rscale>
<asrwt>0</asrwt>
<pdfrwt beam="1">  1       21 0.11979038E-01 0.30000000E+03</pdfrwt>
<pdfrwt beam="2">0</pdfrwt>
<totfact> 0.62168133E+03</totfact>
</mgrwt>
</event>
<event>
 6    1  0.1274196E-001  0.3000000E+03  0.7818608E-02  0.1093470E+00
         21   -1    0    0  501  502  0.00000000000E+00  0.00000000000E+00  0.27926663512E+01  0.27926663512E+01  0.00000000000E+00 0. -1.
         13   -1    0    0    0    0 -0.00000000000E+00 -0.00000000000E+00 -0.10000000000E+04  0.10000000000E+04  0.00000000000E+00 0.  1.
    9000005    2    1    2  501    0 -0.80183287335E+00  0.39196997277E+02 -0.83436620132E+03  0.83529854135E+03  0.44325778546E+01 0.  0.
         13    1    3    3    0    0  0.11880930004E+01  0.30276594588E+02 -0.65069118956E+03  0.65139627564E+03  0.00000000000E+00 0.  1.
          3    1    3    3  501    0 -0.19899258738E+01  0.89204026889E+01 -0.18367501176E+03  0.18390226571E+03  0.00000000000E+00 0.  1.
         -3    1    1    2    0  502  0.80183287335E+00 -0.39196997277E+02 -0.16284113233E+03  0.16749412500E+03  0.00000000000E+00 0. -1.
<mgrwt>
<rscale>  1 0.30000000E+03</rscale>
<asrwt>0</asrwt>
<pdfrwt beam="1">  1       21 0.10155172E-01 0.30000000E+03</pdfrwt>
<pdfrwt beam="2">0</pdfrwt>
<totfact> 0.83696106E+03</totfact>
</mgrwt>
</event>
<event>
 6    1  0.1274196E-001  0.3000000E+03  0.7818608E-02  0.1093470E+00
         21   -1    0    0  501  502  0.00000000000E+00  0.00000000000E+00  0.29482176727E+01  0.29482176727E+01  0.00000000000E+00 0. -1.
         13   -1    0    0    0    0 -0.00000000000E+00 -0.00000000000E+00 -0.10000000000E+04  0.10000000000E+04  0.00000000000E+00 0.  1.
    9000005    2    1    2  501    0 -0.18613655388E+02  0.33971989198E+02 -0.84972304793E+03  0.85061200991E+03  0.33119480174E+01 0.  0.
         13    1    3    3    0    0 -0.79072468327E+01  0.16062431771E+02 -0.36078115760E+03  0.36122509595E+03  0.00000000000E+00 0.  1.
          3    1    3    3  501    0 -0.10706408555E+02  0.17909557427E+02 -0.48894189033E+03  0.48938691396E+03  0.00000000000E+00 0.  1.
         -3    1    1    2    0  502  0.18613655388E+02 -0.33971989198E+02 -0.14732873440E+03  0.15233620777E+03  0.00000000000E+00 0. -1.
<mgrwt>
<rscale>  1 0.30000000E+03</rscale>
<asrwt>0</asrwt>
<pdfrwt beam="1">  1       21 0.10720814E-01 0.30000000E+03</pdfrwt>
<pdfrwt beam="2">0</pdfrwt>
<totfact> 0.75949498E+03</totfact>
</mgrwt>
</event>
<event>
 6    1  0.1274196E-001  0.3000000E+03  0.7818608E-02  0.1093470E+00
         21   -1    0    0  501  502  0.00000000000E+00  0.00000000000E+00  0.13480114259E+01  0.13480114259E+01  0.00000000000E+00 0. -1.
         13   -1    0    0    0    0 -0.00000000000E+00 -0.00000000000E+00 -0.10000000000E+04  0.10000000000E+04  0.00000000000E+00 0.  1.
    9000005    2    1    2  501    0  0.85893148877E+01 -0.28898105985E+02 -0.78424671600E+03  0.78483358289E+03  0.34589599810E+01 0.  0.
         13    1    3    3    0    0  0.48476152472E+01 -0.15148601795E+02 -0.45722203036E+03  0.45749859514E+03  0.00000000000E+00 0.  1.
          3    1    3    3  501    0  0.37416996404E+01 -0.13749504190E+02 -0.32702468564E+03  0.32733498775E+03  0.00000000000E+00 0.  1.
         -3    1    1    2    0  502 -0.85893148877E+01  0.28898105985E+02 -0.21440527257E+03  0.21651442854E+03  0.00000000000E+00 0. -1.
<mgrwt>
<rscale>  1 0.30000000E+03</rscale>
<asrwt>0</asrwt>
<pdfrwt beam="1">  1       21 0.49018701E-02 0.30000000E+03</pdfrwt>
<pdfrwt beam="2">0</pdfrwt>
<totfact> 0.29794105E+04</totfact>
</mgrwt>
</event>
<event>
 6    1  0.1274196E-001  0.3000000E+03  0.7818608E-02  0.1093470E+00
         21   -1    0    0  501  502  0.00000000000E+00  0.00000000000E+00  0.22590071981E+01  0.22590071981E+01  0.00000000000E+00 0. -1.
         13   -1    0    0    0    0 -0.00000000000E+00 -0.00000000000E+00 -0.10000000000E+04  0.10000000000E+04  0.00000000000E+00 0.  1.
    9000005    2    1    2  501    0  0.24581907912E+02 -0.26450505659E+02 -0.82439715585E+03  0.82519408900E+03  0.32733020101E+01 0.  0.
         13    1    3    3    0    0  0.72182507471E+01 -0.64139463385E+01 -0.24645940162E+03  0.24664849178E+03  0.00000000000E+00 0.  1.
          3    1    3    3  501    0  0.17363657164E+02 -0.20036559320E+02 -0.57793775423E+03  0.57854559722E+03  0.00000000000E+00 0.  1.
         -1    1    1    2    0  502 -0.24581907912E+02  0.26450505659E+02 -0.17334383695E+03  0.17706491819E+03  0.00000000000E+00 0. -1.
<mgrwt>
<rscale>  1 0.30000000E+03</rscale>
<asrwt>0</asrwt>
<pdfrwt beam="1">  1       21 0.82145890E-02 0.30000000E+03</pdfrwt>
<pdfrwt beam="2">0</pdfrwt>
<totfact> 0.12193115E+04</totfact>
</mgrwt>
</event>
<event>
 6    1  0.1274196E-001  0.3000000E+03  0.7818608E-02  0.1093470E+00
         21   -1    0    0  501  502  0.00000000000E+00  0.00000000000E+00  0.21990138455E+01  0.21990138455E+01  0.00000000000E+00 0. -1.
         13   -1    0    0    0    0 -0.00000000000E+00 -0.00000000000E+00 -0.10000000000E+04  0.10000000000E+04  0.00000000000E+00 0.  1.
    9000005    2    1    2  501    0  0.31504090611E+02 -0.41524875807E+01 -0.86701084227E+03  0.86760401908E+03  0.43797754527E+01 0.  0.
         13    1    3    3    0    0  0.21586311566E+02 -0.42535739864E+01 -0.63574893611E+03  0.63612952415E+03  0.00000000000E+00 0.  1.
          1    1    3    3  501    0  0.99177790451E+01  0.10108640567E+00 -0.23126190616E+03  0.23147449493E+03  0.00000000000E+00 0.  1.
         -1    1    1    2    0  502 -0.31504090611E+02  0.41524875807E+01 -0.13079014388E+03  0.13459499476E+03  0.00000000000E+00 0. -1.
<mgrwt>
<rscale>  1 0.30000000E+03</rscale>
<asrwt>0</asrwt>
<pdfrwt beam="1">  1       21 0.79964308E-02 0.30000000E+03</pdfrwt>
<pdfrwt beam="2">0</pdfrwt>
<totfact> 0.12783885E+04</totfact>
</mgrwt>
</event>
<event>
 6    1  0.1274196E-001  0.3000000E+03  0.7818608E-02  0.1093470E+00
         21   -1    0    0  501  502  0.00000000000E+00  0.00000000000E+00  0.19366668276E+01  0.19366668276E+01  0.00000000000E+00 0. -1.
         13   -1    0    0    0    0 -0.00000000000E+00 -0.00000000000E+00 -0.10000000000E+04  0.10000000000E+04  0.00000000000E+00 0.  1.
    9000005    2    1    2  501    0  0.25237351378E+02 -0.35798815953E+02 -0.46442859657E+03  0.46650738929E+03  0.40919223567E+01 0.  0.
         13    1    3    3    0    0  0.16284923036E+02 -0.23051921959E+02 -0.27790753235E+03  0.27933704796E+03  0.00000000000E+00 0.  1.
          3    1    3    3  501    0  0.89524283415E+01 -0.12746893994E+02 -0.18652106421E+03  0.18717034133E+03  0.00000000000E+00 0.  1.
         -3    1    1    2    0  502 -0.25237351378E+02  0.35798815953E+02 -0.53363473661E+03  0.53542927753E+03  0.00000000000E+00 0. -1.
<mgrwt>
<rscale>  1 0.30000000E+03</rscale>
<asrwt>0</asrwt>
<pdfrwt beam="1">  1       21 0.70424397E-02 0.30000000E+03</pdfrwt>
<pdfrwt beam="2">0</pdfrwt>
<totfact> 0.15966401E+04</totfact>
</mgrwt>
</event>
<event>
 6    1  0.1274196E-001  0.3000000E+03  0.7818608E-02  0.1093470E+00
         21   -1    0    0  501  502  0.00000000000E+00  0.00000000000E+00  0.32279179481E+01  0.32279179481E+01  0.00000000000E+00 0. -1.
         13   -1    0    0    0    0 -0.00000000000E+00 -0.00000000000E+00 -0.10000000000E+04  0.10000000000E+04  0.00000000000E+00 0.  1.
    9000005    2    1    2  501    0 -0.41488322564E+02 -0.61185963987E+01 -0.83657717270E+03  0.83763465990E+03  0.34262866684E+01 0.  0.
         13    1    3    3    0    0 -0.88576043817E+01  0.10186083610E+00 -0.17487972196E+03  0.17510392538E+03  0.00000000000E+00 0.  1.
          3    1    3    3  501    0 -0.32630718182E+02 -0.62204572348E+01 -0.66169745074E+03  0.66253073452E+03  0.00000000000E+00 0.  1.
         -3    1    1    2    0  502  0.41488322564E+02  0.61185963987E+01 -0.16019490935E+03  0.16559325805E+03  0.00000000000E+00 0. -1.
<mgrwt>
<rscale>  1 0.30000000E+03</rscale>
<asrwt>0</asrwt>
<pdfrwt beam="1">  1       21 0.11737908E-01 0.30000000E+03</pdfrwt>
<pdfrwt beam="2">0</pdfrwt>
<totfact> 0.64502146E+03</totfact>
</mgrwt>
</event>
<event>
 6    1  0.1274196E-001  0.3000000E+03  0.7818608E-02  0.1093470E+00
         21   -1    0    0  501  502  0.00000000000E+00  0.00000000000E+00  0.12575248474E+01  0.12575248474E+01  0.00000000000E+00 0. -1.
         13   -1    0    0    0    0 -0.00000000000E+00 -0.00000000000E+00 -0.10000000000E+04  0.10000000000E+04  0.00000000000E+00 0.  1.
    9000005    2    1    2  501    0  0.25962067231E+02  0.23250881999E+02 -0.57929461277E+03  0.58036425845E+03  0.50785473536E+01 0.  0.
         13    1    3    3    0    0  0.12694207702E+01  0.17689974865E-01 -0.16048056466E+02  0.16098194258E+02  0.00000000000E+00 0.  1.
          3    1    3    3  501    0  0.24692646461E+02  0.23233192024E+02 -0.56324655631E+03  0.56426606419E+03  0.00000000000E+00 0.  1.
         -1    1    1    2    0  502 -0.25962067231E+02 -0.23250881999E+02 -0.41944786238E+03  0.42089326640E+03  0.00000000000E+00 0. -1.
<mgrwt>
<rscale>  1 0.30000000E+03</rscale>
<asrwt>0</asrwt>
<pdfrwt beam="1">  1       21 0.45728273E-02 0.30000000E+03</pdfrwt>
<pdfrwt beam="2">0</pdfrwt>
<totfact> 0.33531579E+04</totfact>
</mgrwt>
</event>
<event>
 6    1  0.1274196E-001  0.3000000E+03  0.7818608E-02  0.1093470E+00
         21   -1    0    0  501  502  0.00000000000E+00  0.00000000000E+00  0.13017321223E+01  0.13017321223E+01  0.00000000000E+00 0. -1.
         13   -1    0    0    0    0 -0.00000000000E+00 -0.00000000000E+00 -0.10000000000E+04  0.10000000000E+04  0.00000000000E+00 0.  1.
    9000005    2    1    2  501    0  0.11375685237E+02  0.34001252428E+02 -0.47312630311E+03  0.47450824172E+03  0.49072786403E+01 0.  0.
         13    1    3    3    0    0  0.79646801262E+01  0.27198681934E+02 -0.34896063634E+03  0.35010959733E+03  0.00000000000E+00 0.  1.
          1    1    3    3  501    0  0.34110051111E+01  0.68025704945E+01 -0.12416566677E+03  0.12439864439E+03  0.00000000000E+00 0.  1.
         -1    1    1    2    0  502 -0.11375685237E+02 -0.34001252428E+02 -0.52557196476E+03  0.52679349040E+03  0.00000000000E+00 0. -1.
<mgrwt>
<rscale>  1 0.30000000E+03</rscale>
<asrwt>0</asrwt>
<pdfrwt beam="1">  1       21 0.47335813E-02 0.30000000E+03</pdfrwt>
<pdfrwt beam="2">0</pdfrwt>
<totfact> 0.31619210E+04</totfact>
</mgrwt>
</event>
<event>
 6    1  0.1274196E-001  0.3000000E+03  0.7818608E-02  0.1093470E+00
         21   -1    0    0  501  502  0.00000000000E+00  0.00000000000E+00  0.11434607102E+01  0.11434607102E+01  0.00000000000E+00 0. -1.
         13   -1    0    0    0    0 -0.00000000000E+00 -0.00000000000E+00 -0.10000000000E+04  0.10000000000E+04  0.00000000000E+00 0.  1.
    9000005    2    1    2  501    0 -0.83547555808E+01  0.30776108676E+02 -0.33704814513E+03  0.33856718481E+03  0.30521612241E+01 0.  0.
         13    1    3    3    0    0 -0.19815996852E+01  0.91337046003E+01 -0.11306911204E+03  0.11345472839E+03  0.00000000000E+00 0.  1.
          3    1    3    3  501    0 -0.63731558955E+01  0.21642404076E+02 -0.22397903309E+03  0.22511245641E+03  0.00000000000E+00 0.  1.
         -3    1    1    2    0  502  0.83547555808E+01 -0.30776108676E+02 -0.66180839416E+03  0.66257627590E+03  0.00000000000E+00 0. -1.
<mgrwt>
<rscale>  1 0.30000000E+03</rscale>
<asrwt>0</asrwt>
<pdfrwt beam="1">  1       21 0.41580477E-02 0.30000000E+03</pdfrwt>
<pdfrwt beam="2">0</pdfrwt>
<totfact> 0.39388341E+04</totfact>
</mgrwt>
</event>
<event>
 6    1  0.1274196E-001  0.3000000E+03  0.7818608E-02  0.1093470E+00
         21   -1    0    0  501  502  0.00000000000E+00  0.00000000000E+00  0.20479376943E+01  0.20479376943E+01  0.00000000000E+00 0. -1.
         13   -1    0    0    0    0 -0.00000000000E+00 -0.00000000000E+00 -0.10000000000E+04  0.10000000000E+04  0.00000000000E+00 0.  1.
    9000005    2    1    2  501    0 -0.27546130053E+02  0.18798091985E+02 -0.83733957647E+03  0.83800974657E+03  0.32575249634E+01 0.  0.
         13    1    3    3    0    0 -0.97038030961E+01  0.54854830316E+01 -0.31061841395E+03  0.31081836079E+03  0.00000000000E+00 0.  1.
          1    1    3    3  501    0 -0.17842326957E+02  0.13312608953E+02 -0.52672116252E+03  0.52719138577E+03  0.00000000000E+00 0.  1.
         -1    1    1    2    0  502  0.27546130053E+02 -0.18798091985E+02 -0.16061248583E+03  0.16403819113E+03  0.00000000000E+00 0. -1.
<mgrwt>
<rscale>  1 0.30000000E+03</rscale>
<asrwt>0</asrwt>
<pdfrwt beam="1">  1       21 0.74470619E-02 0.30000000E+03</pdfrwt>
<pdfrwt beam="2">0</pdfrwt>
<totfact> 0.14482947E+04</totfact>
</mgrwt>
</event>
<event>
 6    1  0.1274196E-001  0.3000000E+03  0.7818608E-02  0.1093470E+00
         21   -1    0    0  501  502  0.00000000000E+00  0.00000000000E+00  0.35302846950E+01  0.35302846950E+01  0.00000000000E+00 0. -1.
         13   -1    0    0    0    0 -0.00000000000E+00 -0.00000000000E+00 -0.10000000000E+04  0.10000000000E+04  0.00000000000E+00 0.  1.
    9000005    2    1    2  501    0  0.31585280886E+02  0.39232026203E+02 -0.76409276706E+03  0.76575764555E+03  0.31989376088E+01 0.  0.
         13    1    3    3    0    0  0.11409463746E+02  0.12078301668E+02 -0.26291184699E+03  0.26343633105E+03  0.00000000000E+00 0.  1.
          1    1    3    3  501    0  0.20175817140E+02  0.27153724534E+02 -0.50118092007E+03  0.50232131449E+03  0.00000000000E+00 0.  1.
         -1    1    1    2    0  502 -0.31585280886E+02 -0.39232026203E+02 -0.23237694825E+03  0.23777263915E+03  0.00000000000E+00 0. -1.
<mgrwt>
<rscale>  1 0.30000000E+03</rscale>
<asrwt>0</asrwt>
<pdfrwt beam="1">  1       21 0.12837426E-01 0.30000000E+03</pdfrwt>
<pdfrwt beam="2">0</pdfrwt>
<totfact> 0.54809931E+03</totfact>
</mgrwt>
</event>
<event>
 6    1  0.1274196E-001  0.3000000E+03  0.7818608E-02  0.1093470E+00
         21   -1    0    0  501  502  0.00000000000E+00  0.00000000000E+00  0.15404996354E+01  0.15404996354E+01  0.00000000000E+00 0. -1.
         13   -1    0    0    0    0 -0.00000000000E+00 -0.00000000000E+00 -0.10000000000E+04  0.10000000000E+04  0.00000000000E+00 0.  1.
    9000005    2    1    2  501    0  0.37963661270E+02 -0.72063675243E+00 -0.62306655920E+03  0.62423211228E+03  0.34689927613E+01 0.  0.
         13    1    3    3    0    0  0.27187689024E+02 -0.99147840145E+00 -0.42082741907E+03  0.42170590476E+03  0.00000000000E+00 0.  1.
          1    1    3    3  501    0  0.10775972246E+02  0.27084164902E+00 -0.20223914013E+03  0.20252620752E+03  0.00000000000E+00 0.  1.
         -3    1    1    2    0  502 -0.37963661270E+02  0.72063675243E+00 -0.37539294116E+03  0.37730838736E+03  0.00000000000E+00 0. -1.
<mgrwt>
<rscale>  1 0.30000000E+03</rscale>
<asrwt>0</asrwt>
<pdfrwt beam="1">  1       21 0.56018287E-02 0.30000000E+03</pdfrwt>
<pdfrwt beam="2">0</pdfrwt>
<totfact> 0.23715762E+04</totfact>
</mgrwt>
</event>
<event>
 6    1  0.1274196E-001  0.3000000E+03  0.7818608E-02  0.1093470E+00
         21   -1    0    0  501  502  0.00000000000E+00  0.00000000000E+00  0.24336055062E+01  0.24336055062E+01  0.00000000000E+00 0. -1.
         13   -1    0    0    0    0 -0.00000000000E+00 -0.00000000000E+00 -0.10000000000E+04  0.10000000000E+04  0.00000000000E+00 0.  1.
    9000005    2    1    2  501    0  0.15563475707E+02  0.32194274578E+02 -0.84380880425E+03  0.84457262348E+03  0.33053130269E+01 0.  0.
         13    1    3    3    0    0  0.11883479852E+02  0.21120793211E+02 -0.57780982730E+03  0.57831782051E+03  0.00000000000E+00 0.  1.
          1    1    3    3  501    0  0.36799958550E+01  0.11073481367E+02 -0.26599897696E+03  0.26625480296E+03  0.00000000000E+00 0.  1.
         -3    1    1    2    0  502 -0.15563475707E+02 -0.32194274578E+02 -0.15375759024E+03  0.15786098203E+03  0.00000000000E+00 0. -1.
<mgrwt>
<rscale>  1 0.30000000E+03</rscale>
<asrwt>0</asrwt>
<pdfrwt beam="1">  1       21 0.88494932E-02 0.30000000E+03</pdfrwt>
<pdfrwt beam="2">0</pdfrwt>
<totfact> 0.10692603E+04</totfact>
</mgrwt>
</event>
<event>
 6    1  0.1274196E-001  0.3000000E+03  0.7818608E-02  0.1093470E+00
         21   -1    0    0  501  502  0.00000000000E+00  0.00000000000E+00  0.25624939525E+01  0.25624939525E+01  0.00000000000E+00 0. -1.
         13   -1    0    0    0    0 -0.00000000000E+00 -0.00000000000E+00 -0.10000000000E+04  0.10000000000E+04  0.00000000000E+00 0.  1.
    9000005    2    1    2  501    0 -0.24150948421E+02 -0.27656520744E+02 -0.84351863872E+03  0.84432479564E+03  0.35376839186E+01 0.  0.
         13    1    3    3    0    0 -0.66919349722E+01 -0.63106596478E+01 -0.18369563198E+03  0.18392577749E+03  0.00000000000E+00 0.  1.
          3    1    3    3  501    0 -0.17459013448E+02 -0.21345861097E+02 -0.65982300675E+03  0.66039901815E+03  0.00000000000E+00 0.  1.
         -3    1    1    2    0  502  0.24150948421E+02  0.27656520744E+02 -0.15391886733E+03  0.15823769831E+03  0.00000000000E+00 0. -1.
<mgrwt>
<rscale>  1 0.30000000E+03</rscale>
<asrwt>0</asrwt>
<pdfrwt beam="1">  1       21 0.93181795E-02 0.30000000E+03</pdfrwt>
<pdfrwt beam="2">0</pdfrwt>
<totfact> 0.97575616E+03</totfact>
</mgrwt>
</event>
<event>
 6    1  0.1274196E-001  0.3000000E+03  0.7818608E-02  0.1093470E+00
         21   -1    0    0  501  502  0.00000000000E+00  0.00000000000E+00  0.93982304962E+00  0.93982304962E+00  0.00000000000E+00 0. -1.
         13   -1    0    0    0    0 -0.00000000000E+00 -0.00000000000E+00 -0.10000000000E+04  0.10000000000E+04  0.00000000000E+00 0.  1.
    9000005    2    1    2  501    0 -0.29610885500E+02  0.72931929347E+01 -0.53954165202E+03  0.54041048636E+03  0.28817170966E+01 0.  0.
         13    1    3    3    0    0 -0.11253093803E+01  0.47729913919E+00 -0.33106488692E+02  0.33129046609E+02  0.00000000000E+00 0.  1.
          3    1    3    3  501    0 -0.28485576120E+02  0.68158937955E+01 -0.50643516333E+03  0.50728143975E+03  0.00000000000E+00 0.  1.
         -3    1    1    2    0  502  0.29610885500E+02 -0.72931929347E+01 -0.45951852493E+03  0.46052933669E+03  0.00000000000E+00 0. -1.
<mgrwt>
<rscale>  1 0.30000000E+03</rscale>
<asrwt>0</asrwt>
<pdfrwt beam="1">  1       21 0.34175456E-02 0.30000000E+03</pdfrwt>
<pdfrwt beam="2">0</pdfrwt>
<totfact> 0.54757907E+04</totfact>
</mgrwt>
</event>
<event>
 6    1  0.1274196E-001  0.3000000E+03  0.7818608E-02  0.1093470E+00
         21   -1    0    0  501  502  0.00000000000E+00  0.00000000000E+00  0.26519061548E+01  0.26519061548E+01  0.00000000000E+00 0. -1.
         13   -1    0    0    0    0 -0.00000000000E+00 -0.00000000000E+00 -0.10000000000E+04  0.10000000000E+04  0.00000000000E+00 0.  1.
    9000005    2    1    2  501    0  0.89632669403E+01  0.48195252569E+02 -0.65108748115E+03  0.65293840281E+03  0.32445672648E+01 0.  0.
         13    1    3    3    0    0  0.49013511434E+01  0.33588151356E+02 -0.45930712519E+03  0.46055968386E+03  0.00000000000E+00 0.  1.
          3    1    3    3  501    0  0.40619157969E+01  0.14607101213E+02 -0.19178035597E+03  0.19237871894E+03  0.00000000000E+00 0.  1.
         -3    1    1    2    0  502 -0.89632669403E+01 -0.48195252569E+02 -0.34626061269E+03  0.34971350335E+03  0.00000000000E+00 0. -1.
<mgrwt>
<rscale>  1 0.30000000E+03</rscale>
<asrwt>0</asrwt>
<pdfrwt beam="1">  1       21 0.96433154E-02 0.30000000E+03</pdfrwt>
<pdfrwt beam="2">0</pdfrwt>
<totfact> 0.91794313E+03</totfact>
</mgrwt>
</event>
<event>
 6    1  0.1274196E-001  0.3000000E+03  0.7818608E-02  0.1093470E+00
         21   -1    0    0  501  502  0.00000000000E+00  0.00000000000E+00  0.21293014421E+01  0.21293014421E+01  0.00000000000E+00 0. -1.
         13   -1    0    0    0    0 -0.00000000000E+00 -0.00000000000E+00 -0.10000000000E+04  0.10000000000E+04  0.00000000000E+00 0.  1.
    9000005    2    1    2  501    0 -0.39865296491E+02  0.11439636338E+02 -0.71786112325E+03  0.71906487519E+03  0.30976310435E+01 0.  0.
         13    1    3    3    0    0 -0.11335108858E+02  0.25485144995E+01 -0.18061381409E+03  0.18098709749E+03  0.00000000000E+00 0.  1.
          3    1    3    3  501    0 -0.28530187633E+02  0.88911218388E+01 -0.53724730916E+03  0.53807777770E+03  0.00000000000E+00 0.  1.
         -3    1    1    2    0  502  0.39865296491E+02 -0.11439636338E+02 -0.28000957531E+03  0.28306442625E+03  0.00000000000E+00 0. -1.
<mgrwt>
<rscale>  1 0.30000000E+03</rscale>
<asrwt>0</asrwt>
<pdfrwt beam="1">  1       21 0.77429307E-02 0.30000000E+03</pdfrwt>
<pdfrwt beam="2">0</pdfrwt>
<totfact> 0.13527424E+04</totfact>
</mgrwt>
</event>
<event>
 6    1  0.1274196E-001  0.3000000E+03  0.7818608E-02  0.1093470E+00
         21   -1    0    0  501  502  0.00000000000E+00  0.00000000000E+00  0.12048143450E+01  0.12048143450E+01  0.00000000000E+00 0. -1.
         13   -1    0    0    0    0 -0.00000000000E+00 -0.00000000000E+00 -0.10000000000E+04  0.10000000000E+04  0.00000000000E+00 0.  1.
    9000005    2    1    2  501    0 -0.34045312810E+02 -0.56671671489E+01 -0.49517865767E+03  0.49640702576E+03  0.51799707586E+01 0.  0.
         13    1    3    3    0    0 -0.77713633828E+01 -0.24569318784E+01 -0.14540658024E+03  0.14563483162E+03  0.00000000000E+00 0.  1.
          3    1    3    3  501    0 -0.26273949427E+02 -0.32102352704E+01 -0.34977207743E+03  0.35077219413E+03  0.00000000000E+00 0.  1.
         -1    1    1    2    0  502  0.34045312810E+02  0.56671671489E+01 -0.50361652798E+03  0.50479778859E+03  0.00000000000E+00 0. -1.
<mgrwt>
<rscale>  1 0.30000000E+03</rscale>
<asrwt>0</asrwt>
<pdfrwt beam="1">  1       21 0.43811523E-02 0.30000000E+03</pdfrwt>
<pdfrwt beam="2">0</pdfrwt>
<totfact> 0.36057616E+04</totfact>
</mgrwt>
</event>
<event>
 6    1  0.1274196E-001  0.3000000E+03  0.7818608E-02  0.1093470E+00
         21   -1    0    0  501  502  0.00000000000E+00  0.00000000000E+00  0.57069366300E+01  0.57069366300E+01  0.00000000000E+00 0. -1.
         13   -1    0    0    0    0 -0.00000000000E+00 -0.00000000000E+00 -0.10000000000E+04  0.10000000000E+04  0.00000000000E+00 0.  1.
    9000005    2    1    2  501    0  0.42496745795E+02 -0.62265791582E+02 -0.52633613805E+03  0.53171676146E+03  0.31594293476E+01 0.  0.
         13    1    3    3    0    0  0.28030886819E+02 -0.43466305950E+02 -0.35678387251E+03  0.36051322036E+03  0.00000000000E+00 0.  1.
          1    1    3    3  501    0  0.14465858975E+02 -0.18799485631E+02 -0.16955226554E+03  0.17120354110E+03  0.00000000000E+00 0.  1.
         -1    1    1    2    0  502 -0.42496745795E+02  0.62265791582E+02 -0.46795692532E+03  0.47399017517E+03  0.00000000000E+00 0. -1.
<mgrwt>
<rscale>  1 0.30000000E+03</rscale>
<asrwt>0</asrwt>
<pdfrwt beam="1">  1       21 0.20752541E-01 0.30000000E+03</pdfrwt>
<pdfrwt beam="2">0</pdfrwt>
<totfact> 0.22356229E+03</totfact>
</mgrwt>
</event>
<event>
 6    1  0.1274196E-001  0.3000000E+03  0.7818608E-02  0.1093470E+00
         21   -1    0    0  501  502  0.00000000000E+00  0.00000000000E+00  0.18158672323E+01  0.18158672323E+01  0.00000000000E+00 0. -1.
         13   -1    0    0    0    0 -0.00000000000E+00 -0.00000000000E+00 -0.10000000000E+04  0.10000000000E+04  0.00000000000E+00 0.  1.
    9000005    2    1    2  501    0 -0.94092701665E+00 -0.37383086975E+02 -0.73833990663E+03  0.73929462544E+03  0.35135374671E+01 0.  0.
         13    1    3    3    0    0  0.42699229741E+00 -0.31554692643E+02 -0.62812227395E+03  0.62891451882E+03  0.00000000000E+00 0.  1.
          3    1    3    3  501    0 -0.13679193141E+01 -0.58283943319E+01 -0.11021763269E+03  0.11038010663E+03  0.00000000000E+00 0.  1.
         -3    1    1    2    0  502  0.94092701665E+00  0.37383086975E+02 -0.25984422614E+03  0.26252124179E+03  0.00000000000E+00 0. -1.
<mgrwt>
<rscale>  1 0.30000000E+03</rscale>
<asrwt>0</asrwt>
<pdfrwt beam="1">  1       21 0.66031675E-02 0.30000000E+03</pdfrwt>
<pdfrwt beam="2">0</pdfrwt>
<totfact> 0.17856264E+04</totfact>
</mgrwt>
</event>
<event>
 6    1  0.1274196E-001  0.3000000E+03  0.7818608E-02  0.1093470E+00
         21   -1    0    0  501  502  0.00000000000E+00  0.00000000000E+00  0.12821515278E+01  0.12821515278E+01  0.00000000000E+00 0. -1.
         13   -1    0    0    0    0 -0.00000000000E+00 -0.00000000000E+00 -0.10000000000E+04  0.10000000000E+04  0.00000000000E+00 0.  1.
    9000005    2    1    2  501    0  0.31576322200E+02  0.16607927753E+02 -0.47367444830E+03  0.47502797392E+03  0.33474832036E+01 0.  0.
         13    1    3    3    0    0  0.31126230933E+02  0.16094458390E+02 -0.46851118329E+03  0.46981975555E+03  0.00000000000E+00 0.  1.
          3    1    3    3  501    0  0.45009126704E+00  0.51346936375E+00 -0.51632650162E+01  0.52082183675E+01  0.00000000000E+00 0.  1.
         -3    1    1    2    0  502 -0.31576322200E+02 -0.16607927753E+02 -0.52504340017E+03  0.52625417761E+03  0.00000000000E+00 0. -1.
<mgrwt>
<rscale>  1 0.30000000E+03</rscale>
<asrwt>0</asrwt>
<pdfrwt beam="1">  1       21 0.46623790E-02 0.30000000E+03</pdfrwt>
<pdfrwt beam="2">0</pdfrwt>
<totfact> 0.32444582E+04</totfact>
</mgrwt>
</event>
<event>
 6    1  0.1274196E-001  0.3000000E+03  0.7818608E-02  0.1093470E+00
         21   -1    0    0  501  502  0.00000000000E+00  0.00000000000E+00  0.10859640941E+01  0.10859640941E+01  0.00000000000E+00 0. -1.
         13   -1    0    0    0    0 -0.00000000000E+00 -0.00000000000E+00 -0.10000000000E+04  0.10000000000E+04  0.00000000000E+00 0.  1.
    9000005    2    1    2  501    0  0.30004000813E+02  0.24241335744E+01 -0.70112304924E+03  0.70177744730E+03  0.34552669187E+01 0.  0.
         13    1    3    3    0    0  0.44370465761E+01  0.15875595936E+01 -0.10398855843E+03  0.10409528333E+03  0.00000000000E+00 0.  1.
          1    1    3    3  501    0  0.25566954237E+02  0.83657398085E+00 -0.59713449081E+03  0.59768216396E+03  0.00000000000E+00 0.  1.
         -1    1    1    2    0  502 -0.30004000813E+02 -0.24241335744E+01 -0.29779098667E+03  0.29930851680E+03  0.00000000000E+00 0. -1.
<mgrwt>
<rscale>  1 0.30000000E+03</rscale>
<asrwt>0</asrwt>
<pdfrwt beam="1">  1       21 0.39489687E-02 0.30000000E+03</pdfrwt>
<pdfrwt beam="2">0</pdfrwt>
<totfact> 0.42966111E+04</totfact>
</mgrwt>
</event>
<event>
 6    1  0.1274196E-001  0.3000000E+03  0.7818608E-02  0.1093470E+00
         21   -1    0    0  501  502  0.00000000000E+00  0.00000000000E+00  0.29878505403E+01  0.29878505403E+01  0.00000000000E+00 0. -1.
         13   -1    0    0    0    0 -0.00000000000E+00 -0.00000000000E+00 -0.10000000000E+04  0.10000000000E+04  0.00000000000E+00 0.  1.
    9000005    2    1    2  501    0  0.17349764617E+02  0.44778805590E+02 -0.73199697255E+03  0.73365682790E+03  0.11252446147E+02 0.  0.
         13    1    3    3    0    0  0.14423908041E+02  0.30633308626E+02 -0.57527569760E+03  0.57627127030E+03  0.00000000000E+00 0.  1.
          1    1    3    3  501    0  0.29258565755E+01  0.14145496964E+02 -0.15672127495E+03  0.15738555761E+03  0.00000000000E+00 0.  1.
         -1    1    1    2    0  502 -0.17349764617E+02 -0.44778805590E+02 -0.26501517691E+03  0.26933102264E+03  0.00000000000E+00 0. -1.
<mgrwt>
<rscale>  1 0.30000000E+03</rscale>
<asrwt>0</asrwt>
<pdfrwt beam="1">  1       21 0.10864934E-01 0.30000000E+03</pdfrwt>
<pdfrwt beam="2">0</pdfrwt>
<totfact> 0.74149383E+03</totfact>
</mgrwt>
</event>
<event>
 6    1  0.1274196E-001  0.3000000E+03  0.7818608E-02  0.1093470E+00
         21   -1    0    0  501  502  0.00000000000E+00  0.00000000000E+00  0.49608907189E+01  0.49608907189E+01  0.00000000000E+00 0. -1.
         13   -1    0    0    0    0 -0.00000000000E+00 -0.00000000000E+00 -0.10000000000E+04  0.10000000000E+04  0.00000000000E+00 0.  1.
    9000005    2    1    2  501    0 -0.28880158335E+02 -0.38286555882E+02 -0.86481347895E+03  0.86618539323E+03  0.86520618093E+01 0.  0.
         13    1    3    3    0    0 -0.18228832358E+02 -0.29224868807E+02 -0.56902592535E+03  0.57006744075E+03  0.00000000000E+00 0.  1.
          3    1    3    3  501    0 -0.10651325977E+02 -0.90616870751E+01 -0.29578755360E+03  0.29611795248E+03  0.00000000000E+00 0.  1.
         -3    1    1    2    0  502  0.28880158335E+02  0.38286555882E+02 -0.13022563033E+03  0.13877549748E+03  0.00000000000E+00 0. -1.
<mgrwt>
<rscale>  1 0.30000000E+03</rscale>
<asrwt>0</asrwt>
<pdfrwt beam="1">  1       21 0.18039641E-01 0.30000000E+03</pdfrwt>
<pdfrwt beam="2">0</pdfrwt>
<totfact> 0.29174382E+03</totfact>
</mgrwt>
</event>
<event>
 6    1  0.1274196E-001  0.3000000E+03  0.7818608E-02  0.1093470E+00
         21   -1    0    0  501  502  0.00000000000E+00  0.00000000000E+00  0.40980772018E+01  0.40980772018E+01  0.00000000000E+00 0. -1.
         13   -1    0    0    0    0 -0.00000000000E+00 -0.00000000000E+00 -0.10000000000E+04  0.10000000000E+04  0.00000000000E+00 0.  1.
    9000005    2    1    2  501    0 -0.43884198049E+02  0.31311737524E+02 -0.76843386138E+03  0.77032903154E+03  0.31574942165E+01 0.  0.
         13    1    3    3    0    0 -0.13832357985E+02  0.81277943388E+01 -0.22453754619E+03  0.22510998383E+03  0.00000000000E+00 0.  1.
          3    1    3    3  501    0 -0.30051840064E+02  0.23183943186E+02 -0.54389631519E+03  0.54521904771E+03  0.00000000000E+00 0.  1.
         -1    1    1    2    0  502  0.43884198049E+02 -0.31311737524E+02 -0.22746806142E+03  0.23376904566E+03  0.00000000000E+00 0. -1.
<mgrwt>
<rscale>  1 0.30000000E+03</rscale>
<asrwt>0</asrwt>
<pdfrwt beam="1">  1       21 0.14902130E-01 0.30000000E+03</pdfrwt>
<pdfrwt beam="2">0</pdfrwt>
<totfact> 0.41682138E+03</totfact>
</mgrwt>
</event>
<event>
 6    1  0.1274196E-001  0.3000000E+03  0.7818608E-02  0.1093470E+00
         21   -1    0    0  501  502  0.00000000000E+00  0.00000000000E+00  0.17981330418E+01  0.17981330418E+01  0.00000000000E+00 0. -1.
         13   -1    0    0    0    0 -0.00000000000E+00 -0.00000000000E+00 -0.10000000000E+04  0.10000000000E+04  0.00000000000E+00 0.  1.
    9000005    2    1    2  501    0  0.41808731764E+02  0.23689808606E+01 -0.57389284293E+03  0.57542771897E+03  0.32376648283E+01 0.  0.
         13    1    3    3    0    0  0.12475406488E+02  0.21396072961E+01 -0.17850090301E+03  0.17894911585E+03  0.00000000000E+00 0.  1.
          1    1    3    3  501    0  0.29333325275E+02  0.22937356448E+00 -0.39539193992E+03  0.39647860312E+03  0.00000000000E+00 0.  1.
         -1    1    1    2    0  502 -0.41808731764E+02 -0.23689808606E+01 -0.42430902403E+03  0.42637041407E+03  0.00000000000E+00 0. -1.
<mgrwt>
<rscale>  1 0.30000000E+03</rscale>
<asrwt>0</asrwt>
<pdfrwt beam="1">  1       21 0.65386794E-02 0.30000000E+03</pdfrwt>
<pdfrwt beam="2">0</pdfrwt>
<totfact> 0.18162478E+04</totfact>
</mgrwt>
</event>
<event>
 6    1  0.1274196E-001  0.3000000E+03  0.7818608E-02  0.1093470E+00
         21   -1    0    0  501  502  0.00000000000E+00  0.00000000000E+00  0.12511447741E+01  0.12511447741E+01  0.00000000000E+00 0. -1.
         13   -1    0    0    0    0 -0.00000000000E+00 -0.00000000000E+00 -0.10000000000E+04  0.10000000000E+04  0.00000000000E+00 0.  1.
    9000005    2    1    2  501    0  0.23552483271E+02 -0.24864015336E+02 -0.38460831861E+03  0.38615640618E+03  0.45025066178E+01 0.  0.
         13    1    3    3    0    0  0.23591298771E+01 -0.33011028209E+01 -0.62795216439E+02  0.62926162931E+02  0.00000000000E+00 0.  1.
          1    1    3    3  501    0  0.21193353394E+02 -0.21562912515E+02 -0.32181310217E+03  0.32323024325E+03  0.00000000000E+00 0.  1.
         -3    1    1    2    0  502 -0.23552483271E+02  0.24864015336E+02 -0.61414053662E+03  0.61509473859E+03  0.00000000000E+00 0. -1.
<mgrwt>
<rscale>  1 0.30000000E+03</rscale>
<asrwt>0</asrwt>
<pdfrwt beam="1">  1       21 0.45496270E-02 0.30000000E+03</pdfrwt>
<pdfrwt beam="2">0</pdfrwt>
<totfact> 0.33822525E+04</totfact>
</mgrwt>
</event>
<event>
 6    1  0.1274196E-001  0.3000000E+03  0.7818608E-02  0.1093470E+00
         21   -1    0    0  501  502  0.00000000000E+00  0.00000000000E+00  0.42041049910E+01  0.42041049910E+01  0.00000000000E+00 0. -1.
         13   -1    0    0    0    0 -0.00000000000E+00 -0.00000000000E+00 -0.10000000000E+04  0.10000000000E+04  0.00000000000E+00 0.  1.
    9000005    2    1    2  501    0 -0.32120458522E+02  0.47863020114E+02 -0.72679137004E+03  0.72909316918E+03  0.53442705295E+01 0.  0.
         13    1    3    3    0    0 -0.11703998898E+01  0.40569857344E+01 -0.47229490514E+02  0.47417863125E+02  0.00000000000E+00 0.  1.
          1    1    3    3  501    0 -0.30950058632E+02  0.43806034379E+02 -0.67956187953E+03  0.68167530606E+03  0.00000000000E+00 0.  1.
         -3    1    1    2    0  502  0.32120458522E+02 -0.47863020114E+02 -0.26900452497E+03  0.27511093581E+03  0.00000000000E+00 0. -1.
<mgrwt>
<rscale>  1 0.30000000E+03</rscale>
<asrwt>0</asrwt>
<pdfrwt beam="1">  1       21 0.15287687E-01 0.30000000E+03</pdfrwt>
<pdfrwt beam="2">0</pdfrwt>
<totfact> 0.39755900E+03</totfact>
</mgrwt>
</event>
<event>
 6    1  0.1274196E-001  0.3000000E+03  0.7818608E-02  0.1093470E+00
         21   -1    0    0  501  502  0.00000000000E+00  0.00000000000E+00  0.13837460588E+01  0.13837460588E+01  0.00000000000E+00 0. -1.
         13   -1    0    0    0    0 -0.00000000000E+00 -0.00000000000E+00 -0.10000000000E+04  0.10000000000E+04  0.00000000000E+00 0.  1.
    9000005    2    1    2  501    0 -0.52503593731E+01 -0.31312782113E+02 -0.75933906064E+03  0.76000928214E+03  0.32005203652E+01 0.  0.
         13    1    3    3    0    0 -0.45703677287E+01 -0.21070238274E+02 -0.53969600309E+03  0.54012648421E+03  0.00000000000E+00 0.  1.
          3    1    3    3  501    0 -0.67999164445E+00 -0.10242543839E+02 -0.21964305756E+03  0.21988279793E+03  0.00000000000E+00 0.  1.
         -3    1    1    2    0  502  0.52503593731E+01  0.31312782113E+02 -0.23927719330E+03  0.24137446392E+03  0.00000000000E+00 0. -1.
<mgrwt>
<rscale>  1 0.30000000E+03</rscale>
<asrwt>0</asrwt>
<pdfrwt beam="1">  1       21 0.50318145E-02 0.30000000E+03</pdfrwt>
<pdfrwt beam="2">0</pdfrwt>
<totfact> 0.28494831E+04</totfact>
</mgrwt>
</event>
<event>
 6    1  0.1274196E-001  0.3000000E+03  0.7818608E-02  0.1093470E+00
         21   -1    0    0  501  502  0.00000000000E+00  0.00000000000E+00  0.33872082857E+01  0.33872082857E+01  0.00000000000E+00 0. -1.
         13   -1    0    0    0    0 -0.00000000000E+00 -0.00000000000E+00 -0.10000000000E+04  0.10000000000E+04  0.00000000000E+00 0.  1.
    9000005    2    1    2  501    0  0.35103252126E+02 -0.24249560923E+02 -0.83934523414E+03  0.84043517798E+03  0.32537364268E+01 0.  0.
         13    1    3    3    0    0  0.18257711544E+02 -0.12476653770E+02 -0.40308995867E+03  0.40369608086E+03  0.00000000000E+00 0.  1.
          1    1    3    3  501    0  0.16845540582E+02 -0.11772907153E+02 -0.43625527547E+03  0.43673909712E+03  0.00000000000E+00 0.  1.
         -1    1    1    2    0  502 -0.35103252126E+02  0.24249560923E+02 -0.15726755757E+03  0.16295203030E+03  0.00000000000E+00 0. -1.
<mgrwt>
<rscale>  1 0.30000000E+03</rscale>
<asrwt>0</asrwt>
<pdfrwt beam="1">  1       21 0.12317147E-01 0.30000000E+03</pdfrwt>
<pdfrwt beam="2">0</pdfrwt>
<totfact> 0.59101455E+03</totfact>
</mgrwt>
</event>
<event>
 6    1  0.1274196E-001  0.3000000E+03  0.7818608E-02  0.1093470E+00
         21   -1    0    0  501  502  0.00000000000E+00  0.00000000000E+00  0.16045538575E+01  0.16045538575E+01  0.00000000000E+00 0. -1.
         13   -1    0    0    0    0 -0.00000000000E+00 -0.00000000000E+00 -0.10000000000E+04  0.10000000000E+04  0.00000000000E+00 0.  1.
    9000005    2    1    2  501    0 -0.20239304566E+02 -0.24467781894E+02 -0.80395587976E+03  0.80458920731E+03  0.32301887449E+01 0.  0.
         13    1    3    3    0    0 -0.20203467554E+02 -0.24513751373E+02 -0.79664422135E+03  0.79727731657E+03  0.00000000000E+00 0.  1.
          3    1    3    3  501    0 -0.35837011968E-01  0.45969479616E-01 -0.73116584124E+01  0.73118907421E+01  0.00000000000E+00 0.  1.
         -3    1    1    2    0  502  0.20239304566E+02  0.24467781894E+02 -0.19443956638E+03  0.19701534655E+03  0.00000000000E+00 0. -1.
<mgrwt>
<rscale>  1 0.30000000E+03</rscale>
<asrwt>0</asrwt>
<pdfrwt beam="1">  1       21 0.58347536E-02 0.30000000E+03</pdfrwt>
<pdfrwt beam="2">0</pdfrwt>
<totfact> 0.22110857E+04</totfact>
</mgrwt>
</event>
<event>
 6    1  0.1274196E-001  0.3000000E+03  0.7818608E-02  0.1093470E+00
         21   -1    0    0  501  502  0.00000000000E+00  0.00000000000E+00  0.11076828987E+01  0.11076828987E+01  0.00000000000E+00 0. -1.
         13   -1    0    0    0    0 -0.00000000000E+00 -0.00000000000E+00 -0.10000000000E+04  0.10000000000E+04  0.00000000000E+00 0.  1.
    9000005    2    1    2  501    0 -0.27216161122E+02 -0.17816165931E+02 -0.43449742380E+03  0.43577616000E+03  0.73969685401E+01 0.  0.
         13    1    3    3    0    0 -0.12288570684E+02 -0.12006424446E+02 -0.24613401284E+03  0.24673288283E+03  0.00000000000E+00 0.  1.
          3    1    3    3  501    0 -0.14927590438E+02 -0.58097414852E+01 -0.18836341096E+03  0.18904327717E+03  0.00000000000E+00 0.  1.
         -1    1    1    2    0  502  0.27216161122E+02  0.17816165931E+02 -0.56439489330E+03  0.56533152290E+03  0.00000000000E+00 0. -1.
<mgrwt>
<rscale>  1 0.30000000E+03</rscale>
<asrwt>0</asrwt>
<pdfrwt beam="1">  1       21 0.40279463E-02 0.30000000E+03</pdfrwt>
<pdfrwt beam="2">0</pdfrwt>
<totfact> 0.41557123E+04</totfact>
</mgrwt>
</event>
<event>
 6    1  0.1274196E-001  0.3000000E+03  0.7818608E-02  0.1093470E+00
         21   -1    0    0  501  502  0.00000000000E+00  0.00000000000E+00  0.95756887046E+00  0.95756887046E+00  0.00000000000E+00 0. -1.
         13   -1    0    0    0    0 -0.00000000000E+00 -0.00000000000E+00 -0.10000000000E+04  0.10000000000E+04  0.00000000000E+00 0.  1.
    9000005    2    1    2  501    0 -0.13231931731E+02  0.27616813170E+02 -0.54751871573E+03  0.54839659182E+03  0.49300558251E+01 0.  0.
         13    1    3    3    0    0 -0.69930858172E+01  0.19535367816E+02 -0.35076171021E+03  0.35137488697E+03  0.00000000000E+00 0.  1.
          1    1    3    3  501    0 -0.62388459138E+01  0.80814453542E+01 -0.19675700552E+03  0.19702170484E+03  0.00000000000E+00 0.  1.
         -3    1    1    2    0  502  0.13231931731E+02 -0.27616813170E+02 -0.45152371540E+03  0.45256097706E+03  0.00000000000E+00 0. -1.
<mgrwt>
<rscale>  1 0.30000000E+03</rscale>
<asrwt>0</asrwt>
<pdfrwt beam="1">  1       21 0.34820760E-02 0.30000000E+03</pdfrwt>
<pdfrwt beam="2">0</pdfrwt>
<totfact> 0.53071032E+04</totfact>
</mgrwt>
</event>
<event>
 6    1  0.1274196E-001  0.3000000E+03  0.7818608E-02  0.1093470E+00
         21   -1    0    0  501  502  0.00000000000E+00  0.00000000000E+00  0.22455066918E+01  0.22455066918E+01  0.00000000000E+00 0. -1.
         13   -1    0    0    0    0 -0.00000000000E+00 -0.00000000000E+00 -0.10000000000E+04  0.10000000000E+04  0.00000000000E+00 0.  1.
    9000005    2    1    2  501    0  0.14104023404E+02  0.28972878908E+02 -0.86603388952E+03  0.86664068137E+03  0.36085480334E+01 0.  0.
         13    1    3    3    0    0  0.86115280603E+01  0.17035010461E+02 -0.55874000566E+03  0.55906595669E+03  0.00000000000E+00 0.  1.
          3    1    3    3  501    0  0.54924953436E+01  0.11937868448E+02 -0.30729388385E+03  0.30757472468E+03  0.00000000000E+00 0.  1.
         -1    1    1    2    0  502 -0.14104023404E+02 -0.28972878908E+02 -0.13172060379E+03  0.13560482533E+03  0.00000000000E+00 0. -1.
<mgrwt>
<rscale>  1 0.30000000E+03</rscale>
<asrwt>0</asrwt>
<pdfrwt beam="1">  1       21 0.81654961E-02 0.30000000E+03</pdfrwt>
<pdfrwt beam="2">0</pdfrwt>
<totfact> 0.12322352E+04</totfact>
</mgrwt>
</event>
<event>
 6    1  0.1274196E-001  0.3000000E+03  0.7818608E-02  0.1093470E+00
         21   -1    0    0  501  502  0.00000000000E+00  0.00000000000E+00  0.12091319769E+01  0.12091319769E+01  0.00000000000E+00 0. -1.
         13   -1    0    0    0    0 -0.00000000000E+00 -0.00000000000E+00 -0.10000000000E+04  0.10000000000E+04  0.00000000000E+00 0.  1.
    9000005    2    1    2  501    0 -0.31397975195E+02  0.28655399431E+01 -0.70956159142E+03  0.71026649398E+03  0.26069664216E+01 0.  0.
         13    1    3    3    0    0 -0.16541720546E+02  0.52437737683E+00 -0.35248118578E+03  0.35286950821E+03  0.00000000000E+00 0.  1.
          3    1    3    3  501    0 -0.14856254649E+02  0.23411625663E+01 -0.35708040564E+03  0.35739698577E+03  0.00000000000E+00 0.  1.
         -1    1    1    2    0  502  0.31397975195E+02 -0.28655399431E+01 -0.28922927660E+03  0.29094263800E+03  0.00000000000E+00 0. -1.
<mgrwt>
<rscale>  1 0.30000000E+03</rscale>
<asrwt>0</asrwt>
<pdfrwt beam="1">  1       21 0.43968528E-02 0.30000000E+03</pdfrwt>
<pdfrwt beam="2">0</pdfrwt>
<totfact> 0.35839817E+04</totfact>
</mgrwt>
</event>
<event>
 6    1  0.1274196E-001  0.3000000E+03  0.7818608E-02  0.1093470E+00
         21   -1    0    0  501  502  0.00000000000E+00  0.00000000000E+00  0.27271595422E+01  0.27271595422E+01  0.00000000000E+00 0. -1.
         13   -1    0    0    0    0 -0.00000000000E+00 -0.00000000000E+00 -0.10000000000E+04  0.10000000000E+04  0.00000000000E+00 0.  1.
    9000005    2    1    2  501    0  0.15435796347E+02  0.48763912680E+02 -0.59763384855E+03  0.59982828037E+03  0.34008829633E+01 0.  0.
         13    1    3    3    0    0  0.11268404092E+02  0.30167565183E+02 -0.37684490880E+03  0.37821838164E+03  0.00000000000E+00 0.  1.
          3    1    3    3  501    0  0.41673922542E+01  0.18596347497E+02 -0.22078893975E+03  0.22160989873E+03  0.00000000000E+00 0.  1.
         -3    1    1    2    0  502 -0.15435796347E+02 -0.48763912680E+02 -0.39963899190E+03  0.40289887917E+03  0.00000000000E+00 0. -1.
<mgrwt>
<rscale>  1 0.30000000E+03</rscale>
<asrwt>0</asrwt>
<pdfrwt beam="1">  1       21 0.99169647E-02 0.30000000E+03</pdfrwt>
<pdfrwt beam="2">0</pdfrwt>
<totfact> 0.87323043E+03</totfact>
</mgrwt>
</event>
<event>
 6    1  0.1274196E-001  0.3000000E+03  0.7818608E-02  0.1093470E+00
         21   -1    0    0  501  502  0.00000000000E+00  0.00000000000E+00  0.11190264930E+01  0.11190264930E+01  0.00000000000E+00 0. -1.
         13   -1    0    0    0    0 -0.00000000000E+00 -0.00000000000E+00 -0.10000000000E+04  0.10000000000E+04  0.00000000000E+00 0.  1.
    9000005    2    1    2  501    0 -0.30973196096E+02  0.13874789365E+01 -0.31619329012E+03  0.31772767666E+03  0.33787315053E+01 0.  0.
         13    1    3    3    0    0 -0.24230404380E+01 -0.79806335435E+00 -0.24675137923E+02  0.24806661637E+02  0.00000000000E+00 0.  1.
          3    1    3    3  501    0 -0.28550155658E+02  0.21855422909E+01 -0.29151815220E+03  0.29292101502E+03  0.00000000000E+00 0.  1.
         -3    1    1    2    0  502  0.30973196096E+02 -0.13874789365E+01 -0.68268768339E+03  0.68339134983E+03  0.00000000000E+00 0. -1.
<mgrwt>
<rscale>  1 0.30000000E+03</rscale>
<asrwt>0</asrwt>
<pdfrwt beam="1">  1       21 0.40691958E-02 0.30000000E+03</pdfrwt>
<pdfrwt beam="2">0</pdfrwt>
<totfact> 0.40849723E+04</totfact>
</mgrwt>
</event>
<event>
 6    1  0.1274196E-001  0.3000000E+03  0.7818608E-02  0.1093470E+00
         21   -1    0    0  501  502  0.00000000000E+00  0.00000000000E+00  0.18760819564E+01  0.18760819564E+01  0.00000000000E+00 0. -1.
         13   -1    0    0    0    0 -0.00000000000E+00 -0.00000000000E+00 -0.10000000000E+04  0.10000000000E+04  0.00000000000E+00 0.  1.
    9000005    2    1    2  501    0 -0.12680256794E+02  0.38854932360E+02 -0.66362626560E+03  0.66489066065E+03  0.30455784039E+01 0.  0.
         13    1    3    3    0    0 -0.54517837248E+00  0.51566609464E+00 -0.96300977296E+01  0.96592915507E+01  0.00000000000E+00 0.  1.
          1    1    3    3  501    0 -0.12135078422E+02  0.38339266265E+02 -0.65399616787E+03  0.65523136910E+03  0.00000000000E+00 0.  1.
         -3    1    1    2    0  502  0.12680256794E+02 -0.38854932360E+02 -0.33449765245E+03  0.33698542131E+03  0.00000000000E+00 0. -1.
<mgrwt>
<rscale>  1 0.30000000E+03</rscale>
<asrwt>0</asrwt>
<pdfrwt beam="1">  1       21 0.68221306E-02 0.30000000E+03</pdfrwt>
<pdfrwt beam="2">0</pdfrwt>
<totfact> 0.16873710E+04</totfact>
</mgrwt>
</event>
<event>
 6    1  0.1274196E-001  0.3000000E+03  0.7818608E-02  0.1093470E+00
         21   -1    0    0  501  502  0.00000000000E+00  0.00000000000E+00  0.19636664450E+01  0.19636664450E+01  0.00000000000E+00 0. -1.
         13   -1    0    0    0    0 -0.00000000000E+00 -0.00000000000E+00 -0.10000000000E+04  0.10000000000E+04  0.00000000000E+00 0.  1.
    9000005    2    1    2  501    0 -0.21045723047E+01 -0.40330685702E+02 -0.70098009021E+03  0.70217473212E+03  0.67286047964E+01 0.  0.
         13    1    3    3    0    0 -0.11886317120E+01 -0.39913600261E+02 -0.68529038734E+03  0.68645278302E+03  0.00000000000E+00 0.  1.
          3    1    3    3  501    0 -0.91594059266E+00 -0.41708544155E+00 -0.15689702870E+02  0.15721949102E+02  0.00000000000E+00 0.  1.
         -1    1    1    2    0  502  0.21045723047E+01  0.40330685702E+02 -0.29705624334E+03  0.29978893432E+03  0.00000000000E+00 0. -1.
<mgrwt>
<rscale>  1 0.30000000E+03</rscale>
<asrwt>0</asrwt>
<pdfrwt beam="1">  1       21 0.71406203E-02 0.30000000E+03</pdfrwt>
<pdfrwt beam="2">0</pdfrwt>
<totfact> 0.15585884E+04</totfact>
</mgrwt>
</event>
<event>
 6    1  0.1274196E-001  0.3000000E+03  0.7818608E-02  0.1093470E+00
         21   -1    0    0  501  502  0.00000000000E+00  0.00000000000E+00  0.10750930202E+01  0.10750930202E+01  0.00000000000E+00 0. -1.
         13   -1    0    0    0    0 -0.00000000000E+00 -0.00000000000E+00 -0.10000000000E+04  0.10000000000E+04  0.00000000000E+00 0.  1.
    9000005    2    1    2  501    0  0.30023078138E+02 -0.53437886240E+01 -0.31897524926E+03  0.32044194783E+03  0.28090907870E+01 0.  0.
         13    1    3    3    0    0  0.10759412935E+02 -0.22376091184E+01 -0.10155875237E+03  0.10215161303E+03  0.00000000000E+00 0.  1.
          3    1    3    3  501    0  0.19263665203E+02 -0.31061795055E+01 -0.21741649689E+03  0.21829033480E+03  0.00000000000E+00 0.  1.
         -1    1    1    2    0  502 -0.30023078138E+02  0.53437886240E+01 -0.67994965772E+03  0.68063314519E+03  0.00000000000E+00 0. -1.
<mgrwt>
<rscale>  1 0.30000000E+03</rscale>
<asrwt>0</asrwt>
<pdfrwt beam="1">  1       21 0.39094374E-02 0.30000000E+03</pdfrwt>
<pdfrwt beam="2">0</pdfrwt>
<totfact> 0.43699646E+04</totfact>
</mgrwt>
</event>
<event>
 6    1  0.1274196E-001  0.3000000E+03  0.7818608E-02  0.1093470E+00
         21   -1    0    0  501  502  0.00000000000E+00  0.00000000000E+00  0.55553060269E+01  0.55553060269E+01  0.00000000000E+00 0. -1.
         13   -1    0    0    0    0 -0.00000000000E+00 -0.00000000000E+00 -0.10000000000E+04  0.10000000000E+04  0.00000000000E+00 0.  1.
    9000005    2    1    2  501    0 -0.38121763720E+02 -0.39756942054E+02 -0.83586951651E+03  0.83768639819E+03  0.26018787968E+01 0.  0.
         13    1    3    3    0    0 -0.22300367174E+02 -0.23546255862E+02 -0.51117931822E+03  0.51220701666E+03  0.00000000000E+00 0.  1.
          3    1    3    3  501    0 -0.15821396546E+02 -0.16210686191E+02 -0.32469019829E+03  0.32547938153E+03  0.00000000000E+00 0.  1.
         -1    1    1    2    0  502  0.38121763720E+02  0.39756942054E+02 -0.15857517747E+03  0.16786890784E+03  0.00000000000E+00 0. -1.
<mgrwt>
<rscale>  1 0.30000000E+03</rscale>
<asrwt>0</asrwt>
<pdfrwt beam="1">  1       21 0.20201155E-01 0.30000000E+03</pdfrwt>
<pdfrwt beam="2">0</pdfrwt>
<totfact> 0.23537977E+03</totfact>
</mgrwt>
</event>
<event>
 6    1  0.1274196E-001  0.3000000E+03  0.7818608E-02  0.1093470E+00
         21   -1    0    0  501  502  0.00000000000E+00  0.00000000000E+00  0.12161334703E+01  0.12161334703E+01  0.00000000000E+00 0. -1.
         13   -1    0    0    0    0 -0.00000000000E+00 -0.00000000000E+00 -0.10000000000E+04  0.10000000000E+04  0.00000000000E+00 0.  1.
    9000005    2    1    2  501    0  0.19808660004E+02  0.23530230164E+02 -0.73414368750E+03  0.73479451442E+03  0.31574953492E+01 0.  0.
         13    1    3    3    0    0  0.92741703113E+01  0.11301271632E+02 -0.38632374629E+03  0.38660026633E+03  0.00000000000E+00 0.  1.
          1    1    3    3  501    0  0.10534489692E+02  0.12228958532E+02 -0.34781994121E+03  0.34819424809E+03  0.00000000000E+00 0.  1.
         -3    1    1    2    0  502 -0.19808660004E+02 -0.23530230164E+02 -0.26464017903E+03  0.26642161905E+03  0.00000000000E+00 0. -1.
<mgrwt>
<rscale>  1 0.30000000E+03</rscale>
<asrwt>0</asrwt>
<pdfrwt beam="1">  1       21 0.44223129E-02 0.30000000E+03</pdfrwt>
<pdfrwt beam="2">0</pdfrwt>
<totfact> 0.35490934E+04</totfact>
</mgrwt>
</event>
<event>
 6    1  0.1274196E-001  0.3000000E+03  0.7818608E-02  0.1093470E+00
         21   -1    0    0  501  502  0.00000000000E+00  0.00000000000E+00  0.15642240457E+01  0.15642240457E+01  0.00000000000E+00 0. -1.
         13   -1    0    0    0    0 -0.00000000000E+00 -0.00000000000E+00 -0.10000000000E+04  0.10000000000E+04  0.00000000000E+00 0.  1.
    9000005    2    1    2  501    0 -0.20760843307E+02  0.33421397056E+02 -0.54449193279E+03  0.54591851174E+03  0.27484888194E+01 0.  0.
         13    1    3    3    0    0 -0.89242592888E+01  0.16663621926E+02 -0.25218384448E+03  0.25289130099E+03  0.00000000000E+00 0.  1.
          3    1    3    3  501    0 -0.11836584018E+02  0.16757775130E+02 -0.29230808831E+03  0.29302721075E+03  0.00000000000E+00 0.  1.
         -3    1    1    2    0  502  0.20760843307E+02 -0.33421397056E+02 -0.45394384317E+03  0.45564571231E+03  0.00000000000E+00 0. -1.
<mgrwt>
<rscale>  1 0.30000000E+03</rscale>
<asrwt>0</asrwt>
<pdfrwt beam="1">  1       21 0.56880994E-02 0.30000000E+03</pdfrwt>
<pdfrwt beam="2">0</pdfrwt>
<totfact> 0.23101125E+04</totfact>
</mgrwt>
</event>
<event>
 6    1  0.1274196E-001  0.3000000E+03  0.7818608E-02  0.1093470E+00
         21   -1    0    0  501  502  0.00000000000E+00  0.00000000000E+00  0.12400833046E+01  0.12400833046E+01  0.00000000000E+00 0. -1.
         13   -1    0    0    0    0 -0.00000000000E+00 -0.00000000000E+00 -0.10000000000E+04  0.10000000000E+04  0.00000000000E+00 0.  1.
    9000005    2    1    2  501    0 -0.43729106507E+01 -0.34819826462E+02 -0.47758540483E+03  0.47888540066E+03  0.34446184800E+01 0.  0.
         13    1    3    3    0    0 -0.36628856971E+01 -0.26744880786E+02 -0.38543932926E+03  0.38638346486E+03  0.00000000000E+00 0.  1.
          3    1    3    3  501    0 -0.71002495363E+00 -0.80749456756E+01 -0.92146075570E+02  0.92501935797E+02  0.00000000000E+00 0.  1.
         -1    1    1    2    0  502  0.43729106507E+01  0.34819826462E+02 -0.52117451187E+03  0.52235468265E+03  0.00000000000E+00 0. -1.
<mgrwt>
<rscale>  1 0.30000000E+03</rscale>
<asrwt>0</asrwt>
<pdfrwt beam="1">  1       21 0.45094033E-02 0.30000000E+03</pdfrwt>
<pdfrwt beam="2">0</pdfrwt>
<totfact> 0.34336337E+04</totfact>
</mgrwt>
</event>
<event>
 6    1  0.1274196E-001  0.3000000E+03  0.7818608E-02  0.1093470E+00
         21   -1    0    0  501  502  0.00000000000E+00  0.00000000000E+00  0.13015008667E+02  0.13015008667E+02  0.00000000000E+00 0. -1.
         13   -1    0    0    0    0 -0.00000000000E+00 -0.00000000000E+00 -0.10000000000E+04  0.10000000000E+04  0.00000000000E+00 0.  1.
    9000005    2    1    2  501    0  0.93095623138E+02  0.54071321119E+02 -0.32638960659E+03  0.34370434451E+03  0.34638602820E+01 0.  0.
         13    1    3    3    0    0  0.30740483129E+02  0.18367458179E+02 -0.10360068671E+03  0.10961497667E+03  0.00000000000E+00 0.  1.
          1    1    3    3  501    0  0.62355140009E+02  0.35703862940E+02 -0.22278891988E+03  0.23408936784E+03  0.00000000000E+00 0.  1.
         -1    1    1    2    0  502 -0.93095623138E+02 -0.54071321119E+02 -0.66059538474E+03  0.66931066416E+03  0.00000000000E+00 0. -1.
<mgrwt>
<rscale>  1 0.30000000E+03</rscale>
<asrwt>0</asrwt>
<pdfrwt beam="1">  1       21 0.47327404E-01 0.30000000E+03</pdfrwt>
<pdfrwt beam="2">0</pdfrwt>
<totfact> 0.42297367E+02</totfact>
</mgrwt>
</event>
<event>
 6    1  0.1274196E-001  0.3000000E+03  0.7818608E-02  0.1093470E+00
         21   -1    0    0  501  502  0.00000000000E+00  0.00000000000E+00  0.31796934562E+01  0.31796934562E+01  0.00000000000E+00 0. -1.
         13   -1    0    0    0    0 -0.00000000000E+00 -0.00000000000E+00 -0.10000000000E+04  0.10000000000E+04  0.00000000000E+00 0.  1.
    9000005    2    1    2  501    0 -0.36222575190E+02  0.42192240141E+02 -0.57956390592E+03  0.58223413410E+03  0.31631918297E+01 0.  0.
         13    1    3    3    0    0 -0.25484755413E+01  0.24401657911E+01 -0.30174751408E+02  0.30380335074E+02  0.00000000000E+00 0.  1.
          3    1    3    3  501    0 -0.33674099648E+02  0.39752074350E+02 -0.54938915451E+03  0.55185379903E+03  0.00000000000E+00 0.  1.
         -3    1    1    2    0  502  0.36222575190E+02 -0.42192240141E+02 -0.41725640062E+03  0.42094555936E+03  0.00000000000E+00 0. -1.
<mgrwt>
<rscale>  1 0.30000000E+03</rscale>
<asrwt>0</asrwt>
<pdfrwt beam="1">  1       21 0.11562546E-01 0.30000000E+03</pdfrwt>
<pdfrwt beam="2">0</pdfrwt>
<totfact> 0.66282663E+03</totfact>
</mgrwt>
</event>
<event>
 6    1  0.1274196E-001  0.3000000E+03  0.7818608E-02  0.1093470E+00
         21   -1    0    0  501  502  0.00000000000E+00  0.00000000000E+00  0.18318815284E+01  0.18318815284E+01  0.00000000000E+00 0. -1.
         13   -1    0    0    0    0 -0.00000000000E+00 -0.00000000000E+00 -0.10000000000E+04  0.10000000000E+04  0.00000000000E+00 0.  1.
    9000005    2    1    2  501    0  0.33962288777E+02  0.21283797218E+02 -0.32696265012E+03  0.32943079748E+03  0.36930573369E+01 0.  0.
         13    1    3    3    0    0  0.20991489339E+01  0.24895455461E+01 -0.26997448538E+02  0.27193133155E+02  0.00000000000E+00 0.  1.
          3    1    3    3  501    0  0.31863139843E+02  0.18794251672E+02 -0.29996520159E+03  0.30223766433E+03  0.00000000000E+00 0.  1.
         -1    1    1    2    0  502 -0.33962288777E+02 -0.21283797218E+02 -0.67120546835E+03  0.67240108404E+03  0.00000000000E+00 0. -1.
<mgrwt>
<rscale>  1 0.30000000E+03</rscale>
<asrwt>0</asrwt>
<pdfrwt beam="1">  1       21 0.66614014E-02 0.30000000E+03</pdfrwt>
<pdfrwt beam="2">0</pdfrwt>
<totfact> 0.17586527E+04</totfact>
</mgrwt>
</event>
<event>
 6    1  0.1274196E-001  0.3000000E+03  0.7818608E-02  0.1093470E+00
         21   -1    0    0  501  502  0.00000000000E+00  0.00000000000E+00  0.22067356754E+01  0.22067356754E+01  0.00000000000E+00 0. -1.
         13   -1    0    0    0    0 -0.00000000000E+00 -0.00000000000E+00 -0.10000000000E+04  0.10000000000E+04  0.00000000000E+00 0.  1.
    9000005    2    1    2  501    0  0.49416164680E+00  0.34494282790E+02 -0.83830181882E+03  0.83902701595E+03  0.51277981746E+01 0.  0.
         13    1    3    3    0    0  0.91674226951E+00  0.15984119474E+02 -0.33010018327E+03  0.33048821989E+03  0.00000000000E+00 0.  1.
          3    1    3    3  501    0 -0.42258062271E+00  0.18510163316E+02 -0.50820163554E+03  0.50853879605E+03  0.00000000000E+00 0.  1.
         -1    1    1    2    0  502 -0.49416164680E+00 -0.34494282790E+02 -0.15949144551E+03  0.16317971973E+03  0.00000000000E+00 0. -1.
<mgrwt>
<rscale>  1 0.30000000E+03</rscale>
<asrwt>0</asrwt>
<pdfrwt beam="1">  1       21 0.80245103E-02 0.30000000E+03</pdfrwt>
<pdfrwt beam="2">0</pdfrwt>
<totfact> 0.12705410E+04</totfact>
</mgrwt>
</event>
<event>
 6    1  0.1274196E-001  0.3000000E+03  0.7818608E-02  0.1093470E+00
         21   -1    0    0  501  502  0.00000000000E+00  0.00000000000E+00  0.48236878443E+01  0.48236878443E+01  0.00000000000E+00 0. -1.
         13   -1    0    0    0    0 -0.00000000000E+00 -0.00000000000E+00 -0.10000000000E+04  0.10000000000E+04  0.00000000000E+00 0.  1.
    9000005    2    1    2  501    0  0.89326276539E+01 -0.56522519570E+02 -0.78217285612E+03  0.78426743802E+03  0.25397687416E+01 0.  0.
         13    1    3    3    0    0  0.55419723063E+01 -0.32359984369E+02 -0.43241076654E+03  0.43365533902E+03  0.00000000000E+00 0.  1.
          3    1    3    3  501    0  0.33906553475E+01 -0.24162535201E+02 -0.34976208959E+03  0.35061209900E+03  0.00000000000E+00 0.  1.
         -1    1    1    2    0  502 -0.89326276539E+01  0.56522519570E+02 -0.21300345603E+03  0.22055624982E+03  0.00000000000E+00 0. -1.
<mgrwt>
<rscale>  1 0.30000000E+03</rscale>
<asrwt>0</asrwt>
<pdfrwt beam="1">  1       21 0.17540720E-01 0.30000000E+03</pdfrwt>
<pdfrwt beam="2">0</pdfrwt>
<totfact> 0.30754899E+03</totfact>
</mgrwt>
</event>
<event>
 6    1  0.1274196E-001  0.3000000E+03  0.7818608E-02  0.1093470E+00
         21   -1    0    0  501  502  0.00000000000E+00  0.00000000000E+00  0.16937776287E+01  0.16937776287E+01  0.00000000000E+00 0. -1.
         13   -1    0    0    0    0 -0.00000000000E+00 -0.00000000000E+00 -0.10000000000E+04  0.10000000000E+04  0.00000000000E+00 0.  1.
    9000005    2    1    2  501    0  0.14503903731E+01  0.38177922832E+02 -0.68438855494E+03  0.68545975139E+03  0.27783488317E+01 0.  0.
         13    1    3    3    0    0  0.10231657333E+01  0.42991207675E+01 -0.75278662384E+02  0.75408264254E+02  0.00000000000E+00 0.  1.
          1    1    3    3  501    0  0.42722463982E+00  0.33878802065E+02 -0.60910989255E+03  0.61005148713E+03  0.00000000000E+00 0.  1.
         -3    1    1    2    0  502 -0.14503903731E+01 -0.38177922832E+02 -0.31391766744E+03  0.31623402624E+03  0.00000000000E+00 0. -1.
<mgrwt>
<rscale>  1 0.30000000E+03</rscale>
<asrwt>0</asrwt>
<pdfrwt beam="1">  1       21 0.61592044E-02 0.30000000E+03</pdfrwt>
<pdfrwt beam="2">0</pdfrwt>
<totfact> 0.20140639E+04</totfact>
</mgrwt>
</event>
<event>
 6    1  0.1274196E-001  0.3000000E+03  0.7818608E-02  0.1093470E+00
         21   -1    0    0  501  502  0.00000000000E+00  0.00000000000E+00  0.23344707155E+01  0.23344707155E+01  0.00000000000E+00 0. -1.
         13   -1    0    0    0    0 -0.00000000000E+00 -0.00000000000E+00 -0.10000000000E+04  0.10000000000E+04  0.00000000000E+00 0.  1.
    9000005    2    1    2  501    0  0.21201188502E+01  0.32452199167E+02 -0.86910306127E+03  0.86972244895E+03  0.44007912915E+01 0.  0.
         13    1    3    3    0    0  0.26749488106E+01  0.15334371404E+02 -0.37608107253E+03  0.37640307041E+03  0.00000000000E+00 0.  1.
          1    1    3    3  501    0 -0.55482996043E+00  0.17117827763E+02 -0.49302198874E+03  0.49331937854E+03  0.00000000000E+00 0.  1.
         -1    1    1    2    0  502 -0.21201188502E+01 -0.32452199167E+02 -0.12856246801E+03  0.13261202176E+03  0.00000000000E+00 0. -1.
<mgrwt>
<rscale>  1 0.30000000E+03</rscale>
<asrwt>0</asrwt>
<pdfrwt beam="1">  1       21 0.84890023E-02 0.30000000E+03</pdfrwt>
<pdfrwt beam="2">0</pdfrwt>
<totfact> 0.11507502E+04</totfact>
</mgrwt>
</event>
<event>
 6    1  0.1274196E-001  0.3000000E+03  0.7818608E-02  0.1093470E+00
         21   -1    0    0  501  502  0.00000000000E+00  0.00000000000E+00  0.19036331329E+01  0.19036331329E+01  0.00000000000E+00 0. -1.
         13   -1    0    0    0    0 -0.00000000000E+00 -0.00000000000E+00 -0.10000000000E+04  0.10000000000E+04  0.00000000000E+00 0.  1.
    9000005    2    1    2  501    0  0.25015023405E+02 -0.21024699464E+02 -0.83050077833E+03  0.83115214505E+03  0.38152379343E+01 0.  0.
         13    1    3    3    0    0  0.42295479724E+01 -0.27695443890E+01 -0.16294827209E+03  0.16302668134E+03  0.00000000000E+00 0.  1.
          3    1    3    3  501    0  0.20785475433E+02 -0.18255155075E+02 -0.66755250624E+03  0.66812546371E+03  0.00000000000E+00 0.  1.
         -1    1    1    2    0  502 -0.25015023405E+02  0.21024699464E+02 -0.16759558854E+03  0.17075148808E+03  0.00000000000E+00 0. -1.
<mgrwt>
<rscale>  1 0.30000000E+03</rscale>
<asrwt>0</asrwt>
<pdfrwt beam="1">  1       21 0.69223169E-02 0.30000000E+03</pdfrwt>
<pdfrwt beam="2">0</pdfrwt>
<totfact> 0.16451578E+04</totfact>
</mgrwt>
</event>
<event>
 6    1  0.1274196E-001  0.3000000E+03  0.7818608E-02  0.1093470E+00
         21   -1    0    0  501  502  0.00000000000E+00  0.00000000000E+00  0.18221366933E+01  0.18221366933E+01  0.00000000000E+00 0. -1.
         13   -1    0    0    0    0 -0.00000000000E+00 -0.00000000000E+00 -0.10000000000E+04  0.10000000000E+04  0.00000000000E+00 0.  1.
    9000005    2    1    2  501    0 -0.37126466929E+02  0.23416872920E+01 -0.74394176959E+03  0.74487885619E+03  0.33609249294E+01 0.  0.
         13    1    3    3    0    0 -0.19961119548E+02 -0.30564260588E+00 -0.40996080887E+03  0.41044659156E+03  0.00000000000E+00 0.  1.
          1    1    3    3  501    0 -0.17165347381E+02  0.26473298978E+01 -0.33398096072E+03  0.33443226463E+03  0.00000000000E+00 0.  1.
         -3    1    1    2    0  502  0.37126466929E+02 -0.23416872920E+01 -0.25423609372E+03  0.25694328050E+03  0.00000000000E+00 0. -1.
<mgrwt>
<rscale>  1 0.30000000E+03</rscale>
<asrwt>0</asrwt>
<pdfrwt beam="1">  1       21 0.66259656E-02 0.30000000E+03</pdfrwt>
<pdfrwt beam="2">0</pdfrwt>
<totfact> 0.17749910E+04</totfact>
</mgrwt>
</event>
<event>
 6    1  0.1274196E-001  0.3000000E+03  0.7818608E-02  0.1093470E+00
         21   -1    0    0  501  502  0.00000000000E+00  0.00000000000E+00  0.11758513924E+01  0.11758513924E+01  0.00000000000E+00 0. -1.
         13   -1    0    0    0    0 -0.00000000000E+00 -0.00000000000E+00 -0.10000000000E+04  0.10000000000E+04  0.00000000000E+00 0.  1.
    9000005    2    1    2  501    0  0.32034868018E+02  0.41656532646E+01 -0.34110285647E+03  0.34266170305E+03  0.47221402973E+01 0.  0.
         13    1    3    3    0    0  0.25746883515E+02  0.21479574776E+01 -0.25478744140E+03  0.25609403747E+03  0.00000000000E+00 0.  1.
          3    1    3    3  501    0  0.62879845031E+01  0.20176957870E+01 -0.86315415070E+02  0.86567665581E+02  0.00000000000E+00 0.  1.
         -1    1    1    2    0  502 -0.32034868018E+02 -0.41656532646E+01 -0.65772129213E+03  0.65851414834E+03  0.00000000000E+00 0. -1.
<mgrwt>
<rscale>  1 0.30000000E+03</rscale>
<asrwt>0</asrwt>
<pdfrwt beam="1">  1       21 0.42758323E-02 0.30000000E+03</pdfrwt>
<pdfrwt beam="2">0</pdfrwt>
<totfact> 0.37573126E+04</totfact>
</mgrwt>
</event>
<event>
 6    1  0.1274196E-001  0.3000000E+03  0.7818608E-02  0.1093470E+00
         21   -1    0    0  501  502  0.00000000000E+00  0.00000000000E+00  0.11789712576E+01  0.11789712576E+01  0.00000000000E+00 0. -1.
         13   -1    0    0    0    0 -0.00000000000E+00 -0.00000000000E+00 -0.10000000000E+04  0.10000000000E+04  0.00000000000E+00 0.  1.
    9000005    2    1    2  501    0 -0.20784672972E+02  0.24423641906E+02 -0.32523418427E+03  0.32682909622E+03  0.33862375678E+01 0.  0.
         13    1    3    3    0    0 -0.10050275313E+02  0.14239333120E+02 -0.16972966952E+03  0.17062217721E+03  0.00000000000E+00 0.  1.
          1    1    3    3  501    0 -0.10734397659E+02  0.10184308786E+02 -0.15550451475E+03  0.15620691901E+03  0.00000000000E+00 0.  1.
         -1    1    1    2    0  502  0.20784672972E+02 -0.24423641906E+02 -0.67358684447E+03  0.67434987504E+03  0.00000000000E+00 0. -1.
<mgrwt>
<rscale>  1 0.30000000E+03</rscale>
<asrwt>0</asrwt>
<pdfrwt beam="1">  1       21 0.42871772E-02 0.30000000E+03</pdfrwt>
<pdfrwt beam="2">0</pdfrwt>
<totfact> 0.37405174E+04</totfact>
</mgrwt>
</event>
<event>
 6    1  0.1274196E-001  0.3000000E+03  0.7818608E-02  0.1093470E+00
         21   -1    0    0  501  502  0.00000000000E+00  0.00000000000E+00  0.99911260466E+00  0.99911260466E+00  0.00000000000E+00 0. -1.
         13   -1    0    0    0    0 -0.00000000000E+00 -0.00000000000E+00 -0.10000000000E+04  0.10000000000E+04  0.00000000000E+00 0.  1.
    9000005    2    1    2  501    0  0.16896824001E+02 -0.26597062648E+02 -0.48626746626E+03  0.48729835579E+03  0.32760357039E+01 0.  0.
         13    1    3    3    0    0  0.14240752390E+02 -0.23839004316E+02 -0.43789639772E+03  0.43877597050E+03  0.00000000000E+00 0.  1.
          1    1    3    3  501    0  0.26560716101E+01 -0.27580583322E+01 -0.48371068542E+02  0.48522385288E+02  0.00000000000E+00 0.  1.
         -1    1    1    2    0  502 -0.16896824001E+02  0.26597062648E+02 -0.51273342113E+03  0.51370075681E+03  0.00000000000E+00 0. -1.
<mgrwt>
<rscale>  1 0.30000000E+03</rscale>
<asrwt>0</asrwt>
<pdfrwt beam="1">  1       21 0.36331444E-02 0.30000000E+03</pdfrwt>
<pdfrwt beam="2">0</pdfrwt>
<totfact> 0.49424741E+04</totfact>
</mgrwt>
</event>
<event>
 6    1  0.1274196E-001  0.3000000E+03  0.7818608E-02  0.1093470E+00
         21   -1    0    0  501  502  0.00000000000E+00  0.00000000000E+00  0.22498704729E+01  0.22498704729E+01  0.00000000000E+00 0. -1.
         13   -1    0    0    0    0 -0.00000000000E+00 -0.00000000000E+00 -0.10000000000E+04  0.10000000000E+04  0.00000000000E+00 0.  1.
    9000005    2    1    2  501    0  0.39204001661E+02  0.22798058226E+02 -0.64384977929E+03  0.64545558366E+03  0.36968878308E+01 0.  0.
         13    1    3    3    0    0  0.28185547577E+02  0.15730421809E+02 -0.47963502482E+03  0.48071990629E+03  0.00000000000E+00 0.  1.
          1    1    3    3  501    0  0.11018454083E+02  0.70676364171E+01 -0.16421475446E+03  0.16473567737E+03  0.00000000000E+00 0.  1.
         -3    1    1    2    0  502 -0.39204001661E+02 -0.22798058226E+02 -0.35390035024E+03  0.35679428682E+03  0.00000000000E+00 0. -1.
<mgrwt>
<rscale>  1 0.30000000E+03</rscale>
<asrwt>0</asrwt>
<pdfrwt beam="1">  1       21 0.81813644E-02 0.30000000E+03</pdfrwt>
<pdfrwt beam="2">0</pdfrwt>
<totfact> 0.12280350E+04</totfact>
</mgrwt>
</event>
<event>
 6    1  0.1274196E-001  0.3000000E+03  0.7818608E-02  0.1093470E+00
         21   -1    0    0  501  502  0.00000000000E+00  0.00000000000E+00  0.11782461141E+01  0.11782461141E+01  0.00000000000E+00 0. -1.
         13   -1    0    0    0    0 -0.00000000000E+00 -0.00000000000E+00 -0.10000000000E+04  0.10000000000E+04  0.00000000000E+00 0.  1.
    9000005    2    1    2  501    0 -0.28302181830E+02 -0.12787704446E+02 -0.71097601875E+03  0.71166191476E+03  0.33530299212E+01 0.  0.
         13    1    3    3    0    0 -0.95745595029E+01 -0.27970984943E+01 -0.24373117263E+03  0.24393519725E+03  0.00000000000E+00 0.  1.
          1    1    3    3  501    0 -0.18727622327E+02 -0.99906059514E+01 -0.46724484612E+03  0.46772671751E+03  0.00000000000E+00 0.  1.
         -3    1    1    2    0  502  0.28302181830E+02  0.12787704446E+02 -0.28784573514E+03  0.28951633135E+03  0.00000000000E+00 0. -1.
<mgrwt>
<rscale>  1 0.30000000E+03</rscale>
<asrwt>0</asrwt>
<pdfrwt beam="1">  1       21 0.42845404E-02 0.30000000E+03</pdfrwt>
<pdfrwt beam="2">0</pdfrwt>
<totfact> 0.37444107E+04</totfact>
</mgrwt>
</event>
<event>
 6    1  0.1274196E-001  0.3000000E+03  0.7818608E-02  0.1093470E+00
         21   -1    0    0  501  502  0.00000000000E+00  0.00000000000E+00  0.99081270888E+01  0.99081270888E+01  0.00000000000E+00 0. -1.
         13   -1    0    0    0    0 -0.00000000000E+00 -0.00000000000E+00 -0.10000000000E+04  0.10000000000E+04  0.00000000000E+00 0.  1.
    9000005    2    1    2  501    0 -0.22025798039E+02 -0.45127986425E+02 -0.93100639440E+03  0.93236610810E+03  0.34615288218E+01 0.  0.
         13    1    3    3    0    0 -0.13814522066E+02 -0.30053687287E+02 -0.58548893433E+03  0.58642250755E+03  0.00000000000E+00 0.  1.
          1    1    3    3  501    0 -0.82112759733E+01 -0.15074299138E+02 -0.34551746007E+03  0.34594360055E+03  0.00000000000E+00 0.  1.
         -3    1    1    2    0  502  0.22025798039E+02  0.45127986425E+02 -0.59085478514E+02  0.77542018991E+02  0.00000000000E+00 0. -1.
<mgrwt>
<rscale>  1 0.30000000E+03</rscale>
<asrwt>0</asrwt>
<pdfrwt beam="1">  1       21 0.36029629E-01 0.30000000E+03</pdfrwt>
<pdfrwt beam="2">0</pdfrwt>
<totfact> 0.74989106E+02</totfact>
</mgrwt>
</event>
<event>
 6    1  0.1274196E-001  0.3000000E+03  0.7818608E-02  0.1093470E+00
         21   -1    0    0  501  502  0.00000000000E+00  0.00000000000E+00  0.13581633609E+01  0.13581633609E+01  0.00000000000E+00 0. -1.
         13   -1    0    0    0    0 -0.00000000000E+00 -0.00000000000E+00 -0.10000000000E+04  0.10000000000E+04  0.00000000000E+00 0.  1.
    9000005    2    1    2  501    0 -0.85186230462E+01  0.35612208881E+02 -0.54740008606E+03  0.54863317639E+03  0.32728672263E+01 0.  0.
         13    1    3    3    0    0 -0.52789039219E+01  0.24782897723E+02 -0.35734386848E+03  0.35824111878E+03  0.00000000000E+00 0.  1.
          1    1    3    3  501    0 -0.32397191243E+01  0.10829311158E+02 -0.19005621758E+03  0.19039205761E+03  0.00000000000E+00 0.  1.
         -1    1    1    2    0  502  0.85186230462E+01 -0.35612208881E+02 -0.45124175058E+03  0.45272498697E+03  0.00000000000E+00 0. -1.
<mgrwt>
<rscale>  1 0.30000000E+03</rscale>
<asrwt>0</asrwt>
<pdfrwt beam="1">  1       21 0.49387863E-02 0.30000000E+03</pdfrwt>
<pdfrwt beam="2">0</pdfrwt>
<totfact> 0.29415745E+04</totfact>
</mgrwt>
</event>
<event>
 6    1  0.1274196E-001  0.3000000E+03  0.7818608E-02  0.1093470E+00
         21   -1    0    0  501  502  0.00000000000E+00  0.00000000000E+00  0.48164817087E+01  0.48164817087E+01  0.00000000000E+00 0. -1.
         13   -1    0    0    0    0 -0.00000000000E+00 -0.00000000000E+00 -0.10000000000E+04  0.10000000000E+04  0.00000000000E+00 0.  1.
    9000005    2    1    2  501    0  0.95428085450E+00 -0.43598835206E+02 -0.88832677911E+03  0.88940360638E+03  0.35411118510E+01 0.  0.
         13    1    3    3    0    0  0.49982530045E+00 -0.26309176147E+02 -0.50022926829E+03  0.50092089538E+03  0.00000000000E+00 0.  1.
          1    1    3    3  501    0  0.45445555405E+00 -0.17289659060E+02 -0.38809751082E+03  0.38848271100E+03  0.00000000000E+00 0.  1.
         -3    1    1    2    0  502 -0.95428085450E+00  0.43598835206E+02 -0.10685673918E+03  0.11541287533E+03  0.00000000000E+00 0. -1.
<mgrwt>
<rscale>  1 0.30000000E+03</rscale>
<asrwt>0</asrwt>
<pdfrwt beam="1">  1       21 0.17514516E-01 0.30000000E+03</pdfrwt>
<pdfrwt beam="2">0</pdfrwt>
<totfact> 0.30841383E+03</totfact>
</mgrwt>
</event>
<event>
 6    1  0.1274196E-001  0.3000000E+03  0.7818608E-02  0.1093470E+00
         21   -1    0    0  501  502  0.00000000000E+00  0.00000000000E+00  0.11782861792E+01  0.11782861792E+01  0.00000000000E+00 0. -1.
         13   -1    0    0    0    0 -0.00000000000E+00 -0.00000000000E+00 -0.10000000000E+04  0.10000000000E+04  0.00000000000E+00 0.  1.
    9000005    2    1    2  501    0  0.30367797285E+02  0.10063850590E+01 -0.73072563640E+03  0.73136590201E+03  0.35931890348E+01 0.  0.
         13    1    3    3    0    0  0.30190962370E+02  0.76468726340E+00 -0.71516824338E+03  0.71580562676E+03  0.00000000000E+00 0.  1.
          3    1    3    3  501    0  0.17683491544E+00  0.24169779556E+00 -0.15557393018E+02  0.15560275252E+02  0.00000000000E+00 0.  1.
         -3    1    1    2    0  502 -0.30367797285E+02 -0.10063850590E+01 -0.26809607742E+03  0.26981238417E+03  0.00000000000E+00 0. -1.
<mgrwt>
<rscale>  1 0.30000000E+03</rscale>
<asrwt>0</asrwt>
<pdfrwt beam="1">  1       21 0.42846861E-02 0.30000000E+03</pdfrwt>
<pdfrwt beam="2">0</pdfrwt>
<totfact> 0.37441954E+04</totfact>
</mgrwt>
</event>
<event>
 6    1  0.1274196E-001  0.3000000E+03  0.7818608E-02  0.1093470E+00
         21   -1    0    0  501  502  0.00000000000E+00  0.00000000000E+00  0.24456838125E+01  0.24456838125E+01  0.00000000000E+00 0. -1.
         13   -1    0    0    0    0 -0.00000000000E+00 -0.00000000000E+00 -0.10000000000E+04  0.10000000000E+04  0.00000000000E+00 0.  1.
    9000005    2    1    2  501    0  0.37045323657E+02 -0.12422700722E+02 -0.80580561389E+03  0.80675653150E+03  0.25950435717E+01 0.  0.
         13    1    3    3    0    0  0.22404758639E+02 -0.63921272718E+01 -0.46519829685E+03  0.46578137349E+03  0.00000000000E+00 0.  1.
          1    1    3    3  501    0  0.14640565018E+02 -0.60305734501E+01 -0.34060731704E+03  0.34097515801E+03  0.00000000000E+00 0.  1.
         -1    1    1    2    0  502 -0.37045323657E+02  0.12422700722E+02 -0.19174870230E+03  0.19568915231E+03  0.00000000000E+00 0. -1.
<mgrwt>
<rscale>  1 0.30000000E+03</rscale>
<asrwt>0</asrwt>
<pdfrwt beam="1">  1       21 0.88934144E-02 0.30000000E+03</pdfrwt>
<pdfrwt beam="2">0</pdfrwt>
<totfact> 0.10599345E+04</totfact>
</mgrwt>
</event>
<event>
 6    1  0.1274196E-001  0.3000000E+03  0.7818608E-02  0.1093470E+00
         21   -1    0    0  501  502  0.00000000000E+00  0.00000000000E+00  0.92603875120E+02  0.92603875120E+02  0.00000000000E+00 0. -1.
         13   -1    0    0    0    0 -0.00000000000E+00 -0.00000000000E+00 -0.10000000000E+04  0.10000000000E+04  0.00000000000E+00 0.  1.
    9000005    2    1    2  501    0  0.12925079821E+02  0.91408160120E+02 -0.97425212611E+03  0.97862039243E+03  0.28561922791E+01 0.  0.
         13    1    3    3    0    0  0.62748695608E+01  0.52073194975E+02 -0.56305313592E+03  0.56549078286E+03  0.00000000000E+00 0.  1.
          1    1    3    3  501    0  0.66502102606E+01  0.39334965145E+02 -0.41119899019E+03  0.41312960958E+03  0.00000000000E+00 0.  1.
         -3    1    1    2    0  502 -0.12925079821E+02 -0.91408160120E+02  0.66856001229E+02  0.11398348269E+03  0.00000000000E+00 0. -1.
<mgrwt>
<rscale>  1 0.30000000E+03</rscale>
<asrwt>0</asrwt>
<pdfrwt beam="1">  1       21 0.33674207E+00 0.30000000E+03</pdfrwt>
<pdfrwt beam="2">0</pdfrwt>
<totfact> 0.10904625E+00</totfact>
</mgrwt>
</event>
<event>
 6    1  0.1274196E-001  0.3000000E+03  0.7818608E-02  0.1093470E+00
         21   -1    0    0  501  502  0.00000000000E+00  0.00000000000E+00  0.70306170924E+01  0.70306170924E+01  0.00000000000E+00 0. -1.
         13   -1    0    0    0    0 -0.00000000000E+00 -0.00000000000E+00 -0.10000000000E+04  0.10000000000E+04  0.00000000000E+00 0.  1.
    9000005    2    1    2  501    0 -0.46831838287E+02  0.31905745505E+01 -0.91366214014E+03  0.91487292833E+03  0.32508177188E+01 0.  0.
         13    1    3    3    0    0 -0.33850044171E+02  0.22153373348E+01 -0.68756222303E+03  0.68839853555E+03  0.00000000000E+00 0.  1.
          1    1    3    3  501    0 -0.12981794116E+02  0.97523721578E+00 -0.22609991711E+03  0.22647439278E+03  0.00000000000E+00 0.  1.
         -3    1    1    2    0  502  0.46831838287E+02 -0.31905745505E+01 -0.79307242766E+02  0.92157688764E+02  0.00000000000E+00 0. -1.
<mgrwt>
<rscale>  1 0.30000000E+03</rscale>
<asrwt>0</asrwt>
<pdfrwt beam="1">  1       21 0.25565934E-01 0.30000000E+03</pdfrwt>
<pdfrwt beam="2">0</pdfrwt>
<totfact> 0.14926236E+03</totfact>
</mgrwt>
</event>
<event>
 6    1  0.1274196E-001  0.3000000E+03  0.7818608E-02  0.1093470E+00
         21   -1    0    0  501  502  0.00000000000E+00  0.00000000000E+00  0.35640731777E+01  0.35640731777E+01  0.00000000000E+00 0. -1.
         13   -1    0    0    0    0 -0.00000000000E+00 -0.00000000000E+00 -0.10000000000E+04  0.10000000000E+04  0.00000000000E+00 0.  1.
    9000005    2    1    2  501    0 -0.38874290839E+02 -0.31617357669E+02 -0.77064644427E+03  0.77228121989E+03  0.33871422540E+01 0.  0.
         13    1    3    3    0    0 -0.23392851141E+02 -0.21125470500E+02 -0.48621448944E+03  0.48723509800E+03  0.00000000000E+00 0.  1.
          3    1    3    3  501    0 -0.15481439699E+02 -0.10491887170E+02 -0.28443195483E+03  0.28504612188E+03  0.00000000000E+00 0.  1.
         -1    1    1    2    0  502  0.38874290839E+02  0.31617357669E+02 -0.22578948255E+03  0.23128285329E+03  0.00000000000E+00 0. -1.
<mgrwt>
<rscale>  1 0.30000000E+03</rscale>
<asrwt>0</asrwt>
<pdfrwt beam="1">  1       21 0.12960293E-01 0.30000000E+03</pdfrwt>
<pdfrwt beam="2">0</pdfrwt>
<totfact> 0.53865275E+03</totfact>
</mgrwt>
</event>
<event>
 6    1  0.1274196E-001  0.3000000E+03  0.7818608E-02  0.1093470E+00
         21   -1    0    0  501  502  0.00000000000E+00  0.00000000000E+00  0.26370992486E+01  0.26370992486E+01  0.00000000000E+00 0. -1.
         13   -1    0    0    0    0 -0.00000000000E+00 -0.00000000000E+00 -0.10000000000E+04  0.10000000000E+04  0.00000000000E+00 0.  1.
    9000005    2    1    2  501    0 -0.35777662823E+02 -0.28748354620E+02 -0.72273249047E+03  0.72419792941E+03  0.37254700181E+01 0.  0.
         13    1    3    3    0    0 -0.16926489039E+02 -0.14120495060E+02 -0.31857373882E+03  0.31933543724E+03  0.00000000000E+00 0.  1.
          3    1    3    3  501    0 -0.18851173784E+02 -0.14627859560E+02 -0.40415875165E+03  0.40486249217E+03  0.00000000000E+00 0.  1.
         -1    1    1    2    0  502  0.35777662823E+02  0.28748354620E+02 -0.27463041028E+03  0.27843916984E+03  0.00000000000E+00 0. -1.
<mgrwt>
<rscale>  1 0.30000000E+03</rscale>
<asrwt>0</asrwt>
<pdfrwt beam="1">  1       21 0.95894720E-02 0.30000000E+03</pdfrwt>
<pdfrwt beam="2">0</pdfrwt>
<totfact> 0.92715306E+03</totfact>
</mgrwt>
</event>
<event>
 6    1  0.1274196E-001  0.3000000E+03  0.7818608E-02  0.1093470E+00
         21   -1    0    0  501  502  0.00000000000E+00  0.00000000000E+00  0.18091554310E+01  0.18091554310E+01  0.00000000000E+00 0. -1.
         13   -1    0    0    0    0 -0.00000000000E+00 -0.00000000000E+00 -0.10000000000E+04  0.10000000000E+04  0.00000000000E+00 0.  1.
    9000005    2    1    2  501    0  0.97266195250E+01  0.38613448763E+02 -0.32666545293E+03  0.32910419992E+03  0.36946873265E+01 0.  0.
         13    1    3    3    0    0  0.18659129753E+01  0.73426844124E+01 -0.51049341838E+02  0.51608448414E+02  0.00000000000E+00 0.  1.
          1    1    3    3  501    0  0.78607065497E+01  0.31270764350E+02 -0.27561611109E+03  0.27749575150E+03  0.00000000000E+00 0.  1.
         -3    1    1    2    0  502 -0.97266195250E+01 -0.38613448763E+02 -0.67152539164E+03  0.67270495552E+03  0.00000000000E+00 0. -1.
<mgrwt>
<rscale>  1 0.30000000E+03</rscale>
<asrwt>0</asrwt>
<pdfrwt beam="1">  1       21 0.65787609E-02 0.30000000E+03</pdfrwt>
<pdfrwt beam="2">0</pdfrwt>
<totfact> 0.17971213E+04</totfact>
</mgrwt>
</event>
<event>
 6    1  0.1274196E-001  0.3000000E+03  0.7818608E-02  0.1093470E+00
         21   -1    0    0  501  502  0.00000000000E+00  0.00000000000E+00  0.10404906713E+01  0.10404906713E+01  0.00000000000E+00 0. -1.
         13   -1    0    0    0    0 -0.00000000000E+00 -0.00000000000E+00 -0.10000000000E+04  0.10000000000E+04  0.00000000000E+00 0.  1.
    9000005    2    1    2  501    0  0.13406757934E+01  0.30507950810E+02 -0.65817168743E+03  0.65888720335E+03  0.31375344419E+01 0.  0.
         13    1    3    3    0    0  0.91574067509E+00  0.21787559403E+01 -0.52911850451E+02  0.52964605886E+02  0.00000000000E+00 0.  1.
          3    1    3    3  501    0  0.42493511828E+00  0.28329194869E+02 -0.60525983698E+03  0.60592259746E+03  0.00000000000E+00 0.  1.
         -3    1    1    2    0  502 -0.13406757934E+01 -0.30507950810E+02 -0.34078782190E+03  0.34215328732E+03  0.00000000000E+00 0. -1.
<mgrwt>
<rscale>  1 0.30000000E+03</rscale>
<asrwt>0</asrwt>
<pdfrwt beam="1">  1       21 0.37836104E-02 0.30000000E+03</pdfrwt>
<pdfrwt beam="2">0</pdfrwt>
<totfact> 0.46170135E+04</totfact>
</mgrwt>
</event>
<event>
 6    1  0.1274196E-001  0.3000000E+03  0.7818608E-02  0.1093470E+00
         21   -1    0    0  501  502  0.00000000000E+00  0.00000000000E+00  0.22624328981E+01  0.22624328981E+01  0.00000000000E+00 0. -1.
         13   -1    0    0    0    0 -0.00000000000E+00 -0.00000000000E+00 -0.10000000000E+04  0.10000000000E+04  0.00000000000E+00 0.  1.
    9000005    2    1    2  501    0 -0.42507737933E+02 -0.45486612948E+01 -0.71774795230E+03  0.71902793200E+03  0.33831726447E+01 0.  0.
         13    1    3    3    0    0 -0.24291056976E+02 -0.39658509178E+01 -0.42861918199E+03  0.42932526899E+03  0.00000000000E+00 0.  1.
          3    1    3    3  501    0 -0.18216680957E+02 -0.58281037707E+00 -0.28912877031E+03  0.28970266301E+03  0.00000000000E+00 0.  1.
         -3    1    1    2    0  502  0.42507737933E+02  0.45486612948E+01 -0.27998961480E+03  0.28323450090E+03  0.00000000000E+00 0. -1.
<mgrwt>
<rscale>  1 0.30000000E+03</rscale>
<asrwt>0</asrwt>
<pdfrwt beam="1">  1       21 0.82270461E-02 0.30000000E+03</pdfrwt>
<pdfrwt beam="2">0</pdfrwt>
<totfact> 0.12160652E+04</totfact>
</mgrwt>
</event>
<event>
 6    1  0.1274196E-001  0.3000000E+03  0.7818608E-02  0.1093470E+00
         21   -1    0    0  501  502  0.00000000000E+00  0.00000000000E+00  0.42574667455E+01  0.42574667455E+01  0.00000000000E+00 0. -1.
         13   -1    0    0    0    0 -0.00000000000E+00 -0.00000000000E+00 -0.10000000000E+04  0.10000000000E+04  0.00000000000E+00 0.  1.
    9000005    2    1    2  501    0 -0.31049981595E+02 -0.27717541309E+02 -0.88449209623E+03  0.88547605746E+03  0.30358841541E+01 0.  0.
         13    1    3    3    0    0 -0.11770737109E+02 -0.12484993931E+02 -0.36866759720E+03  0.36906669119E+03  0.00000000000E+00 0.  1.
          1    1    3    3  501    0 -0.19279244486E+02 -0.15232547378E+02 -0.51582449903E+03  0.51640936627E+03  0.00000000000E+00 0.  1.
         -1    1    1    2    0  502  0.31049981595E+02  0.27717541309E+02 -0.11125043703E+03  0.11878140929E+03  0.00000000000E+00 0. -1.
<mgrwt>
<rscale>  1 0.30000000E+03</rscale>
<asrwt>0</asrwt>
<pdfrwt beam="1">  1       21 0.15481730E-01 0.30000000E+03</pdfrwt>
<pdfrwt beam="2">0</pdfrwt>
<totfact> 0.38835669E+03</totfact>
</mgrwt>
</event>
