<event>
 6    1  0.1364923E-004  0.6576687E+03  0.7818608E-02  0.9792495E-01
         21   -1    0    0  501  502  0.00000000000E+00  0.00000000000E+00  0.13892417119E+03  0.13892417119E+03  0.00000000000E+00 0.  1.
         13   -1    0    0    0    0 -0.00000000000E+00 -0.00000000000E+00 -0.10000000000E+04  0.10000000000E+04  0.00000000000E+00 0.  1.
    9000005    2    1    2  501    0 -0.82604130573E+01 -0.36605260667E+02 -0.87862170487E+03  0.10974990906E+04  0.65659726937E+03 0.  0.
         13    1    3    3    0    0 -0.13532968009E+03  0.35278248285E+02 -0.93171450956E+03  0.94215211321E+03  0.00000000000E+00 0.  1.
          3    1    3    3  501    0  0.12706926703E+03 -0.71883508952E+02  0.53092804689E+02  0.15534697742E+03  0.00000000000E+00 0.  1.
         -1    1    1    2    0  502  0.82604130573E+01  0.36605260667E+02  0.17545876057E+02  0.41425080555E+02  0.00000000000E+00 0. -1.
<mgrwt>
<rscale>  1 0.65766873E+03</rscale>
<asrwt>0</asrwt>
<pdfrwt beam="1">  1       21 0.21372949E-01 0.65766873E+03</pdfrwt>
<pdfrwt beam="2">0</pdfrwt>
<totfact> 0.19745209E+03</totfact>
</mgrwt>
</event>
<event>
 6    1  0.1364923E-004  0.6426215E+03  0.7818608E-02  0.9820724E-01
         21   -1    0    0  501  502  0.00000000000E+00  0.00000000000E+00  0.14857328964E+03  0.14857328964E+03  0.00000000000E+00 0.  1.
         13   -1    0    0    0    0 -0.00000000000E+00 -0.00000000000E+00 -0.10000000000E+04  0.10000000000E+04  0.00000000000E+00 0.  1.
    9000005    2    1    2  501    0  0.25815068048E+02  0.25335417928E+02 -0.88865761668E+03  0.10966652794E+04  0.64160273866E+03 0.  0.
         13    1    3    3    0    0 -0.29415686694E+01 -0.23804572366E+02  0.10179240745E+03  0.10458013533E+03  0.00000000000E+00 0.  1.
          3    1    3    3  501    0  0.28756636717E+02  0.49139990294E+02 -0.99045002413E+03  0.99208514408E+03  0.00000000000E+00 0.  1.
         -1    1    1    2    0  502 -0.25815068048E+02 -0.25335417928E+02  0.37230906325E+02  0.51908010226E+02  0.00000000000E+00 0. -1.
<mgrwt>
<rscale>  1 0.64262149E+03</rscale>
<asrwt>0</asrwt>
<pdfrwt beam="1">  1       21 0.22857429E-01 0.64262149E+03</pdfrwt>
<pdfrwt beam="2">0</pdfrwt>
<totfact> 0.17349745E+03</totfact>
</mgrwt>
</event>
<event>
 6    1  0.1364923E-004  0.6511444E+03  0.7818608E-02  0.9804634E-01
         21   -1    0    0  501  502  0.00000000000E+00  0.00000000000E+00  0.14092867880E+03  0.14092867880E+03  0.00000000000E+00 0.  1.
         13   -1    0    0    0    0 -0.00000000000E+00 -0.00000000000E+00 -0.10000000000E+04  0.10000000000E+04  0.00000000000E+00 0.  1.
    9000005    2    1    2  501    0  0.40838619497E+02  0.16469684827E+02 -0.87791282176E+03  0.10930324837E+04  0.64965378816E+03 0.  0.
         13    1    3    3    0    0  0.26924250160E+03 -0.10230720017E+03 -0.75436346370E+03  0.80747911629E+03  0.00000000000E+00 0.  1.
          1    1    3    3  501    0 -0.22840388210E+03  0.11877688500E+03 -0.12354935806E+03  0.28555336742E+03  0.00000000000E+00 0.  1.
         -1    1    1    2    0  502 -0.40838619497E+02 -0.16469684827E+02  0.18841500569E+02  0.47896195093E+02  0.00000000000E+00 0. -1.
<mgrwt>
<rscale>  1 0.65114444E+03</rscale>
<asrwt>0</asrwt>
<pdfrwt beam="1">  1       21 0.21681335E-01 0.65114444E+03</pdfrwt>
<pdfrwt beam="2">0</pdfrwt>
<totfact> 0.19211792E+03</totfact>
</mgrwt>
</event>
<event>
 6    1  0.1364923E-004  0.6630112E+03  0.7818608E-02  0.9782666E-01
         21   -1    0    0  501  502  0.00000000000E+00  0.00000000000E+00  0.21471462662E+03  0.21471462662E+03  0.00000000000E+00 0.  1.
         13   -1    0    0    0    0 -0.00000000000E+00 -0.00000000000E+00 -0.10000000000E+04  0.10000000000E+04  0.00000000000E+00 0.  1.
    9000005    2    1    2  501    0 -0.10941432449E+03  0.41061275363E+02 -0.85244289858E+03  0.10799271794E+04  0.65263028946E+03 0.  0.
         13    1    3    3    0    0 -0.13752264699E+02  0.15082710437E+03  0.54809715284E+02  0.16106534415E+03  0.00000000000E+00 0.  1.
          3    1    3    3  501    0 -0.95662059796E+02 -0.10976582901E+03 -0.90725261386E+03  0.91886183524E+03  0.00000000000E+00 0.  1.
         -1    1    1    2    0  502  0.10941432449E+03 -0.41061275363E+02  0.67157525205E+02  0.13478744723E+03  0.00000000000E+00 0. -1.
<mgrwt>
<rscale>  1 0.66301117E+03</rscale>
<asrwt>0</asrwt>
<pdfrwt beam="1">  1       21 0.33033019E-01 0.66301117E+03</pdfrwt>
<pdfrwt beam="2">0</pdfrwt>
<totfact> 0.83519129E+02</totfact>
</mgrwt>
</event>
<event>
 6    1  0.1364923E-004  0.7623173E+03  0.7818608E-02  0.9616222E-01
         21   -1    0    0  501  502  0.00000000000E+00  0.00000000000E+00  0.79391649099E+03  0.79391649099E+03  0.00000000000E+00 0. -1.
         13   -1    0    0    0    0 -0.00000000000E+00 -0.00000000000E+00 -0.10000000000E+04  0.10000000000E+04  0.00000000000E+00 0.  1.
    9000005    2    1    2  501    0  0.14972893088E+03 -0.38449129066E+03 -0.77765070467E+03  0.10889758094E+04  0.64099562382E+03 0.  0.
         13    1    3    3    0    0  0.26403939865E+03 -0.24368025249E+03 -0.79951718189E+02  0.36808850394E+03  0.00000000000E+00 0.  1.
          1    1    3    3  501    0 -0.11431046777E+03 -0.14081103818E+03 -0.69769898648E+03  0.72088730551E+03  0.00000000000E+00 0.  1.
         -3    1    1    2    0  502 -0.14972893088E+03  0.38449129066E+03  0.57156719566E+03  0.70494068154E+03  0.00000000000E+00 0. -1.
<mgrwt>
<rscale>  1 0.76231732E+03</rscale>
<asrwt>0</asrwt>
<pdfrwt beam="1">  1       21 0.12214100E+00 0.76231732E+03</pdfrwt>
<pdfrwt beam="2">0</pdfrwt>
<totfact> 0.43113995E+01</totfact>
</mgrwt>
</event>
<event>
 6    1  0.1364923E-004  0.6660870E+03  0.7818608E-02  0.9777053E-01
         21   -1    0    0  501  502  0.00000000000E+00  0.00000000000E+00  0.24257733599E+03  0.24257733599E+03  0.00000000000E+00 0. -1.
         13   -1    0    0    0    0 -0.00000000000E+00 -0.00000000000E+00 -0.10000000000E+04  0.10000000000E+04  0.00000000000E+00 0.  1.
    9000005    2    1    2  501    0  0.10012555552E+03  0.67849306624E+02 -0.85734948876E+03  0.10856887590E+04  0.65501395431E+03 0.  0.
         13    1    3    3    0    0 -0.15240692505E+03 -0.41951552200E+02  0.26191265293E+02  0.16023041507E+03  0.00000000000E+00 0.  1.
          3    1    3    3  501    0  0.25253248057E+03  0.10980085882E+03 -0.88354075405E+03  0.92545834396E+03  0.00000000000E+00 0.  1.
         -1    1    1    2    0  502 -0.10012555552E+03 -0.67849306624E+02  0.99926824748E+02  0.15688857696E+03  0.00000000000E+00 0. -1.
<mgrwt>
<rscale>  1 0.66608703E+03</rscale>
<asrwt>0</asrwt>
<pdfrwt beam="1">  1       21 0.37319589E-01 0.66608703E+03</pdfrwt>
<pdfrwt beam="2">0</pdfrwt>
<totfact> 0.65095269E+02</totfact>
</mgrwt>
</event>
<event>
 6    1  0.1364923E-004  0.6476143E+03  0.7818608E-02  0.9811266E-01
         21   -1    0    0  501  502  0.00000000000E+00  0.00000000000E+00  0.15578403386E+03  0.15578403386E+03  0.00000000000E+00 0.  1.
         13   -1    0    0    0    0 -0.00000000000E+00 -0.00000000000E+00 -0.10000000000E+04  0.10000000000E+04  0.00000000000E+00 0.  1.
    9000005    2    1    2  501    0 -0.35288033067E+02 -0.50032547627E+02 -0.87392904364E+03  0.10877298784E+04  0.64471374576E+03 0.  0.
         13    1    3    3    0    0  0.22227224137E+03  0.10355131685E+03 -0.69854412852E+03  0.74033217139E+03  0.00000000000E+00 0.  1.
          3    1    3    3  501    0 -0.25756027443E+03 -0.15358386448E+03 -0.17538491512E+03  0.34739770702E+03  0.00000000000E+00 0.  1.
         -3    1    1    2    0  502  0.35288033067E+02  0.50032547627E+02  0.29713077503E+02  0.68054155453E+02  0.00000000000E+00 0. -1.
<mgrwt>
<rscale>  1 0.64761433E+03</rscale>
<asrwt>0</asrwt>
<pdfrwt beam="1">  1       21 0.23966774E-01 0.64761433E+03</pdfrwt>
<pdfrwt beam="2">0</pdfrwt>
<totfact> 0.15816781E+03</totfact>
</mgrwt>
</event>
<event>
 6    1  0.1364923E-004  0.6652011E+03  0.7818608E-02  0.9778666E-01
         21   -1    0    0  501  502  0.00000000000E+00  0.00000000000E+00  0.14906118575E+03  0.14906118575E+03  0.00000000000E+00 0.  1.
         13   -1    0    0    0    0 -0.00000000000E+00 -0.00000000000E+00 -0.10000000000E+04  0.10000000000E+04  0.00000000000E+00 0.  1.
    9000005    2    1    2  501    0 -0.89087478902E+02 -0.52640211268E+02 -0.77102305326E+03  0.10183167801E+04  0.65710345102E+03 0.  0.
         13    1    3    3    0    0 -0.31675663834E+03  0.11587216453E+03 -0.23190030014E+03  0.40931513000E+03  0.00000000000E+00 0.  1.
          1    1    3    3  501    0  0.22766915944E+03 -0.16851237580E+03 -0.53912275312E+03  0.60900165015E+03  0.00000000000E+00 0.  1.
         -1    1    1    2    0  502  0.89087478902E+02  0.52640211268E+02 -0.79915760997E+02  0.13074440560E+03  0.00000000000E+00 0. -1.
<mgrwt>
<rscale>  1 0.66520111E+03</rscale>
<asrwt>0</asrwt>
<pdfrwt beam="1">  1       21 0.22932489E-01 0.66520111E+03</pdfrwt>
<pdfrwt beam="2">0</pdfrwt>
<totfact> 0.17221407E+03</totfact>
</mgrwt>
</event>
<event>
 6    1  0.1364923E-004  0.6538885E+03  0.7818608E-02  0.9799510E-01
         21   -1    0    0  501  502  0.00000000000E+00  0.00000000000E+00  0.17792543160E+03  0.17792543160E+03  0.00000000000E+00 0. -1.
         13   -1    0    0    0    0 -0.00000000000E+00 -0.00000000000E+00 -0.10000000000E+04  0.10000000000E+04  0.00000000000E+00 0.  1.
    9000005    2    1    2  501    0 -0.91688974142E+01  0.35956921209E+02 -0.88770072496E+03  0.11025347075E+04  0.65283476867E+03 0.  0.
         13    1    3    3    0    0 -0.24749836173E+03  0.38827588391E+01 -0.80523929120E+02  0.26029717255E+03  0.00000000000E+00 0.  1.
          3    1    3    3  501    0  0.23832946432E+03  0.32074162370E+02 -0.80717679584E+03  0.84223753490E+03  0.00000000000E+00 0.  1.
         -1    1    1    2    0  502  0.91688974142E+01 -0.35956921209E+02  0.65626156559E+02  0.75390724147E+02  0.00000000000E+00 0. -1.
<mgrwt>
<rscale>  1 0.65388853E+03</rscale>
<asrwt>0</asrwt>
<pdfrwt beam="1">  1       21 0.27373143E-01 0.65388853E+03</pdfrwt>
<pdfrwt beam="2">0</pdfrwt>
<totfact> 0.12176889E+03</totfact>
</mgrwt>
</event>
<event>
 6    1  0.1364923E-004  0.6962876E+03  0.7818608E-02  0.9723602E-01
         21   -1    0    0  501  502  0.00000000000E+00  0.00000000000E+00  0.27473024879E+03  0.27473024879E+03  0.00000000000E+00 0. -1.
         13   -1    0    0    0    0 -0.00000000000E+00 -0.00000000000E+00 -0.10000000000E+04  0.10000000000E+04  0.00000000000E+00 0.  1.
    9000005    2    1    2  501    0  0.47408355343E+02  0.23635492754E+02 -0.87365123369E+03  0.11171762802E+04  0.69426952564E+03 0.  0.
         13    1    3    3    0    0 -0.28660410521E+03  0.16459629973E+03 -0.47061873949E+03  0.57507899715E+03  0.00000000000E+00 0.  1.
          1    1    3    3  501    0  0.33401246055E+03 -0.14096080698E+03 -0.40303249420E+03  0.54209728305E+03  0.00000000000E+00 0.  1.
         -1    1    1    2    0  502 -0.47408355343E+02 -0.23635492754E+02  0.14838148248E+03  0.15755396859E+03  0.00000000000E+00 0. -1.
<mgrwt>
<rscale>  1 0.69628756E+03</rscale>
<asrwt>0</asrwt>
<pdfrwt beam="1">  1       21 0.42266191E-01 0.69628756E+03</pdfrwt>
<pdfrwt beam="2">0</pdfrwt>
<totfact> 0.50156704E+02</totfact>
</mgrwt>
</event>
<event>
 6    1  0.1364923E-004  0.6554921E+03  0.7818608E-02  0.9796528E-01
         21   -1    0    0  501  502  0.00000000000E+00  0.00000000000E+00  0.12453465585E+03  0.12453465585E+03  0.00000000000E+00 0.  1.
         13   -1    0    0    0    0 -0.00000000000E+00 -0.00000000000E+00 -0.10000000000E+04  0.10000000000E+04  0.00000000000E+00 0.  1.
    9000005    2    1    2  501    0 -0.27082518070E+02 -0.71807710697E+01 -0.87877773049E+03  0.10963212165E+04  0.65489303235E+03 0.  0.
         13    1    3    3    0    0 -0.10185016421E+03  0.27715176304E+03 -0.20006559300E+03  0.35666903034E+03  0.00000000000E+00 0.  1.
          1    1    3    3  501    0  0.74767646138E+02 -0.28433253411E+03 -0.67871213750E+03  0.73965218613E+03  0.00000000000E+00 0.  1.
         -1    1    1    2    0  502  0.27082518070E+02  0.71807710697E+01  0.33123863430E+01  0.28213439377E+02  0.00000000000E+00 0. -1.
<mgrwt>
<rscale>  1 0.65549211E+03</rscale>
<asrwt>0</asrwt>
<pdfrwt beam="1">  1       21 0.19159177E-01 0.65549211E+03</pdfrwt>
<pdfrwt beam="2">0</pdfrwt>
<totfact> 0.24360261E+03</totfact>
</mgrwt>
</event>
<event>
 6    1  0.1364923E-004  0.6384743E+03  0.7818608E-02  0.9828650E-01
         21   -1    0    0  501  502  0.00000000000E+00  0.00000000000E+00  0.18093500030E+03  0.18093500030E+03  0.00000000000E+00 0. -1.
         13   -1    0    0    0    0 -0.00000000000E+00 -0.00000000000E+00 -0.10000000000E+04  0.10000000000E+04  0.00000000000E+00 0.  1.
    9000005    2    1    2  501    0  0.14280873731E+02 -0.14175717420E+03 -0.81899347677E+03  0.10384602836E+04  0.62237481134E+03 0.  0.
         13    1    3    3    0    0 -0.22034939674E+02 -0.22587600452E+02 -0.89299924363E+03  0.89355659439E+03  0.00000000000E+00 0.  1.
          3    1    3    3  501    0  0.36315813406E+02 -0.11916957375E+03  0.74005766863E+02  0.14490368918E+03  0.00000000000E+00 0.  1.
         -3    1    1    2    0  502 -0.14280873731E+02  0.14175717420E+03 -0.71522928462E-01  0.14247471673E+03  0.00000000000E+00 0. -1.
<mgrwt>
<rscale>  1 0.63847431E+03</rscale>
<asrwt>0</asrwt>
<pdfrwt beam="1">  1       21 0.27836153E-01 0.63847431E+03</pdfrwt>
<pdfrwt beam="2">0</pdfrwt>
<totfact> 0.11789140E+03</totfact>
</mgrwt>
</event>
<event>
 6    1  0.1364923E-004  0.6480746E+03  0.7818608E-02  0.9810399E-01
         21   -1    0    0  501  502  0.00000000000E+00  0.00000000000E+00  0.20648956288E+03  0.20648956288E+03  0.00000000000E+00 0. -1.
         13   -1    0    0    0    0 -0.00000000000E+00 -0.00000000000E+00 -0.10000000000E+04  0.10000000000E+04  0.00000000000E+00 0.  1.
    9000005    2    1    2  501    0  0.53527267267E+01 -0.38794547103E+02 -0.89080722839E+03  0.11016070850E+04  0.64689024036E+03 0.  0.
         13    1    3    3    0    0  0.69642799051E+02 -0.27226939702E+02 -0.98453035030E+03  0.98736590804E+03  0.00000000000E+00 0.  1.
          1    1    3    3  501    0 -0.64290072325E+02 -0.11567607400E+02  0.93723121909E+02  0.11424117699E+03  0.00000000000E+00 0.  1.
         -3    1    1    2    0  502 -0.53527267267E+01  0.38794547103E+02  0.97296791268E+02  0.10488247785E+03  0.00000000000E+00 0. -1.
<mgrwt>
<rscale>  1 0.64807457E+03</rscale>
<asrwt>0</asrwt>
<pdfrwt beam="1">  1       21 0.31767624E-01 0.64807457E+03</pdfrwt>
<pdfrwt beam="2">0</pdfrwt>
<totfact> 0.90467656E+02</totfact>
</mgrwt>
</event>
<event>
 6    1  0.1364923E-004  0.7122779E+03  0.7818608E-02  0.9696463E-01
         21   -1    0    0  501  502  0.00000000000E+00  0.00000000000E+00  0.65056548586E+03  0.65056548586E+03  0.00000000000E+00 0. -1.
         13   -1    0    0    0    0 -0.00000000000E+00 -0.00000000000E+00 -0.10000000000E+04  0.10000000000E+04  0.00000000000E+00 0.  1.
    9000005    2    1    2  501    0 -0.27675295309E+03 -0.79899272960E+02 -0.82786651527E+03  0.10921093367E+04  0.65143207265E+03 0.  0.
         13    1    3    3    0    0 -0.18053276029E+03 -0.36533412289E+03 -0.52927581318E+03  0.66797753353E+03  0.00000000000E+00 0.  1.
          3    1    3    3  501    0 -0.96220192798E+02  0.28543484993E+03 -0.29859070209E+03  0.42413180314E+03  0.00000000000E+00 0.  1.
         -3    1    1    2    0  502  0.27675295309E+03  0.79899272960E+02  0.47843200113E+03  0.55845614919E+03  0.00000000000E+00 0. -1.
<mgrwt>
<rscale>  1 0.71227792E+03</rscale>
<asrwt>0</asrwt>
<pdfrwt beam="1">  1       21 0.10008699E+00 0.71227792E+03</pdfrwt>
<pdfrwt beam="2">0</pdfrwt>
<totfact> 0.71725255E+01</totfact>
</mgrwt>
</event>
<event>
 6    1  0.1364923E-004  0.6742315E+03  0.7818608E-02  0.9762344E-01
         21   -1    0    0  501  502  0.00000000000E+00  0.00000000000E+00  0.36363922325E+03  0.36363922325E+03  0.00000000000E+00 0. -1.
         13   -1    0    0    0    0 -0.00000000000E+00 -0.00000000000E+00 -0.10000000000E+04  0.10000000000E+04  0.00000000000E+00 0.  1.
    9000005    2    1    2  501    0 -0.14827994653E+03  0.29264424888E+02 -0.86057435204E+03  0.10932412269E+04  0.65707291498E+03 0.  0.
         13    1    3    3    0    0 -0.38888608986E+03  0.12924773241E+03 -0.46790707253E+03  0.62199227949E+03  0.00000000000E+00 0.  1.
          3    1    3    3  501    0  0.24060614334E+03 -0.99983307523E+02 -0.39266727952E+03  0.47124894737E+03  0.00000000000E+00 0.  1.
         -1    1    1    2    0  502  0.14827994653E+03 -0.29264424888E+02  0.22421357530E+03  0.27039799639E+03  0.00000000000E+00 0. -1.
<mgrwt>
<rscale>  1 0.67423154E+03</rscale>
<asrwt>0</asrwt>
<pdfrwt beam="1">  1       21 0.55944494E-01 0.67423154E+03</pdfrwt>
<pdfrwt beam="2">0</pdfrwt>
<totfact> 0.27596358E+02</totfact>
</mgrwt>
</event>
<event>
 6    1  0.1364923E-004  0.6589020E+03  0.7818608E-02  0.9790217E-01
         21   -1    0    0  501  502  0.00000000000E+00  0.00000000000E+00  0.18520031091E+03  0.18520031091E+03  0.00000000000E+00 0.  1.
         13   -1    0    0    0    0 -0.00000000000E+00 -0.00000000000E+00 -0.10000000000E+04  0.10000000000E+04  0.00000000000E+00 0.  1.
    9000005    2    1    2  501    0  0.55281386485E+02 -0.21463776394E+02 -0.87851812536E+03  0.10981556987E+04  0.65622794568E+03 0.  0.
         13    1    3    3    0    0  0.11325897617E+03  0.29574013999E+03 -0.56897214627E+03  0.65116751248E+03  0.00000000000E+00 0.  1.
          1    1    3    3  501    0 -0.57977589684E+02 -0.31720391639E+03 -0.30954597909E+03  0.44698818625E+03  0.00000000000E+00 0.  1.
         -3    1    1    2    0  502 -0.55281386485E+02  0.21463776394E+02  0.63718436270E+02  0.87044612180E+02  0.00000000000E+00 0. -1.
<mgrwt>
<rscale>  1 0.65890200E+03</rscale>
<asrwt>0</asrwt>
<pdfrwt beam="1">  1       21 0.28492355E-01 0.65890200E+03</pdfrwt>
<pdfrwt beam="2">0</pdfrwt>
<totfact> 0.11242035E+03</totfact>
</mgrwt>
</event>
<event>
 6    1  0.1364923E-004  0.6685010E+03  0.7818608E-02  0.9772670E-01
         21   -1    0    0  501  502  0.00000000000E+00  0.00000000000E+00  0.19631220118E+03  0.19631220118E+03  0.00000000000E+00 0.  1.
         13   -1    0    0    0    0 -0.00000000000E+00 -0.00000000000E+00 -0.10000000000E+04  0.10000000000E+04  0.00000000000E+00 0.  1.
    9000005    2    1    2  501    0  0.58827835464E+02  0.19758524286E+03 -0.69067767153E+03  0.96121236857E+03  0.63591896427E+03 0.  0.
         13    1    3    3    0    0  0.59793263047E+02  0.41599683287E+03 -0.58027062931E+03  0.71647931059E+03  0.00000000000E+00 0.  1.
          3    1    3    3  501    0 -0.96542758359E+00 -0.21841159000E+03 -0.11040704222E+03  0.24473305799E+03  0.00000000000E+00 0.  1.
         -3    1    1    2    0  502 -0.58827835464E+02 -0.19758524286E+03 -0.11301012729E+03  0.23509983261E+03  0.00000000000E+00 0. -1.
<mgrwt>
<rscale>  1 0.66850099E+03</rscale>
<asrwt>0</asrwt>
<pdfrwt beam="1">  1       21 0.30201876E-01 0.66850099E+03</pdfrwt>
<pdfrwt beam="2">0</pdfrwt>
<totfact> 0.10000983E+03</totfact>
</mgrwt>
</event>
<event>
 6    1  0.1364923E-004  0.7163577E+03  0.7818608E-02  0.9689660E-01
         21   -1    0    0  501  502  0.00000000000E+00  0.00000000000E+00  0.10219137550E+04  0.10219137550E+04  0.00000000000E+00 0. -1.
         13   -1    0    0    0    0 -0.00000000000E+00 -0.00000000000E+00 -0.10000000000E+04  0.10000000000E+04  0.00000000000E+00 0.  1.
    9000005    2    1    2  501    0  0.20211294373E+03  0.25227865551E+03 -0.83846636553E+03  0.11028119577E+04  0.63927631414E+03 0.  0.
         13    1    3    3    0    0  0.33809918897E+03  0.39441957338E+03 -0.61804381500E+03  0.80737600825E+03  0.00000000000E+00 0.  1.
          3    1    3    3  501    0 -0.13598624524E+03 -0.14214091787E+03 -0.22042255053E+03  0.29543594942E+03  0.00000000000E+00 0.  1.
         -1    1    1    2    0  502 -0.20211294373E+03 -0.25227865551E+03  0.86038012048E+03  0.91910179728E+03  0.00000000000E+00 0. -1.
<mgrwt>
<rscale>  1 0.71635771E+03</rscale>
<asrwt>0</asrwt>
<pdfrwt beam="1">  1       21 0.15721750E+00 0.71635771E+03</pdfrwt>
<pdfrwt beam="2">0</pdfrwt>
<totfact> 0.22011260E+01</totfact>
</mgrwt>
</event>
<event>
 6    1  0.1364923E-004  0.6458874E+03  0.7818608E-02  0.9814527E-01
         21   -1    0    0  501  502  0.00000000000E+00  0.00000000000E+00  0.15426287773E+03  0.15426287773E+03  0.00000000000E+00 0.  1.
         13   -1    0    0    0    0 -0.00000000000E+00 -0.00000000000E+00 -0.10000000000E+04  0.10000000000E+04  0.00000000000E+00 0.  1.
    9000005    2    1    2  501    0  0.14719210287E+02  0.76183693606E+02 -0.85983417579E+03  0.10754001030E+04  0.64120976389E+03 0.  0.
         13    1    3    3    0    0  0.27461457976E+03 -0.12801259554E+02 -0.71245631753E+03  0.76365636516E+03  0.00000000000E+00 0.  1.
          3    1    3    3  501    0 -0.25989536947E+03  0.88984953159E+02 -0.14737785826E+03  0.31174373782E+03  0.00000000000E+00 0.  1.
         -1    1    1    2    0  502 -0.14719210287E+02 -0.76183693606E+02  0.14097053523E+02  0.78862774748E+02  0.00000000000E+00 0. -1.
<mgrwt>
<rscale>  1 0.64588743E+03</rscale>
<asrwt>0</asrwt>
<pdfrwt beam="1">  1       21 0.23732750E-01 0.64588743E+03</pdfrwt>
<pdfrwt beam="2">0</pdfrwt>
<totfact> 0.16123812E+03</totfact>
</mgrwt>
</event>
<event>
 6    1  0.1364923E-004  0.6444819E+03  0.7818608E-02  0.9817189E-01
         21   -1    0    0  501  502  0.00000000000E+00  0.00000000000E+00  0.50458666058E+03  0.50458666058E+03  0.00000000000E+00 0. -1.
         13   -1    0    0    0    0 -0.00000000000E+00 -0.00000000000E+00 -0.10000000000E+04  0.10000000000E+04  0.00000000000E+00 0.  1.
    9000005    2    1    2  501    0  0.38352114974E+02 -0.14362390846E+02 -0.89500541535E+03  0.11029014727E+04  0.64317944778E+03 0.  0.
         13    1    3    3    0    0  0.31153667710E+03  0.29404510680E+02 -0.69287965859E+03  0.76026439329E+03  0.00000000000E+00 0.  1.
          1    1    3    3  501    0 -0.27318456213E+03 -0.43766901526E+02 -0.20212575676E+03  0.34263707943E+03  0.00000000000E+00 0.  1.
         -1    1    1    2    0  502 -0.38352114974E+02  0.14362390846E+02  0.39959207593E+03  0.40168518785E+03  0.00000000000E+00 0. -1.
<mgrwt>
<rscale>  1 0.64448194E+03</rscale>
<asrwt>0</asrwt>
<pdfrwt beam="1">  1       21 0.77628715E-01 0.64448194E+03</pdfrwt>
<pdfrwt beam="2">0</pdfrwt>
<totfact> 0.13259944E+02</totfact>
</mgrwt>
</event>
<event>
 6    1  0.1364923E-004  0.6633349E+03  0.7818608E-02  0.9782074E-01
         21   -1    0    0  501  502  0.00000000000E+00  0.00000000000E+00  0.18951722030E+03  0.18951722030E+03  0.00000000000E+00 0.  1.
         13   -1    0    0    0    0 -0.00000000000E+00 -0.00000000000E+00 -0.10000000000E+04  0.10000000000E+04  0.00000000000E+00 0.  1.
    9000005    2    1    2  501    0  0.39667694528E+02 -0.27791738268E+02 -0.88171745716E+03  0.11033761385E+04  0.66156429922E+03 0.  0.
         13    1    3    3    0    0  0.14162143981E+03 -0.30942347880E+03 -0.61233831293E+03  0.70054102730E+03  0.00000000000E+00 0.  1.
          3    1    3    3  501    0 -0.10195374528E+03  0.28163174053E+03 -0.26937914423E+03  0.40283511118E+03  0.00000000000E+00 0.  1.
         -3    1    1    2    0  502 -0.39667694528E+02  0.27791738268E+02  0.71234677452E+02  0.86141081819E+02  0.00000000000E+00 0. -1.
<mgrwt>
<rscale>  1 0.66333493E+03</rscale>
<asrwt>0</asrwt>
<pdfrwt beam="1">  1       21 0.29156495E-01 0.66333493E+03</pdfrwt>
<pdfrwt beam="2">0</pdfrwt>
<totfact> 0.10734506E+03</totfact>
</mgrwt>
</event>
<event>
 6    1  0.1364923E-004  0.6443461E+03  0.7818608E-02  0.9817447E-01
         21   -1    0    0  501  502  0.00000000000E+00  0.00000000000E+00  0.12563673058E+03  0.12563673058E+03  0.00000000000E+00 0.  1.
         13   -1    0    0    0    0 -0.00000000000E+00 -0.00000000000E+00 -0.10000000000E+04  0.10000000000E+04  0.00000000000E+00 0.  1.
    9000005    2    1    2  501    0 -0.54642497213E+02  0.33221197378E+02 -0.80821358581E+03  0.10336300401E+04  0.64116488439E+03 0.  0.
         13    1    3    3    0    0  0.21898547320E+03 -0.16823300839E+03 -0.21492266269E+03  0.34992675451E+03  0.00000000000E+00 0.  1.
          1    1    3    3  501    0 -0.27362797041E+03  0.20145420577E+03 -0.59329092313E+03  0.68370328555E+03  0.00000000000E+00 0.  1.
         -3    1    1    2    0  502  0.54642497213E+02 -0.33221197378E+02 -0.66149683614E+02  0.92006690513E+02  0.00000000000E+00 0. -1.
<mgrwt>
<rscale>  1 0.64434607E+03</rscale>
<asrwt>0</asrwt>
<pdfrwt beam="1">  1       21 0.19328727E-01 0.64434607E+03</pdfrwt>
<pdfrwt beam="2">0</pdfrwt>
<totfact> 0.23963489E+03</totfact>
</mgrwt>
</event>
<event>
 6    1  0.1364923E-004  0.6493787E+03  0.7818608E-02  0.9807946E-01
         21   -1    0    0  501  502  0.00000000000E+00  0.00000000000E+00  0.20825209727E+03  0.20825209727E+03  0.00000000000E+00 0.  1.
         13   -1    0    0    0    0 -0.00000000000E+00 -0.00000000000E+00 -0.10000000000E+04  0.10000000000E+04  0.00000000000E+00 0.  1.
    9000005    2    1    2  501    0 -0.66741703668E+02  0.18557673431E+02 -0.88150489241E+03  0.10948715017E+04  0.64567320502E+03 0.  0.
         13    1    3    3    0    0 -0.14851510821E+03 -0.50481294155E+02 -0.95322303198E+03  0.96604308762E+03  0.00000000000E+00 0.  1.
          1    1    3    3  501    0  0.81773404544E+02  0.69038967586E+02  0.71718139574E+02  0.12882841410E+03  0.00000000000E+00 0.  1.
         -3    1    1    2    0  502  0.66741703668E+02 -0.18557673431E+02  0.89756989679E+02  0.11338059555E+03  0.00000000000E+00 0. -1.
<mgrwt>
<rscale>  1 0.64937873E+03</rscale>
<asrwt>0</asrwt>
<pdfrwt beam="1">  1       21 0.32038783E-01 0.64937873E+03</pdfrwt>
<pdfrwt beam="2">0</pdfrwt>
<totfact> 0.88922756E+02</totfact>
</mgrwt>
</event>
<event>
 6    1  0.1364923E-004  0.6330200E+03  0.7818608E-02  0.9839173E-01
         21   -1    0    0  501  502  0.00000000000E+00  0.00000000000E+00  0.27614507986E+03  0.27614507986E+03  0.00000000000E+00 0. -1.
         13   -1    0    0    0    0 -0.00000000000E+00 -0.00000000000E+00 -0.10000000000E+04  0.10000000000E+04  0.00000000000E+00 0.  1.
    9000005    2    1    2  501    0 -0.98197834872E+02  0.18490223321E+02 -0.88406400676E+03  0.10873286225E+04  0.62508372411E+03 0.  0.
         13    1    3    3    0    0  0.23096365134E+03  0.94589171188E+02 -0.18422380547E+03  0.31020917145E+03  0.00000000000E+00 0.  1.
          3    1    3    3  501    0 -0.32916148622E+03 -0.76098947867E+02 -0.69984020129E+03  0.77711945106E+03  0.00000000000E+00 0.  1.
         -3    1    1    2    0  502  0.98197834872E+02 -0.18490223321E+02  0.16020908662E+03  0.18881645736E+03  0.00000000000E+00 0. -1.
<mgrwt>
<rscale>  1 0.63302004E+03</rscale>
<asrwt>0</asrwt>
<pdfrwt beam="1">  1       21 0.42483857E-01 0.63302004E+03</pdfrwt>
<pdfrwt beam="2">0</pdfrwt>
<totfact> 0.49880899E+02</totfact>
</mgrwt>
</event>
<event>
 6    1  0.1364923E-004  0.6340437E+03  0.7818608E-02  0.9837189E-01
         21   -1    0    0  501  502  0.00000000000E+00  0.00000000000E+00  0.13777122785E+03  0.13777122785E+03  0.00000000000E+00 0.  1.
         13   -1    0    0    0    0 -0.00000000000E+00 -0.00000000000E+00 -0.10000000000E+04  0.10000000000E+04  0.00000000000E+00 0.  1.
    9000005    2    1    2  501    0  0.56504508512E+02  0.47888703740E+01 -0.87409138812E+03  0.10798366577E+04  0.63150277889E+03 0.  0.
         13    1    3    3    0    0  0.14128145091E+01 -0.30988127065E+03 -0.49612744430E+03  0.58495370665E+03  0.00000000000E+00 0.  1.
          3    1    3    3  501    0  0.55091694003E+02  0.31467014102E+03 -0.37796394383E+03  0.49488295104E+03  0.00000000000E+00 0.  1.
         -3    1    1    2    0  502 -0.56504508512E+02 -0.47888703740E+01  0.11862615976E+02  0.57934570158E+02  0.00000000000E+00 0. -1.
<mgrwt>
<rscale>  1 0.63404373E+03</rscale>
<asrwt>0</asrwt>
<pdfrwt beam="1">  1       21 0.21195573E-01 0.63404373E+03</pdfrwt>
<pdfrwt beam="2">0</pdfrwt>
<totfact> 0.20085562E+03</totfact>
</mgrwt>
</event>
<event>
 6    1  0.1364923E-004  0.6437181E+03  0.7818608E-02  0.9818639E-01
         21   -1    0    0  501  502  0.00000000000E+00  0.00000000000E+00  0.12144453779E+03  0.12144453779E+03  0.00000000000E+00 0.  1.
         13   -1    0    0    0    0 -0.00000000000E+00 -0.00000000000E+00 -0.10000000000E+04  0.10000000000E+04  0.00000000000E+00 0.  1.
    9000005    2    1    2  501    0  0.21493504307E+02  0.25016777731E+02 -0.87769782470E+03  0.10884514258E+04  0.64287263511E+03 0.  0.
         13    1    3    3    0    0  0.17849067357E+02  0.28783683621E+03 -0.73459431763E+03  0.78917516749E+03  0.00000000000E+00 0.  1.
          1    1    3    3  501    0  0.36444369503E+01 -0.26282005848E+03 -0.14310350707E+03  0.29927625833E+03  0.00000000000E+00 0.  1.
         -3    1    1    2    0  502 -0.21493504307E+02 -0.25016777731E+02 -0.85763751536E+00  0.32993111972E+02  0.00000000000E+00 0. -1.
<mgrwt>
<rscale>  1 0.64371813E+03</rscale>
<asrwt>0</asrwt>
<pdfrwt beam="1">  1       21 0.18683775E-01 0.64371813E+03</pdfrwt>
<pdfrwt beam="2">0</pdfrwt>
<totfact> 0.25567098E+03</totfact>
</mgrwt>
</event>
<event>
 6    1  0.1364923E-004  0.6575371E+03  0.7818608E-02  0.9792738E-01
         21   -1    0    0  501  502  0.00000000000E+00  0.00000000000E+00  0.15202236847E+03  0.15202236847E+03  0.00000000000E+00 0.  1.
         13   -1    0    0    0    0 -0.00000000000E+00 -0.00000000000E+00 -0.10000000000E+04  0.10000000000E+04  0.00000000000E+00 0.  1.
    9000005    2    1    2  501    0 -0.32805133989E+02  0.92386919633E+02 -0.81797843861E+03  0.10494969018E+04  0.65018728162E+03 0.  0.
         13    1    3    3    0    0  0.88282120268E+02 -0.25838851162E+03 -0.45346127322E+03  0.52932549721E+03  0.00000000000E+00 0.  1.
          3    1    3    3  501    0 -0.12108725426E+03  0.35077543125E+03 -0.36451716540E+03  0.52017140462E+03  0.00000000000E+00 0.  1.
         -1    1    1    2    0  502  0.32805133989E+02 -0.92386919633E+02 -0.29999192913E+02  0.10252546664E+03  0.00000000000E+00 0. -1.
<mgrwt>
<rscale>  1 0.65753709E+03</rscale>
<asrwt>0</asrwt>
<pdfrwt beam="1">  1       21 0.23388056E-01 0.65753709E+03</pdfrwt>
<pdfrwt beam="2">0</pdfrwt>
<totfact> 0.16580696E+03</totfact>
</mgrwt>
</event>
<event>
 6    1  0.1364923E-004  0.6433374E+03  0.7818608E-02  0.9819362E-01
         21   -1    0    0  501  502  0.00000000000E+00  0.00000000000E+00  0.22714259815E+03  0.22714259815E+03  0.00000000000E+00 0. -1.
         13   -1    0    0    0    0 -0.00000000000E+00 -0.00000000000E+00 -0.10000000000E+04  0.10000000000E+04  0.00000000000E+00 0.  1.
    9000005    2    1    2  501    0  0.56138424138E+02 -0.25704482542E+02 -0.88796323479E+03  0.10965225543E+04  0.64036767766E+03 0.  0.
         13    1    3    3    0    0  0.27449655417E+03 -0.40012891166E+02 -0.12767434373E+03  0.30536883888E+03  0.00000000000E+00 0.  1.
          3    1    3    3  501    0 -0.21835813003E+03  0.14308408624E+02 -0.76028889106E+03  0.79115371539E+03  0.00000000000E+00 0.  1.
         -3    1    1    2    0  502 -0.56138424138E+02  0.25704482542E+02  0.11510583294E+03  0.13062004389E+03  0.00000000000E+00 0. -1.
<mgrwt>
<rscale>  1 0.64333740E+03</rscale>
<asrwt>0</asrwt>
<pdfrwt beam="1">  1       21 0.34945014E-01 0.64333740E+03</pdfrwt>
<pdfrwt beam="2">0</pdfrwt>
<totfact> 0.74599249E+02</totfact>
</mgrwt>
</event>
<event>
 6    1  0.1364923E-004  0.6604865E+03  0.7818608E-02  0.9787299E-01
         21   -1    0    0  501  502  0.00000000000E+00  0.00000000000E+00  0.12349654714E+03  0.12349654714E+03  0.00000000000E+00 0.  1.
         13   -1    0    0    0    0 -0.00000000000E+00 -0.00000000000E+00 -0.10000000000E+04  0.10000000000E+04  0.00000000000E+00 0.  1.
    9000005    2    1    2  501    0 -0.14084104780E+02 -0.14709834584E+02 -0.88247637501E+03  0.11022735163E+04  0.66017241002E+03 0.  0.
         13    1    3    3    0    0 -0.29670069984E+03  0.56202789316E+02 -0.20553775913E+03  0.36528869301E+03  0.00000000000E+00 0.  1.
          1    1    3    3  501    0  0.28261659506E+03 -0.70912623901E+02 -0.67693861588E+03  0.73698482325E+03  0.00000000000E+00 0.  1.
         -1    1    1    2    0  502  0.14084104780E+02  0.14709834584E+02  0.59729221517E+01  0.21223030886E+02  0.00000000000E+00 0. -1.
<mgrwt>
<rscale>  1 0.66048645E+03</rscale>
<asrwt>0</asrwt>
<pdfrwt beam="1">  1       21 0.18999468E-01 0.66048645E+03</pdfrwt>
<pdfrwt beam="2">0</pdfrwt>
<totfact> 0.24748332E+03</totfact>
</mgrwt>
</event>
<event>
 6    1  0.1364923E-004  0.5510263E+03  0.7818608E-02  0.1001257E+00
         21   -1    0    0  501  502  0.00000000000E+00  0.00000000000E+00  0.14157847968E+03  0.14157847968E+03  0.00000000000E+00 0.  1.
         13   -1    0    0    0    0 -0.00000000000E+00 -0.00000000000E+00 -0.10000000000E+04  0.10000000000E+04  0.00000000000E+00 0.  1.
    9000005    2    1    2  501    0  0.24656312053E+02  0.37626250722E+01 -0.92153707392E+03  0.10737134358E+04  0.55046150871E+03 0.  0.
         13    1    3    3    0    0  0.87963190346E+02  0.67322486429E+02  0.32522935468E+02  0.11544514440E+03  0.00000000000E+00 0.  1.
          1    1    3    3  501    0 -0.63306878292E+02 -0.63559861356E+02 -0.95406000939E+03  0.95826829142E+03  0.00000000000E+00 0.  1.
         -1    1    1    2    0  502 -0.24656312053E+02 -0.37626250722E+01  0.63115553601E+02  0.67865043858E+02  0.00000000000E+00 0. -1.
<mgrwt>
<rscale>  1 0.55102628E+03</rscale>
<asrwt>0</asrwt>
<pdfrwt beam="1">  1       21 0.21781304E-01 0.55102628E+03</pdfrwt>
<pdfrwt beam="2">0</pdfrwt>
<totfact> 0.19132338E+03</totfact>
</mgrwt>
</event>
<event>
 6    1  0.1364923E-004  0.6888203E+03  0.7818608E-02  0.9736544E-01
         21   -1    0    0  501  502  0.00000000000E+00  0.00000000000E+00  0.21002825754E+03  0.21002825754E+03  0.00000000000E+00 0.  1.
         13   -1    0    0    0    0 -0.00000000000E+00 -0.00000000000E+00 -0.10000000000E+04  0.10000000000E+04  0.00000000000E+00 0.  1.
    9000005    2    1    2  501    0 -0.69409994033E+02  0.20200843553E+03 -0.68718510427E+03  0.97298343417E+03  0.65486505507E+03 0.  0.
         13    1    3    3    0    0 -0.14904093865E+03  0.22332024659E+03  0.12193508392E+02  0.26876349376E+03  0.00000000000E+00 0.  1.
          3    1    3    3  501    0  0.79630944618E+02 -0.21311811058E+02 -0.69937861266E+03  0.70421994042E+03  0.00000000000E+00 0.  1.
         -1    1    1    2    0  502  0.69409994033E+02 -0.20200843553E+03 -0.10278663819E+03  0.23704482337E+03  0.00000000000E+00 0. -1.
<mgrwt>
<rscale>  1 0.68882029E+03</rscale>
<asrwt>0</asrwt>
<pdfrwt beam="1">  1       21 0.32312039E-01 0.68882029E+03</pdfrwt>
<pdfrwt beam="2">0</pdfrwt>
<totfact> 0.87185419E+02</totfact>
</mgrwt>
</event>
<event>
 6    1  0.1364923E-004  0.6496522E+03  0.7818608E-02  0.9807432E-01
         21   -1    0    0  501  502  0.00000000000E+00  0.00000000000E+00  0.13615163441E+03  0.13615163441E+03  0.00000000000E+00 0.  1.
         13   -1    0    0    0    0 -0.00000000000E+00 -0.00000000000E+00 -0.10000000000E+04  0.10000000000E+04  0.00000000000E+00 0.  1.
    9000005    2    1    2  501    0 -0.32895181082E+02  0.60846841819E+01 -0.88404121929E+03  0.10970764804E+04  0.64879026667E+03 0.  0.
         13    1    3    3    0    0  0.11000921813E+03 -0.23558918400E+03 -0.12643582976E+03  0.28911988991E+03  0.00000000000E+00 0.  1.
          3    1    3    3  501    0 -0.14290439921E+03  0.24167386818E+03 -0.75760538953E+03  0.80795659050E+03  0.00000000000E+00 0.  1.
         -1    1    1    2    0  502  0.32895181082E+02 -0.60846841819E+01  0.20192853702E+02  0.39075154007E+02  0.00000000000E+00 0. -1.
<mgrwt>
<rscale>  1 0.64965216E+03</rscale>
<asrwt>0</asrwt>
<pdfrwt beam="1">  1       21 0.20946405E-01 0.64965216E+03</pdfrwt>
<pdfrwt beam="2">0</pdfrwt>
<totfact> 0.20534738E+03</totfact>
</mgrwt>
</event>
<event>
 6    1  0.1364923E-004  0.6497397E+03  0.7818608E-02  0.9807268E-01
         21   -1    0    0  501  502  0.00000000000E+00  0.00000000000E+00  0.13784788722E+03  0.13784788722E+03  0.00000000000E+00 0.  1.
         13   -1    0    0    0    0 -0.00000000000E+00 -0.00000000000E+00 -0.10000000000E+04  0.10000000000E+04  0.00000000000E+00 0.  1.
    9000005    2    1    2  501    0 -0.45688353700E+02 -0.11714288450E+02 -0.87415539349E+03  0.10891782975E+04  0.64802550992E+03 0.  0.
         13    1    3    3    0    0  0.19161073318E+03 -0.24589360768E+03 -0.35787249909E+03  0.47460622096E+03  0.00000000000E+00 0.  1.
          3    1    3    3  501    0 -0.23729908688E+03  0.23417931923E+03 -0.51628289440E+03  0.61457207652E+03  0.00000000000E+00 0.  1.
         -1    1    1    2    0  502  0.45688353700E+02  0.11714288450E+02  0.12003280709E+02  0.48669589740E+02  0.00000000000E+00 0. -1.
<mgrwt>
<rscale>  1 0.64973973E+03</rscale>
<asrwt>0</asrwt>
<pdfrwt beam="1">  1       21 0.21207367E-01 0.64973973E+03</pdfrwt>
<pdfrwt beam="2">0</pdfrwt>
<totfact> 0.20050477E+03</totfact>
</mgrwt>
</event>
<event>
 6    1  0.1364923E-004  0.6511759E+03  0.7818608E-02  0.9804575E-01
         21   -1    0    0  501  502  0.00000000000E+00  0.00000000000E+00  0.14399752627E+03  0.14399752627E+03  0.00000000000E+00 0.  1.
         13   -1    0    0    0    0 -0.00000000000E+00 -0.00000000000E+00 -0.10000000000E+04  0.10000000000E+04  0.00000000000E+00 0.  1.
    9000005    2    1    2  501    0  0.19162892473E+02 -0.17304242126E+02 -0.88907711075E+03  0.11020382024E+04  0.65066384370E+03 0.  0.
         13    1    3    3    0    0 -0.18221246790E+03  0.20698904466E+03 -0.68390279440E+03  0.73740686209E+03  0.00000000000E+00 0.  1.
          1    1    3    3  501    0  0.20137536038E+03 -0.22429328678E+03 -0.20517431635E+03  0.36463134033E+03  0.00000000000E+00 0.  1.
         -3    1    1    2    0  502 -0.19162892473E+02  0.17304242126E+02  0.33074637027E+02  0.41959323850E+02  0.00000000000E+00 0. -1.
<mgrwt>
<rscale>  1 0.65117593E+03</rscale>
<asrwt>0</asrwt>
<pdfrwt beam="1">  1       21 0.22153465E-01 0.65117593E+03</pdfrwt>
<pdfrwt beam="2">0</pdfrwt>
<totfact> 0.18427583E+03</totfact>
</mgrwt>
</event>
<event>
 6    1  0.1364923E-004  0.6525888E+03  0.7818608E-02  0.9801933E-01
         21   -1    0    0  501  502  0.00000000000E+00  0.00000000000E+00  0.47225851461E+03  0.47225851461E+03  0.00000000000E+00 0. -1.
         13   -1    0    0    0    0 -0.00000000000E+00 -0.00000000000E+00 -0.10000000000E+04  0.10000000000E+04  0.00000000000E+00 0.  1.
    9000005    2    1    2  501    0 -0.15301807947E+02 -0.28090850402E+02 -0.89275794799E+03  0.11058430958E+04  0.65180438593E+03 0.  0.
         13    1    3    3    0    0 -0.24145096367E+03  0.16016432530E+02 -0.70689781128E+02  0.25209549604E+03  0.00000000000E+00 0.  1.
          3    1    3    3  501    0  0.22614915573E+03 -0.44107282931E+02 -0.82206816686E+03  0.85374759971E+03  0.00000000000E+00 0.  1.
         -3    1    1    2    0  502  0.15301807947E+02  0.28090850402E+02  0.36501646260E+03  0.36641541885E+03  0.00000000000E+00 0. -1.
<mgrwt>
<rscale>  1 0.65258884E+03</rscale>
<asrwt>0</asrwt>
<pdfrwt beam="1">  1       21 0.72655154E-01 0.65258884E+03</pdfrwt>
<pdfrwt beam="2">0</pdfrwt>
<totfact> 0.15426555E+02</totfact>
</mgrwt>
</event>
<event>
 6    1  0.1364923E-004  0.7195348E+03  0.7818608E-02  0.9684396E-01
         21   -1    0    0  501  502  0.00000000000E+00  0.00000000000E+00  0.17234003758E+03  0.17234003758E+03  0.00000000000E+00 0.  1.
         13   -1    0    0    0    0 -0.00000000000E+00 -0.00000000000E+00 -0.10000000000E+04  0.10000000000E+04  0.00000000000E+00 0.  1.
    9000005    2    1    2  501    0  0.34682139969E+02  0.76436098792E+02 -0.81545845570E+03  0.10875213793E+04  0.71462222843E+03 0.  0.
         13    1    3    3    0    0  0.28382021214E+03 -0.19894271314E+03 -0.35773245309E+03  0.49810101779E+03  0.00000000000E+00 0.  1.
          1    1    3    3  501    0 -0.24913807217E+03  0.27537881193E+03 -0.45772600260E+03  0.58942036148E+03  0.00000000000E+00 0.  1.
         -3    1    1    2    0  502 -0.34682139969E+02 -0.76436098792E+02 -0.12201506723E+02  0.84818658311E+02  0.00000000000E+00 0. -1.
<mgrwt>
<rscale>  1 0.71953475E+03</rscale>
<asrwt>0</asrwt>
<pdfrwt beam="1">  1       21 0.26513851E-01 0.71953475E+03</pdfrwt>
<pdfrwt beam="2">0</pdfrwt>
<totfact> 0.12924438E+03</totfact>
</mgrwt>
</event>
<event>
 6    1  0.1364923E-004  0.6349717E+03  0.7818608E-02  0.9835395E-01
         21   -1    0    0  501  502  0.00000000000E+00  0.00000000000E+00  0.17959990281E+03  0.17959990281E+03  0.00000000000E+00 0.  1.
         13   -1    0    0    0    0 -0.00000000000E+00 -0.00000000000E+00 -0.10000000000E+04  0.10000000000E+04  0.00000000000E+00 0.  1.
    9000005    2    1    2  501    0 -0.58669351490E+02  0.61461774583E+02 -0.87312654319E+03  0.10796012996E+04  0.62926096582E+03 0.  0.
         13    1    3    3    0    0 -0.11219473890E+03  0.25030446887E+03 -0.11664557278E+03  0.29807075708E+03  0.00000000000E+00 0.  1.
          3    1    3    3  501    0  0.53525387411E+02 -0.18884269429E+03 -0.75648097041E+03  0.78153054251E+03  0.00000000000E+00 0.  1.
         -1    1    1    2    0  502  0.58669351490E+02 -0.61461774583E+02  0.52726446004E+02  0.99998603227E+02  0.00000000000E+00 0. -1.
<mgrwt>
<rscale>  1 0.63497166E+03</rscale>
<asrwt>0</asrwt>
<pdfrwt beam="1">  1       21 0.27630753E-01 0.63497166E+03</pdfrwt>
<pdfrwt beam="2">0</pdfrwt>
<totfact> 0.11966078E+03</totfact>
</mgrwt>
</event>
<event>
 6    1  0.1364923E-004  0.8803135E+03  0.7818608E-02  0.9450531E-01
         21   -1    0    0  501  502  0.00000000000E+00  0.00000000000E+00  0.75014274128E+03  0.75014274128E+03  0.00000000000E+00 0. -1.
         13   -1    0    0    0    0 -0.00000000000E+00 -0.00000000000E+00 -0.10000000000E+04  0.10000000000E+04  0.00000000000E+00 0.  1.
    9000005    2    1    2  501    0 -0.10421659589E+03  0.59013760413E+03 -0.59126403782E+03  0.10604456487E+04  0.64484751750E+03 0.  0.
         13    1    3    3    0    0  0.16237249932E+03 -0.10346297017E+02 -0.30104630886E+03  0.34219987504E+03  0.00000000000E+00 0.  1.
          3    1    3    3  501    0 -0.26658909521E+03  0.60048390114E+03 -0.29021772896E+03  0.71824577369E+03  0.00000000000E+00 0.  1.
         -1    1    1    2    0  502  0.10421659589E+03 -0.59013760413E+03  0.34140677911E+03  0.68969709256E+03  0.00000000000E+00 0. -1.
<mgrwt>
<rscale>  1 0.88031347E+03</rscale>
<asrwt>0</asrwt>
<pdfrwt beam="1">  1       21 0.11540657E+00 0.88031347E+03</pdfrwt>
<pdfrwt beam="2">0</pdfrwt>
<totfact> 0.49124411E+01</totfact>
</mgrwt>
</event>
<event>
 6    1  0.1364923E-004  0.6502327E+03  0.7818608E-02  0.9806343E-01
         21   -1    0    0  501  502  0.00000000000E+00  0.00000000000E+00  0.16045526435E+03  0.16045526435E+03  0.00000000000E+00 0.  1.
         13   -1    0    0    0    0 -0.00000000000E+00 -0.00000000000E+00 -0.10000000000E+04  0.10000000000E+04  0.00000000000E+00 0.  1.
    9000005    2    1    2  501    0 -0.18132641437E+02  0.60330468474E+02 -0.87345599511E+03  0.10889113504E+04  0.64717385255E+03 0.  0.
         13    1    3    3    0    0 -0.13875719841E+03 -0.14423168568E+03 -0.17821656511E+02  0.20093270193E+03  0.00000000000E+00 0.  1.
          1    1    3    3  501    0  0.12062455697E+03  0.20456215416E+03 -0.85563433860E+03  0.88797864842E+03  0.00000000000E+00 0.  1.
         -3    1    1    2    0  502  0.18132641437E+02 -0.60330468474E+02  0.33911259457E+02  0.71543913995E+02  0.00000000000E+00 0. -1.
<mgrwt>
<rscale>  1 0.65023269E+03</rscale>
<asrwt>0</asrwt>
<pdfrwt beam="1">  1       21 0.24685425E-01 0.65023269E+03</pdfrwt>
<pdfrwt beam="2">0</pdfrwt>
<totfact> 0.14927282E+03</totfact>
</mgrwt>
</event>
<event>
 6    1  0.1364923E-004  0.6746132E+03  0.7818608E-02  0.9761660E-01
         21   -1    0    0  501  502  0.00000000000E+00  0.00000000000E+00  0.14885652705E+03  0.14885652705E+03  0.00000000000E+00 0.  1.
         13   -1    0    0    0    0 -0.00000000000E+00 -0.00000000000E+00 -0.10000000000E+04  0.10000000000E+04  0.00000000000E+00 0.  1.
    9000005    2    1    2  501    0  0.13310211042E+02  0.81964972508E+02 -0.81582598858E+03  0.10586193776E+04  0.66948302786E+03 0.  0.
         13    1    3    3    0    0  0.27391895218E+03 -0.68520604894E+02 -0.13237786498E+03  0.31185022814E+03  0.00000000000E+00 0.  1.
          3    1    3    3  501    0 -0.26060874113E+03  0.15048557740E+03 -0.68344812360E+03  0.74676914948E+03  0.00000000000E+00 0.  1.
         -3    1    1    2    0  502 -0.13310211042E+02 -0.81964972508E+02 -0.35317484366E+02  0.90237149435E+02  0.00000000000E+00 0. -1.
<mgrwt>
<rscale>  1 0.67461318E+03</rscale>
<asrwt>0</asrwt>
<pdfrwt beam="1">  1       21 0.22901004E-01 0.67461318E+03</pdfrwt>
<pdfrwt beam="2">0</pdfrwt>
<totfact> 0.17260048E+03</totfact>
</mgrwt>
</event>
<event>
 6    1  0.1364923E-004  0.7170876E+03  0.7818608E-02  0.9688448E-01
         21   -1    0    0  501  502  0.00000000000E+00  0.00000000000E+00  0.34188419957E+03  0.34188419957E+03  0.00000000000E+00 0. -1.
         13   -1    0    0    0    0 -0.00000000000E+00 -0.00000000000E+00 -0.10000000000E+04  0.10000000000E+04  0.00000000000E+00 0.  1.
    9000005    2    1    2  501    0 -0.13975194470E+03 -0.27723279391E+03 -0.72991429517E+03  0.10232250526E+04  0.64639461787E+03 0.  0.
         13    1    3    3    0    0  0.25179576120E+03 -0.72371226351E+02 -0.18050688836E+03  0.31815316517E+03  0.00000000000E+00 0.  1.
          3    1    3    3  501    0 -0.39154770590E+03 -0.20486156756E+03 -0.54940740681E+03  0.70507188748E+03  0.00000000000E+00 0.  1.
         -1    1    1    2    0  502  0.13975194470E+03  0.27723279391E+03  0.71798494736E+02  0.31865914692E+03  0.00000000000E+00 0. -1.
<mgrwt>
<rscale>  1 0.71708760E+03</rscale>
<asrwt>0</asrwt>
<pdfrwt beam="1">  1       21 0.52597568E-01 0.71708760E+03</pdfrwt>
<pdfrwt beam="2">0</pdfrwt>
<totfact> 0.31429034E+02</totfact>
</mgrwt>
</event>
<event>
 6    1  0.1364923E-004  0.4725891E+03  0.7818608E-02  0.1021192E+00
         21   -1    0    0  501  502  0.00000000000E+00  0.00000000000E+00  0.99037534903E+02  0.99037534903E+02  0.00000000000E+00 0.  1.
         13   -1    0    0    0    0 -0.00000000000E+00 -0.00000000000E+00 -0.10000000000E+04  0.10000000000E+04  0.00000000000E+00 0.  1.
    9000005    2    1    2  501    0 -0.44082775423E+02  0.51827984148E+02 -0.91474931232E+03  0.10296148572E+04  0.46766549866E+03 0.  0.
         13    1    3    3    0    0  0.34076540691E+02 -0.56490725027E+02 -0.89161570431E+03  0.89405311744E+03  0.00000000000E+00 0.  1.
          3    1    3    3  501    0 -0.78159316114E+02  0.10831870918E+03 -0.23133608014E+02  0.13556173971E+03  0.00000000000E+00 0.  1.
         -1    1    1    2    0  502  0.44082775423E+02 -0.51827984148E+02  0.13786847225E+02  0.69422677752E+02  0.00000000000E+00 0. -1.
<mgrwt>
<rscale>  1 0.47258909E+03</rscale>
<asrwt>0</asrwt>
<pdfrwt beam="1">  1       21 0.15236543E-01 0.47258909E+03</pdfrwt>
<pdfrwt beam="2">0</pdfrwt>
<totfact> 0.37739806E+03</totfact>
</mgrwt>
</event>
<event>
 6    1  0.1364923E-004  0.6533552E+03  0.7818608E-02  0.9800504E-01
         21   -1    0    0  501  502  0.00000000000E+00  0.00000000000E+00  0.12864773079E+03  0.12864773079E+03  0.00000000000E+00 0.  1.
         13   -1    0    0    0    0 -0.00000000000E+00 -0.00000000000E+00 -0.10000000000E+04  0.10000000000E+04  0.00000000000E+00 0.  1.
    9000005    2    1    2  501    0  0.14764006115E+02  0.16558296365E+02 -0.88688819457E+03  0.11015641928E+04  0.65297844381E+03 0.  0.
         13    1    3    3    0    0 -0.22215056829E+03 -0.11776724019E+03 -0.10300293166E+03  0.27171603152E+03  0.00000000000E+00 0.  1.
          1    1    3    3  501    0  0.23691457440E+03  0.13432553656E+03 -0.78388526290E+03  0.82984816125E+03  0.00000000000E+00 0.  1.
         -1    1    1    2    0  502 -0.14764006115E+02 -0.16558296365E+02  0.15535925360E+02  0.27083538024E+02  0.00000000000E+00 0. -1.
<mgrwt>
<rscale>  1 0.65335519E+03</rscale>
<asrwt>0</asrwt>
<pdfrwt beam="1">  1       21 0.19791958E-01 0.65335519E+03</pdfrwt>
<pdfrwt beam="2">0</pdfrwt>
<totfact> 0.22893894E+03</totfact>
</mgrwt>
</event>
<event>
 6    1  0.1364923E-004  0.7310227E+03  0.7818608E-02  0.9665602E-01
         21   -1    0    0  501  502  0.00000000000E+00  0.00000000000E+00  0.25119263992E+03  0.25119263992E+03  0.00000000000E+00 0.  1.
         13   -1    0    0    0    0 -0.00000000000E+00 -0.00000000000E+00 -0.10000000000E+04  0.10000000000E+04  0.00000000000E+00 0.  1.
    9000005    2    1    2  501    0  0.24327435476E+03  0.43662059010E+02 -0.67042789718E+03  0.99190105254E+03  0.68797190758E+03 0.  0.
         13    1    3    3    0    0 -0.64429432798E+01 -0.15107057315E+03 -0.65782635055E+03  0.67498099015E+03  0.00000000000E+00 0.  1.
          1    1    3    3  501    0  0.24971729804E+03  0.19473263216E+03 -0.12601546637E+02  0.31692006239E+03  0.00000000000E+00 0.  1.
         -1    1    1    2    0  502 -0.24327435476E+03 -0.43662059010E+02 -0.78379462901E+02  0.25929158738E+03  0.00000000000E+00 0. -1.
<mgrwt>
<rscale>  1 0.73102266E+03</rscale>
<asrwt>0</asrwt>
<pdfrwt beam="1">  1       21 0.38645020E-01 0.73102266E+03</pdfrwt>
<pdfrwt beam="2">0</pdfrwt>
<totfact> 0.60289256E+02</totfact>
</mgrwt>
</event>
<event>
 6    1  0.1364923E-004  0.6514744E+03  0.7818608E-02  0.9804016E-01
         21   -1    0    0  501  502  0.00000000000E+00  0.00000000000E+00  0.21701108585E+03  0.21701108585E+03  0.00000000000E+00 0.  1.
         13   -1    0    0    0    0 -0.00000000000E+00 -0.00000000000E+00 -0.10000000000E+04  0.10000000000E+04  0.00000000000E+00 0.  1.
    9000005    2    1    2  501    0  0.50162254938E+02 -0.23756269121E+02 -0.88615698220E+03  0.10998604887E+04  0.64910575826E+03 0.  0.
         13    1    3    3    0    0  0.33125920839E+02  0.21799056912E+03 -0.45724498840E+02  0.22518424601E+03  0.00000000000E+00 0.  1.
          1    1    3    3  501    0  0.17036334099E+02 -0.24174683824E+03 -0.84043248336E+03  0.87467624271E+03  0.00000000000E+00 0.  1.
         -3    1    1    2    0  502 -0.50162254938E+02  0.23756269121E+02  0.10316806805E+03  0.11715059713E+03  0.00000000000E+00 0. -1.
<mgrwt>
<rscale>  1 0.65147440E+03</rscale>
<asrwt>0</asrwt>
<pdfrwt beam="1">  1       21 0.33386320E-01 0.65147440E+03</pdfrwt>
<pdfrwt beam="2">0</pdfrwt>
<totfact> 0.81802406E+02</totfact>
</mgrwt>
</event>
<event>
 6    1  0.1364923E-004  0.6545473E+03  0.7818608E-02  0.9798284E-01
         21   -1    0    0  501  502  0.00000000000E+00  0.00000000000E+00  0.12069658065E+03  0.12069658065E+03  0.00000000000E+00 0.  1.
         13   -1    0    0    0    0 -0.00000000000E+00 -0.00000000000E+00 -0.10000000000E+04  0.10000000000E+04  0.00000000000E+00 0.  1.
    9000005    2    1    2  501    0 -0.23565468386E+02 -0.46937596104E+01 -0.87990479465E+03  0.10966606839E+04  0.65410614225E+03 0.  0.
         13    1    3    3    0    0 -0.15776237039E+03 -0.28994820104E+03 -0.35813375051E+03  0.48705103229E+03  0.00000000000E+00 0.  1.
          3    1    3    3  501    0  0.13419690201E+03  0.28525444143E+03 -0.52177104414E+03  0.60960965163E+03  0.00000000000E+00 0.  1.
         -1    1    1    2    0  502  0.23565468386E+02  0.46937596104E+01  0.60137529803E+00  0.24035896733E+02  0.00000000000E+00 0. -1.
<mgrwt>
<rscale>  1 0.65454733E+03</rscale>
<asrwt>0</asrwt>
<pdfrwt beam="1">  1       21 0.18568704E-01 0.65454733E+03</pdfrwt>
<pdfrwt beam="2">0</pdfrwt>
<totfact> 0.25859635E+03</totfact>
</mgrwt>
</event>
<event>
 6    1  0.1364923E-004  0.6535060E+03  0.7818608E-02  0.9800223E-01
         21   -1    0    0  501  502  0.00000000000E+00  0.00000000000E+00  0.29309725695E+03  0.29309725695E+03  0.00000000000E+00 0. -1.
         13   -1    0    0    0    0 -0.00000000000E+00 -0.00000000000E+00 -0.10000000000E+04  0.10000000000E+04  0.00000000000E+00 0.  1.
    9000005    2    1    2  501    0  0.76419464449E+02  0.14400248736E+02 -0.88420285751E+03  0.10994929380E+04  0.64886264023E+03 0.  0.
         13    1    3    3    0    0 -0.15204064574E+03 -0.21540144889E+03 -0.16596843153E+03  0.31154399754E+03  0.00000000000E+00 0.  1.
          3    1    3    3  501    0  0.22846011019E+03  0.22980169762E+03 -0.71823442598E+03  0.78794894050E+03  0.00000000000E+00 0.  1.
         -3    1    1    2    0  502 -0.76419464449E+02 -0.14400248736E+02  0.17730011445E+03  0.19360431890E+03  0.00000000000E+00 0. -1.
<mgrwt>
<rscale>  1 0.65350595E+03</rscale>
<asrwt>0</asrwt>
<pdfrwt beam="1">  1       21 0.45091884E-01 0.65350595E+03</pdfrwt>
<pdfrwt beam="2">0</pdfrwt>
<totfact> 0.43929703E+02</totfact>
</mgrwt>
</event>
<event>
 6    1  0.1364923E-004  0.6347628E+03  0.7818608E-02  0.9835798E-01
         21   -1    0    0  501  502  0.00000000000E+00  0.00000000000E+00  0.13010322646E+03  0.13010322646E+03  0.00000000000E+00 0.  1.
         13   -1    0    0    0    0 -0.00000000000E+00 -0.00000000000E+00 -0.10000000000E+04  0.10000000000E+04  0.00000000000E+00 0.  1.
    9000005    2    1    2  501    0  0.19156019506E+02 -0.13487026907E+02 -0.89403911904E+03  0.10964623908E+04  0.63433033592E+03 0.  0.
         13    1    3    3    0    0 -0.10703477344E+03 -0.16343129889E+03 -0.15105485766E+02  0.19594491032E+03  0.00000000000E+00 0.  1.
          3    1    3    3  501    0  0.12619079294E+03  0.14994427198E+03 -0.87893363328E+03  0.90051748047E+03  0.00000000000E+00 0.  1.
         -3    1    1    2    0  502 -0.19156019506E+02  0.13487026907E+02  0.24142345507E+02  0.33640835672E+02  0.00000000000E+00 0. -1.
<mgrwt>
<rscale>  1 0.63476281E+03</rscale>
<asrwt>0</asrwt>
<pdfrwt beam="1">  1       21 0.20015880E-01 0.63476281E+03</pdfrwt>
<pdfrwt beam="2">0</pdfrwt>
<totfact> 0.22421956E+03</totfact>
</mgrwt>
</event>
<event>
 6    1  0.1364923E-004  0.6549627E+03  0.7818608E-02  0.9797511E-01
         21   -1    0    0  501  502  0.00000000000E+00  0.00000000000E+00  0.12349736778E+03  0.12349736778E+03  0.00000000000E+00 0.  1.
         13   -1    0    0    0    0 -0.00000000000E+00 -0.00000000000E+00 -0.10000000000E+04  0.10000000000E+04  0.00000000000E+00 0.  1.
    9000005    2    1    2  501    0 -0.54271723606E+01  0.36778614833E+02 -0.86417184470E+03  0.10843288979E+04  0.65390676785E+03 0.  0.
         13    1    3    3    0    0 -0.11890447025E+03 -0.25510605579E+03 -0.18605975790E+03  0.33739532637E+03  0.00000000000E+00 0.  1.
          1    1    3    3  501    0  0.11347729789E+03  0.29188467062E+03 -0.67811208680E+03  0.74693357158E+03  0.00000000000E+00 0.  1.
         -3    1    1    2    0  502  0.54271723606E+01 -0.36778614833E+02 -0.12330787513E+02  0.39168469839E+02  0.00000000000E+00 0. -1.
<mgrwt>
<rscale>  1 0.65496273E+03</rscale>
<asrwt>0</asrwt>
<pdfrwt beam="1">  1       21 0.18999594E-01 0.65496273E+03</pdfrwt>
<pdfrwt beam="2">0</pdfrwt>
<totfact> 0.24752923E+03</totfact>
</mgrwt>
</event>
<event>
 6    1  0.1364923E-004  0.6808783E+03  0.7818608E-02  0.9750503E-01
         21   -1    0    0  501  502  0.00000000000E+00  0.00000000000E+00  0.17716123097E+03  0.17716123097E+03  0.00000000000E+00 0.  1.
         13   -1    0    0    0    0 -0.00000000000E+00 -0.00000000000E+00 -0.10000000000E+04  0.10000000000E+04  0.00000000000E+00 0.  1.
    9000005    2    1    2  501    0  0.12129810042E+03 -0.33712129215E+02 -0.79771632265E+03  0.10487833741E+04  0.66913787635E+03 0.  0.
         13    1    3    3    0    0 -0.15104444883E+03  0.59075221179E+01 -0.75535679220E+03  0.77033317977E+03  0.00000000000E+00 0.  1.
          3    1    3    3  501    0  0.27234254925E+03 -0.39619651333E+02 -0.42359530446E+02  0.27845019433E+03  0.00000000000E+00 0.  1.
         -1    1    1    2    0  502 -0.12129810042E+03  0.33712129215E+02 -0.25122446385E+02  0.12837785687E+03  0.00000000000E+00 0. -1.
<mgrwt>
<rscale>  1 0.68087828E+03</rscale>
<asrwt>0</asrwt>
<pdfrwt beam="1">  1       21 0.27255573E-01 0.68087828E+03</pdfrwt>
<pdfrwt beam="2">0</pdfrwt>
<totfact> 0.12262700E+03</totfact>
</mgrwt>
</event>
<event>
 6    1  0.1364923E-004  0.6538731E+03  0.7818608E-02  0.9799539E-01
         21   -1    0    0  501  502  0.00000000000E+00  0.00000000000E+00  0.14965419789E+03  0.14965419789E+03  0.00000000000E+00 0.  1.
         13   -1    0    0    0    0 -0.00000000000E+00 -0.00000000000E+00 -0.10000000000E+04  0.10000000000E+04  0.00000000000E+00 0.  1.
    9000005    2    1    2  501    0 -0.23819970790E+02  0.21539561152E+02 -0.88633078601E+03  0.11014228516E+04  0.65308398540E+03 0.  0.
         13    1    3    3    0    0  0.41836323053E+02 -0.28402400016E+03 -0.20789078920E+03  0.35445520285E+03  0.00000000000E+00 0.  1.
          3    1    3    3  501    0 -0.65656293843E+02  0.30556356132E+03 -0.67843999681E+03  0.74696764870E+03  0.00000000000E+00 0.  1.
         -1    1    1    2    0  502  0.23819970790E+02 -0.21539561152E+02  0.35984983905E+02  0.48231346339E+02  0.00000000000E+00 0. -1.
<mgrwt>
<rscale>  1 0.65387310E+03</rscale>
<asrwt>0</asrwt>
<pdfrwt beam="1">  1       21 0.23023722E-01 0.65387310E+03</pdfrwt>
<pdfrwt beam="2">0</pdfrwt>
<totfact> 0.17097999E+03</totfact>
</mgrwt>
</event>
<event>
 6    1  0.1364923E-004  0.6694754E+03  0.7818608E-02  0.9770906E-01
         21   -1    0    0  501  502  0.00000000000E+00  0.00000000000E+00  0.16572850629E+03  0.16572850629E+03  0.00000000000E+00 0.  1.
         13   -1    0    0    0    0 -0.00000000000E+00 -0.00000000000E+00 -0.10000000000E+04  0.10000000000E+04  0.00000000000E+00 0.  1.
    9000005    2    1    2  501    0  0.98714685515E+01 -0.41273527166E+02 -0.87844424101E+03  0.11044734531E+04  0.66812901009E+03 0.  0.
         13    1    3    3    0    0  0.24858443204E+03 -0.23411698981E+03 -0.32375669478E+03  0.47055646015E+03  0.00000000000E+00 0.  1.
          3    1    3    3  501    0 -0.23871296349E+03  0.19284346265E+03 -0.55468754623E+03  0.63391699296E+03  0.00000000000E+00 0.  1.
         -3    1    1    2    0  502 -0.98714685515E+01  0.41273527166E+02  0.44172747302E+02  0.61255053182E+02  0.00000000000E+00 0. -1.
<mgrwt>
<rscale>  1 0.66947541E+03</rscale>
<asrwt>0</asrwt>
<pdfrwt beam="1">  1       21 0.25496693E-01 0.66947541E+03</pdfrwt>
<pdfrwt beam="2">0</pdfrwt>
<totfact> 0.13996003E+03</totfact>
</mgrwt>
</event>
<event>
 6    1  0.1364923E-004  0.6533551E+03  0.7818608E-02  0.9800504E-01
         21   -1    0    0  501  502  0.00000000000E+00  0.00000000000E+00  0.27708334128E+03  0.27708334128E+03  0.00000000000E+00 0. -1.
         13   -1    0    0    0    0 -0.00000000000E+00 -0.00000000000E+00 -0.10000000000E+04  0.10000000000E+04  0.00000000000E+00 0.  1.
    9000005    2    1    2  501    0  0.25361412239E+02 -0.64351070290E+01 -0.89216914761E+03  0.11058203364E+04  0.65283092504E+03 0.  0.
         13    1    3    3    0    0 -0.38462405428E+02 -0.29991071915E+03 -0.66082022477E+03  0.72671119817E+03  0.00000000000E+00 0.  1.
          3    1    3    3  501    0  0.63823817667E+02  0.29347561212E+03 -0.23134892284E+03  0.37910913826E+03  0.00000000000E+00 0.  1.
         -3    1    1    2    0  502 -0.25361412239E+02  0.64351070290E+01  0.16925248889E+03  0.17126300485E+03  0.00000000000E+00 0. -1.
<mgrwt>
<rscale>  1 0.65335506E+03</rscale>
<asrwt>0</asrwt>
<pdfrwt beam="1">  1       21 0.42628205E-01 0.65335506E+03</pdfrwt>
<pdfrwt beam="2">0</pdfrwt>
<totfact> 0.49441607E+02</totfact>
</mgrwt>
</event>
<event>
 6    1  0.1364923E-004  0.7429228E+03  0.7818608E-02  0.9646519E-01
         21   -1    0    0  501  502  0.00000000000E+00  0.00000000000E+00  0.18117178060E+03  0.18117178060E+03  0.00000000000E+00 0.  1.
         13   -1    0    0    0    0 -0.00000000000E+00 -0.00000000000E+00 -0.10000000000E+04  0.10000000000E+04  0.00000000000E+00 0.  1.
    9000005    2    1    2  501    0 -0.62228291426E+02  0.79457555787E+02 -0.76663252341E+03  0.10675484815E+04  0.73603564514E+03 0.  0.
         13    1    3    3    0    0 -0.24406236431E+03 -0.22116134910E+03 -0.58668256829E+03  0.67281142673E+03  0.00000000000E+00 0.  1.
          1    1    3    3  501    0  0.18183407289E+03  0.30061890488E+03 -0.17994995512E+03  0.39473705474E+03  0.00000000000E+00 0.  1.
         -3    1    1    2    0  502  0.62228291426E+02 -0.79457555787E+02 -0.52195695989E+02  0.11362329913E+03  0.00000000000E+00 0. -1.
<mgrwt>
<rscale>  1 0.74292283E+03</rscale>
<asrwt>0</asrwt>
<pdfrwt beam="1">  1       21 0.27872581E-01 0.74292283E+03</pdfrwt>
<pdfrwt beam="2">0</pdfrwt>
<totfact> 0.11690917E+03</totfact>
</mgrwt>
</event>
<event>
 6    1  0.1364923E-004  0.6051266E+03  0.7818608E-02  0.9894827E-01
         21   -1    0    0  501  502  0.00000000000E+00  0.00000000000E+00  0.13177197347E+03  0.13177197347E+03  0.00000000000E+00 0.  1.
         13   -1    0    0    0    0 -0.00000000000E+00 -0.00000000000E+00 -0.10000000000E+04  0.10000000000E+04  0.00000000000E+00 0.  1.
    9000005    2    1    2  501    0  0.74000231790E+02 -0.32420630197E+02 -0.85859195206E+03  0.10504086802E+04  0.59970919923E+03 0.  0.
         13    1    3    3    0    0 -0.24704632643E+03 -0.83084837728E+02 -0.25371120754E+03  0.36373665542E+03  0.00000000000E+00 0.  1.
          1    1    3    3  501    0  0.32104655822E+03  0.50664207531E+02 -0.60488074452E+03  0.68667202474E+03  0.00000000000E+00 0.  1.
         -1    1    1    2    0  502 -0.74000231790E+02  0.32420630197E+02 -0.96360744726E+01  0.81363293312E+02  0.00000000000E+00 0. -1.
<mgrwt>
<rscale>  1 0.60512664E+03</rscale>
<asrwt>0</asrwt>
<pdfrwt beam="1">  1       21 0.20272611E-01 0.60512664E+03</pdfrwt>
<pdfrwt beam="2">0</pdfrwt>
<totfact> 0.21907668E+03</totfact>
</mgrwt>
</event>
<event>
 6    1  0.1364923E-004  0.6495872E+03  0.7818608E-02  0.9807554E-01
         21   -1    0    0  501  502  0.00000000000E+00  0.00000000000E+00  0.16870085551E+03  0.16870085551E+03  0.00000000000E+00 0. -1.
         13   -1    0    0    0    0 -0.00000000000E+00 -0.00000000000E+00 -0.10000000000E+04  0.10000000000E+04  0.00000000000E+00 0.  1.
    9000005    2    1    2  501    0  0.15003885484E+02 -0.35909643212E+02 -0.88781487316E+03  0.11000812764E+04  0.64842034712E+03 0.  0.
         13    1    3    3    0    0 -0.13874263174E+03  0.24689416622E+03 -0.21958661869E+03  0.35836368438E+03  0.00000000000E+00 0.  1.
          1    1    3    3  501    0  0.15374651723E+03 -0.28280380943E+03 -0.66822825447E+03  0.74171759199E+03  0.00000000000E+00 0.  1.
         -1    1    1    2    0  502 -0.15003885484E+02  0.35909643212E+02  0.56515728669E+02  0.68619579146E+02  0.00000000000E+00 0. -1.
<mgrwt>
<rscale>  1 0.64958723E+03</rscale>
<asrwt>0</asrwt>
<pdfrwt beam="1">  1       21 0.25953977E-01 0.64958723E+03</pdfrwt>
<pdfrwt beam="2">0</pdfrwt>
<totfact> 0.13529423E+03</totfact>
</mgrwt>
</event>
<event>
 6    1  0.1364923E-004  0.6453500E+03  0.7818608E-02  0.9815544E-01
         21   -1    0    0  501  502  0.00000000000E+00  0.00000000000E+00  0.35895915772E+03  0.35895915772E+03  0.00000000000E+00 0.  1.
         13   -1    0    0    0    0 -0.00000000000E+00 -0.00000000000E+00 -0.10000000000E+04  0.10000000000E+04  0.00000000000E+00 0.  1.
    9000005    2    1    2  501    0 -0.22463352660E+01  0.44514963559E+02 -0.89372691224E+03  0.11023721784E+04  0.64380897638E+03 0.  0.
         13    1    3    3    0    0 -0.11587388504E+03  0.14033289498E+03 -0.93141971747E+03  0.94903254356E+03  0.00000000000E+00 0.  1.
          3    1    3    3  501    0  0.11362754978E+03 -0.95817931420E+02  0.37692805229E+02  0.15333963485E+03  0.00000000000E+00 0.  1.
         -3    1    1    2    0  502  0.22463352660E+01 -0.44514963559E+02  0.25268606996E+03  0.25658697931E+03  0.00000000000E+00 0. -1.
<mgrwt>
<rscale>  1 0.64535000E+03</rscale>
<asrwt>0</asrwt>
<pdfrwt beam="1">  1       21 0.55224484E-01 0.64535000E+03</pdfrwt>
<pdfrwt beam="2">0</pdfrwt>
<totfact> 0.28470064E+02</totfact>
</mgrwt>
</event>
<event>
 6    1  0.1364923E-004  0.6543446E+03  0.7818608E-02  0.9798661E-01
         21   -1    0    0  501  502  0.00000000000E+00  0.00000000000E+00  0.41616975936E+03  0.41616975936E+03  0.00000000000E+00 0. -1.
         13   -1    0    0    0    0 -0.00000000000E+00 -0.00000000000E+00 -0.10000000000E+04  0.10000000000E+04  0.00000000000E+00 0.  1.
    9000005    2    1    2  501    0 -0.18429744447E+02  0.11665048889E+02 -0.89253231174E+03  0.11066981168E+04  0.65398093657E+03 0.  0.
         13    1    3    3    0    0 -0.20850533017E+03 -0.25331102110E+03 -0.45978069010E+03  0.56483557706E+03  0.00000000000E+00 0.  1.
          1    1    3    3  501    0  0.19007558572E+03  0.26497606999E+03 -0.43275162164E+03  0.54186253975E+03  0.00000000000E+00 0.  1.
         -1    1    1    2    0  502  0.18429744447E+02 -0.11665048889E+02  0.30870207110E+03  0.30947164255E+03  0.00000000000E+00 0. -1.
<mgrwt>
<rscale>  1 0.65434455E+03</rscale>
<asrwt>0</asrwt>
<pdfrwt beam="1">  1       21 0.64026115E-01 0.65434455E+03</pdfrwt>
<pdfrwt beam="2">0</pdfrwt>
<totfact> 0.20525504E+02</totfact>
</mgrwt>
</event>
<event>
 6    1  0.1364923E-004  0.7230627E+03  0.7818608E-02  0.9678585E-01
         21   -1    0    0  501  502  0.00000000000E+00  0.00000000000E+00  0.26227808264E+03  0.26227808264E+03  0.00000000000E+00 0.  1.
         13   -1    0    0    0    0 -0.00000000000E+00 -0.00000000000E+00 -0.10000000000E+04  0.10000000000E+04  0.00000000000E+00 0.  1.
    9000005    2    1    2  501    0  0.18090022263E+03  0.14614940814E+03 -0.73307741176E+03  0.10296708784E+04  0.68464230522E+03 0.  0.
         13    1    3    3    0    0  0.26930529866E+02 -0.19346660932E+03  0.12827283296E+02  0.19575270511E+03  0.00000000000E+00 0.  1.
          1    1    3    3  501    0  0.15396969276E+03  0.33961601745E+03 -0.74590469505E+03  0.83391817327E+03  0.00000000000E+00 0.  1.
         -3    1    1    2    0  502 -0.18090022263E+03 -0.14614940814E+03 -0.46445056021E+01  0.23260720427E+03  0.00000000000E+00 0. -1.
<mgrwt>
<rscale>  1 0.72306267E+03</rscale>
<asrwt>0</asrwt>
<pdfrwt beam="1">  1       21 0.40350473E-01 0.72306267E+03</pdfrwt>
<pdfrwt beam="2">0</pdfrwt>
<totfact> 0.55148786E+02</totfact>
</mgrwt>
</event>
<event>
 6    1  0.1364923E-004  0.6522533E+03  0.7818608E-02  0.9802560E-01
         21   -1    0    0  501  502  0.00000000000E+00  0.00000000000E+00  0.21414122294E+03  0.21414122294E+03  0.00000000000E+00 0.  1.
         13   -1    0    0    0    0 -0.00000000000E+00 -0.00000000000E+00 -0.10000000000E+04  0.10000000000E+04  0.00000000000E+00 0.  1.
    9000005    2    1    2  501    0 -0.10121878175E+01 -0.20666390191E+02 -0.89254157883E+03  0.11054704154E+04  0.65192503041E+03 0.  0.
         13    1    3    3    0    0 -0.81123032183E+02 -0.22060077416E+03 -0.55969254662E+02  0.24161582187E+03  0.00000000000E+00 0.  1.
          3    1    3    3  501    0  0.80110844365E+02  0.19993438397E+03 -0.83657232417E+03  0.86385459358E+03  0.00000000000E+00 0.  1.
         -1    1    1    2    0  502  0.10121878175E+01  0.20666390191E+02  0.10668280177E+03  0.10867080750E+03  0.00000000000E+00 0. -1.
<mgrwt>
<rscale>  1 0.65225330E+03</rscale>
<asrwt>0</asrwt>
<pdfrwt beam="1">  1       21 0.32944803E-01 0.65225330E+03</pdfrwt>
<pdfrwt beam="2">0</pdfrwt>
<totfact> 0.84034041E+02</totfact>
</mgrwt>
</event>
<event>
 6    1  0.1364923E-004  0.6585067E+03  0.7818608E-02  0.9790947E-01
         21   -1    0    0  501  502  0.00000000000E+00  0.00000000000E+00  0.13116498497E+03  0.13116498497E+03  0.00000000000E+00 0.  1.
         13   -1    0    0    0    0 -0.00000000000E+00 -0.00000000000E+00 -0.10000000000E+04  0.10000000000E+04  0.00000000000E+00 0.  1.
    9000005    2    1    2  501    0 -0.27142211316E+02  0.27537721369E+02 -0.87161136432E+03  0.10923998737E+04  0.65737058651E+03 0.  0.
         13    1    3    3    0    0  0.30121244636E+03 -0.55828905668E+02 -0.52424018640E+03  0.60718496159E+03  0.00000000000E+00 0.  1.
          1    1    3    3  501    0 -0.32835465767E+03  0.83366627037E+02 -0.34737117792E+03  0.48521491215E+03  0.00000000000E+00 0.  1.
         -1    1    1    2    0  502  0.27142211316E+02 -0.27537721369E+02  0.27763492919E+01  0.38765111230E+02  0.00000000000E+00 0. -1.
<mgrwt>
<rscale>  1 0.65850673E+03</rscale>
<asrwt>0</asrwt>
<pdfrwt beam="1">  1       21 0.20179228E-01 0.65850673E+03</pdfrwt>
<pdfrwt beam="2">0</pdfrwt>
<totfact> 0.22054286E+03</totfact>
</mgrwt>
</event>
<event>
 6    1  0.1364923E-004  0.6504631E+03  0.7818608E-02  0.9805911E-01
         21   -1    0    0  501  502  0.00000000000E+00  0.00000000000E+00  0.11612491696E+03  0.11612491696E+03  0.00000000000E+00 0.  1.
         13   -1    0    0    0    0 -0.00000000000E+00 -0.00000000000E+00 -0.10000000000E+04  0.10000000000E+04  0.00000000000E+00 0.  1.
    9000005    2    1    2  501    0 -0.54277456754E+01  0.26907023505E+02 -0.86709262402E+03  0.10839519583E+04  0.64988366727E+03 0.  0.
         13    1    3    3    0    0 -0.29639557902E+03  0.10672855123E+03 -0.61415471688E+03  0.69023716155E+03  0.00000000000E+00 0.  1.
          3    1    3    3  501    0  0.29096783335E+03 -0.79821527730E+02 -0.25293790713E+03  0.39371479677E+03  0.00000000000E+00 0.  1.
         -1    1    1    2    0  502  0.54277456754E+01 -0.26907023505E+02 -0.16782459021E+02  0.32172958642E+02  0.00000000000E+00 0. -1.
<mgrwt>
<rscale>  1 0.65046309E+03</rscale>
<asrwt>0</asrwt>
<pdfrwt beam="1">  1       21 0.17865371E-01 0.65046309E+03</pdfrwt>
<pdfrwt beam="2">0</pdfrwt>
<totfact> 0.27831658E+03</totfact>
</mgrwt>
</event>
<event>
 6    1  0.1364923E-004  0.6536972E+03  0.7818608E-02  0.9799866E-01
         21   -1    0    0  501  502  0.00000000000E+00  0.00000000000E+00  0.13402547172E+03  0.13402547172E+03  0.00000000000E+00 0.  1.
         13   -1    0    0    0    0 -0.00000000000E+00 -0.00000000000E+00 -0.10000000000E+04  0.10000000000E+04  0.00000000000E+00 0.  1.
    9000005    2    1    2  501    0  0.53484825601E+02  0.26173470101E+02 -0.85014540095E+03  0.10724118500E+04  0.65097948984E+03 0.  0.
         13    1    3    3    0    0  0.16936888935E+03  0.29665168223E+03 -0.57911393504E+03  0.67235481036E+03  0.00000000000E+00 0.  1.
          1    1    3    3  501    0 -0.11588406375E+03 -0.27047821213E+03 -0.27103146591E+03  0.40005703966E+03  0.00000000000E+00 0.  1.
         -1    1    1    2    0  502 -0.53484825601E+02 -0.26173470101E+02 -0.15829127335E+02  0.61613621699E+02  0.00000000000E+00 0. -1.
<mgrwt>
<rscale>  1 0.65369716E+03</rscale>
<asrwt>0</asrwt>
<pdfrwt beam="1">  1       21 0.20619303E-01 0.65369716E+03</pdfrwt>
<pdfrwt beam="2">0</pdfrwt>
<totfact> 0.21162787E+03</totfact>
</mgrwt>
</event>
<event>
 6    1  0.1364923E-004  0.7098541E+03  0.7818608E-02  0.9700527E-01
         21   -1    0    0  501  502  0.00000000000E+00  0.00000000000E+00  0.15658254503E+03  0.15658254503E+03  0.00000000000E+00 0.  1.
         13   -1    0    0    0    0 -0.00000000000E+00 -0.00000000000E+00 -0.10000000000E+04  0.10000000000E+04  0.00000000000E+00 0.  1.
    9000005    2    1    2  501    0  0.17932579010E+02 -0.30984627634E+02 -0.86166159499E+03  0.11164020375E+04  0.70895076030E+03 0.  0.
         13    1    3    3    0    0 -0.31776325007E+03  0.11402844061E+03 -0.33822311447E+03  0.47788162083E+03  0.00000000000E+00 0.  1.
          3    1    3    3  501    0  0.33569582908E+03 -0.14501306824E+03 -0.52343848052E+03  0.63852041668E+03  0.00000000000E+00 0.  1.
         -1    1    1    2    0  502 -0.17932579010E+02  0.30984627634E+02  0.18244140025E+02  0.40180507523E+02  0.00000000000E+00 0. -1.
<mgrwt>
<rscale>  1 0.70985407E+03</rscale>
<asrwt>0</asrwt>
<pdfrwt beam="1">  1       21 0.24089622E-01 0.70985407E+03</pdfrwt>
<pdfrwt beam="2">0</pdfrwt>
<totfact> 0.15613084E+03</totfact>
</mgrwt>
</event>
<event>
 6    1  0.1364923E-004  0.6607251E+03  0.7818608E-02  0.9786860E-01
         21   -1    0    0  501  502  0.00000000000E+00  0.00000000000E+00  0.12663769567E+03  0.12663769567E+03  0.00000000000E+00 0.  1.
         13   -1    0    0    0    0 -0.00000000000E+00 -0.00000000000E+00 -0.10000000000E+04  0.10000000000E+04  0.00000000000E+00 0.  1.
    9000005    2    1    2  501    0  0.34056943900E+01  0.29475911258E+02 -0.87555605776E+03  0.10968847017E+04  0.66005849009E+03 0.  0.
         13    1    3    3    0    0 -0.12119279907E+03 -0.19775257834E+03 -0.79098221607E+03  0.82428553483E+03  0.00000000000E+00 0.  1.
          1    1    3    3  501    0  0.12459849346E+03  0.22722848959E+03 -0.84573841688E+02  0.27259916682E+03  0.00000000000E+00 0.  1.
         -1    1    1    2    0  502 -0.34056943900E+01 -0.29475911258E+02  0.21937534291E+01  0.29752994015E+02  0.00000000000E+00 0. -1.
<mgrwt>
<rscale>  1 0.66072509E+03</rscale>
<asrwt>0</asrwt>
<pdfrwt beam="1">  1       21 0.19482722E-01 0.66072509E+03</pdfrwt>
<pdfrwt beam="2">0</pdfrwt>
<totfact> 0.23588143E+03</totfact>
</mgrwt>
</event>
<event>
 6    1  0.1364923E-004  0.6393179E+03  0.7818608E-02  0.9827033E-01
         21   -1    0    0  501  502  0.00000000000E+00  0.00000000000E+00  0.34208613128E+03  0.34208613128E+03  0.00000000000E+00 0. -1.
         13   -1    0    0    0    0 -0.00000000000E+00 -0.00000000000E+00 -0.10000000000E+04  0.10000000000E+04  0.00000000000E+00 0.  1.
    9000005    2    1    2  501    0 -0.10521889462E+02  0.20660388841E+02 -0.89720056651E+03  0.11016787987E+04  0.63889729777E+03 0.  0.
         13    1    3    3    0    0  0.21092655573E+03  0.26798380384E+02 -0.84866007794E+03  0.87488976048E+03  0.00000000000E+00 0.  1.
          1    1    3    3  501    0 -0.22144844519E+03 -0.61379915436E+01 -0.48540488570E+02  0.22678903820E+03  0.00000000000E+00 0.  1.
         -3    1    1    2    0  502  0.10521889462E+02 -0.20660388841E+02  0.23928669779E+03  0.24040733260E+03  0.00000000000E+00 0. -1.
<mgrwt>
<rscale>  1 0.63931785E+03</rscale>
<asrwt>0</asrwt>
<pdfrwt beam="1">  1       21 0.52628634E-01 0.63931785E+03</pdfrwt>
<pdfrwt beam="2">0</pdfrwt>
<totfact> 0.31622388E+02</totfact>
</mgrwt>
</event>
<event>
 6    1  0.1364923E-004  0.6497767E+03  0.7818608E-02  0.9807198E-01
         21   -1    0    0  501  502  0.00000000000E+00  0.00000000000E+00  0.25258619298E+03  0.25258619298E+03  0.00000000000E+00 0.  1.
         13   -1    0    0    0    0 -0.00000000000E+00 -0.00000000000E+00 -0.10000000000E+04  0.10000000000E+04  0.00000000000E+00 0.  1.
    9000005    2    1    2  501    0 -0.97934006419E+02  0.67829876415E+02 -0.86721334268E+03  0.10836368204E+04  0.63876272205E+03 0.  0.
         13    1    3    3    0    0 -0.13241573437E+03  0.33941411065E+03 -0.59423956706E+03  0.69703409405E+03  0.00000000000E+00 0.  1.
          1    1    3    3  501    0  0.34481727952E+02 -0.27158423424E+03 -0.27297377562E+03  0.38660272636E+03  0.00000000000E+00 0.  1.
         -1    1    1    2    0  502  0.97934006419E+02 -0.67829876415E+02  0.11979953566E+03  0.16894937257E+03  0.00000000000E+00 0. -1.
<mgrwt>
<rscale>  1 0.64977671E+03</rscale>
<asrwt>0</asrwt>
<pdfrwt beam="1">  1       21 0.38859413E-01 0.64977671E+03</pdfrwt>
<pdfrwt beam="2">0</pdfrwt>
<totfact> 0.59964637E+02</totfact>
</mgrwt>
</event>
<event>
 6    1  0.1364923E-004  0.6691121E+03  0.7818608E-02  0.9771563E-01
         21   -1    0    0  501  502  0.00000000000E+00  0.00000000000E+00  0.17599400161E+03  0.17599400161E+03  0.00000000000E+00 0. -1.
         13   -1    0    0    0    0 -0.00000000000E+00 -0.00000000000E+00 -0.10000000000E+04  0.10000000000E+04  0.00000000000E+00 0.  1.
    9000005    2    1    2  501    0 -0.10137346379E+03 -0.48614397753E+02 -0.82667723400E+03  0.10635347898E+04  0.65959916691E+03 0.  0.
         13    1    3    3    0    0 -0.11782291195E+03  0.26645486685E+03 -0.62367773618E+03  0.68837079634E+03  0.00000000000E+00 0.  1.
          3    1    3    3  501    0  0.16449448157E+02 -0.31506926460E+03 -0.20299949783E+03  0.37516399342E+03  0.00000000000E+00 0.  1.
         -1    1    1    2    0  502  0.10137346379E+03  0.48614397753E+02  0.26712356193E+01  0.11245921185E+03  0.00000000000E+00 0. -1.
<mgrwt>
<rscale>  1 0.66911210E+03</rscale>
<asrwt>0</asrwt>
<pdfrwt beam="1">  1       21 0.27075999E-01 0.66911210E+03</pdfrwt>
<pdfrwt beam="2">0</pdfrwt>
<totfact> 0.12432276E+03</totfact>
</mgrwt>
</event>
<event>
 6    1  0.1364923E-004  0.6617685E+03  0.7818608E-02  0.9784944E-01
         21   -1    0    0  501  502  0.00000000000E+00  0.00000000000E+00  0.12532896535E+03  0.12532896535E+03  0.00000000000E+00 0.  1.
         13   -1    0    0    0    0 -0.00000000000E+00 -0.00000000000E+00 -0.10000000000E+04  0.10000000000E+04  0.00000000000E+00 0.  1.
    9000005    2    1    2  501    0 -0.42826989809E+02 -0.39489238295E-01 -0.84468796627E+03  0.10730495525E+04  0.66038127564E+03 0.  0.
         13    1    3    3    0    0  0.26965107391E+03  0.46319979374E+02 -0.64160059012E+03  0.69750165547E+03  0.00000000000E+00 0.  1.
          1    1    3    3  501    0 -0.31247806372E+03 -0.46359468613E+02 -0.20308737616E+03  0.37554789706E+03  0.00000000000E+00 0.  1.
         -3    1    1    2    0  502  0.42826989809E+02  0.39489238295E-01 -0.29983068374E+02  0.52279412819E+02  0.00000000000E+00 0. -1.
<mgrwt>
<rscale>  1 0.66176853E+03</rscale>
<asrwt>0</asrwt>
<pdfrwt beam="1">  1       21 0.19281379E-01 0.66176853E+03</pdfrwt>
<pdfrwt beam="2">0</pdfrwt>
<totfact> 0.24060569E+03</totfact>
</mgrwt>
</event>
<event>
 6    1  0.1364923E-004  0.6651537E+03  0.7818608E-02  0.9778753E-01
         21   -1    0    0  501  502  0.00000000000E+00  0.00000000000E+00  0.15694126600E+03  0.15694126600E+03  0.00000000000E+00 0.  1.
         13   -1    0    0    0    0 -0.00000000000E+00 -0.00000000000E+00 -0.10000000000E+04  0.10000000000E+04  0.00000000000E+00 0.  1.
    9000005    2    1    2  501    0  0.54605533750E+02  0.89377065146E+02 -0.80784327224E+03  0.10464417056E+04  0.65685574271E+03 0.  0.
         13    1    3    3    0    0  0.23820448043E+03  0.28122683623E+03 -0.61965539511E+03  0.72097345069E+03  0.00000000000E+00 0.  1.
          3    1    3    3  501    0 -0.18359894668E+03 -0.19184977108E+03 -0.18818787712E+03  0.32546825495E+03  0.00000000000E+00 0.  1.
         -3    1    1    2    0  502 -0.54605533750E+02 -0.89377065146E+02 -0.35215461769E+02  0.11049956035E+03  0.00000000000E+00 0. -1.
<mgrwt>
<rscale>  1 0.66515373E+03</rscale>
<asrwt>0</asrwt>
<pdfrwt beam="1">  1       21 0.24144809E-01 0.66515373E+03</pdfrwt>
<pdfrwt beam="2">0</pdfrwt>
<totfact> 0.15576331E+03</totfact>
</mgrwt>
</event>
<event>
 6    1  0.1364923E-004  0.6480828E+03  0.7818608E-02  0.9810383E-01
         21   -1    0    0  501  502  0.00000000000E+00  0.00000000000E+00  0.12495913686E+03  0.12495913686E+03  0.00000000000E+00 0.  1.
         13   -1    0    0    0    0 -0.00000000000E+00 -0.00000000000E+00 -0.10000000000E+04  0.10000000000E+04  0.00000000000E+00 0.  1.
    9000005    2    1    2  501    0  0.18123227684E+02  0.52546970750E+02 -0.83218604722E+03  0.10547724518E+04  0.64569472068E+03 0.  0.
         13    1    3    3    0    0  0.17282629344E+03  0.76421258820E+01  0.31803229250E+02  0.17589421589E+03  0.00000000000E+00 0.  1.
          3    1    3    3  501    0 -0.15470306576E+03  0.44904844868E+02 -0.86398927647E+03  0.87887823588E+03  0.00000000000E+00 0.  1.
         -1    1    1    2    0  502 -0.18123227684E+02 -0.52546970750E+02 -0.42854815917E+02  0.70186685090E+02  0.00000000000E+00 0. -1.
<mgrwt>
<rscale>  1 0.64808279E+03</rscale>
<asrwt>0</asrwt>
<pdfrwt beam="1">  1       21 0.19224482E-01 0.64808279E+03</pdfrwt>
<pdfrwt beam="2">0</pdfrwt>
<totfact> 0.24209018E+03</totfact>
</mgrwt>
</event>
<event>
 6    1  0.1364923E-004  0.6449760E+03  0.7818608E-02  0.9816252E-01
         21   -1    0    0  501  502  0.00000000000E+00  0.00000000000E+00  0.12366614407E+03  0.12366614407E+03  0.00000000000E+00 0.  1.
         13   -1    0    0    0    0 -0.00000000000E+00 -0.00000000000E+00 -0.10000000000E+04  0.10000000000E+04  0.00000000000E+00 0.  1.
    9000005    2    1    2  501    0 -0.19460403706E+02 -0.86972294917E+01 -0.88941288061E+03  0.10986579454E+04  0.64462365744E+03 0.  0.
         13    1    3    3    0    0 -0.19405569204E+03  0.12467837007E+03 -0.84314920414E+03  0.87412978900E+03  0.00000000000E+00 0.  1.
          1    1    3    3  501    0  0.17459528833E+03 -0.13337559956E+03 -0.46263676472E+02  0.22452815642E+03  0.00000000000E+00 0.  1.
         -1    1    1    2    0  502  0.19460403706E+02  0.86972294917E+01  0.13079024678E+02  0.25008198651E+02  0.00000000000E+00 0. -1.
<mgrwt>
<rscale>  1 0.64497598E+03</rscale>
<asrwt>0</asrwt>
<pdfrwt beam="1">  1       21 0.19025560E-01 0.64497598E+03</pdfrwt>
<pdfrwt beam="2">0</pdfrwt>
<totfact> 0.24697448E+03</totfact>
</mgrwt>
</event>
<event>
 6    1  0.1364923E-004  0.6776746E+03  0.7818608E-02  0.9756192E-01
         21   -1    0    0  501  502  0.00000000000E+00  0.00000000000E+00  0.54792667632E+03  0.54792667632E+03  0.00000000000E+00 0. -1.
         13   -1    0    0    0    0 -0.00000000000E+00 -0.00000000000E+00 -0.10000000000E+04  0.10000000000E+04  0.00000000000E+00 0.  1.
    9000005    2    1    2  501    0 -0.93663929007E+02  0.57195701258E+01 -0.87951233122E+03  0.11103084063E+04  0.67114616237E+03 0.  0.
         13    1    3    3    0    0 -0.17619942989E+03 -0.19673687479E+03 -0.84952028896E+03  0.88962708949E+03  0.00000000000E+00 0.  1.
          3    1    3    3  501    0  0.82535500880E+02  0.20245644491E+03 -0.29992042260E+02  0.22068131682E+03  0.00000000000E+00 0.  1.
         -1    1    1    2    0  502  0.93663929007E+02 -0.57195701258E+01  0.42743900754E+03  0.43761827001E+03  0.00000000000E+00 0. -1.
<mgrwt>
<rscale>  1 0.67767457E+03</rscale>
<asrwt>0</asrwt>
<pdfrwt beam="1">  1       21 0.84296409E-01 0.67767457E+03</pdfrwt>
<pdfrwt beam="2">0</pdfrwt>
<totfact> 0.10890768E+02</totfact>
</mgrwt>
</event>
<event>
 6    1  0.1364923E-004  0.7624086E+03  0.7818608E-02  0.9616082E-01
         21   -1    0    0  501  502  0.00000000000E+00  0.00000000000E+00  0.24538745553E+03  0.24538745553E+03  0.00000000000E+00 0. -1.
         13   -1    0    0    0    0 -0.00000000000E+00 -0.00000000000E+00 -0.10000000000E+04  0.10000000000E+04  0.00000000000E+00 0.  1.
    9000005    2    1    2  501    0 -0.35782655152E+01  0.30107325860E+02 -0.85204341102E+03  0.11433481062E+04  0.76180552810E+03 0.  0.
         13    1    3    3    0    0  0.26528104528E+02 -0.34142872550E+03 -0.60799992518E+03  0.69781173962E+03  0.00000000000E+00 0.  1.
          1    1    3    3  501    0 -0.30106370043E+02  0.37153605136E+03 -0.24404348583E+03  0.44553636659E+03  0.00000000000E+00 0.  1.
         -1    1    1    2    0  502  0.35782655152E+01 -0.30107325860E+02  0.97430866551E+02  0.10203934933E+03  0.00000000000E+00 0. -1.
<mgrwt>
<rscale>  1 0.76240863E+03</rscale>
<asrwt>0</asrwt>
<pdfrwt beam="1">  1       21 0.37751915E-01 0.76240863E+03</pdfrwt>
<pdfrwt beam="2">0</pdfrwt>
<totfact> 0.63141536E+02</totfact>
</mgrwt>
</event>
<event>
 6    1  0.1364923E-004  0.6601713E+03  0.7818608E-02  0.9787878E-01
         21   -1    0    0  501  502  0.00000000000E+00  0.00000000000E+00  0.13454124395E+03  0.13454124395E+03  0.00000000000E+00 0.  1.
         13   -1    0    0    0    0 -0.00000000000E+00 -0.00000000000E+00 -0.10000000000E+04  0.10000000000E+04  0.00000000000E+00 0.  1.
    9000005    2    1    2  501    0  0.30074558831E+02  0.32186950056E+02 -0.86787051055E+03  0.10904244059E+04  0.65869999467E+03 0.  0.
         13    1    3    3    0    0 -0.36689827431E+02  0.27118098141E+03 -0.11344088710E+03  0.29623319021E+03  0.00000000000E+00 0.  1.
          1    1    3    3  501    0  0.66764386262E+02 -0.23899403135E+03 -0.75442962345E+03  0.79419121566E+03  0.00000000000E+00 0.  1.
         -1    1    1    2    0  502 -0.30074558831E+02 -0.32186950056E+02  0.24117545021E+01  0.44116838084E+02  0.00000000000E+00 0. -1.
<mgrwt>
<rscale>  1 0.66017131E+03</rscale>
<asrwt>0</asrwt>
<pdfrwt beam="1">  1       21 0.20698652E-01 0.66017131E+03</pdfrwt>
<pdfrwt beam="2">0</pdfrwt>
<totfact> 0.21001454E+03</totfact>
</mgrwt>
</event>
<event>
 6    1  0.1364923E-004  0.6741762E+03  0.7818608E-02  0.9762443E-01
         21   -1    0    0  501  502  0.00000000000E+00  0.00000000000E+00  0.35523064565E+03  0.35523064565E+03  0.00000000000E+00 0.  1.
         13   -1    0    0    0    0 -0.00000000000E+00 -0.00000000000E+00 -0.10000000000E+04  0.10000000000E+04  0.00000000000E+00 0.  1.
    9000005    2    1    2  501    0 -0.11909387941E+03  0.75939416705E+02 -0.86309928677E+03  0.10951958278E+04  0.65921421042E+03 0.  0.
         13    1    3    3    0    0 -0.36681825401E+03 -0.24423456816E+02 -0.67413844350E+03  0.76786377550E+03  0.00000000000E+00 0.  1.
          3    1    3    3  501    0  0.24772437461E+03  0.10036287352E+03 -0.18896084327E+03  0.32733205227E+03  0.00000000000E+00 0.  1.
         -3    1    1    2    0  502  0.11909387941E+03 -0.75939416705E+02  0.21832993241E+03  0.26003481788E+03  0.00000000000E+00 0. -1.
<mgrwt>
<rscale>  1 0.67417618E+03</rscale>
<asrwt>0</asrwt>
<pdfrwt beam="1">  1       21 0.54650867E-01 0.67417618E+03</pdfrwt>
<pdfrwt beam="2">0</pdfrwt>
<totfact> 0.29039959E+02</totfact>
</mgrwt>
</event>
<event>
 6    1  0.1364923E-004  0.6503235E+03  0.7818608E-02  0.9806172E-01
         21   -1    0    0  501  502  0.00000000000E+00  0.00000000000E+00  0.14595451776E+03  0.14595451776E+03  0.00000000000E+00 0.  1.
         13   -1    0    0    0    0 -0.00000000000E+00 -0.00000000000E+00 -0.10000000000E+04  0.10000000000E+04  0.00000000000E+00 0.  1.
    9000005    2    1    2  501    0 -0.94095418011E+01 -0.27893641109E+02 -0.88822389643E+03  0.11008462182E+04  0.64965691814E+03 0.  0.
         13    1    3    3    0    0  0.83152850953E+02  0.17670641971E+03 -0.85111936927E+03  0.87323750271E+03  0.00000000000E+00 0.  1.
          3    1    3    3  501    0 -0.92562392754E+02 -0.20460006082E+03 -0.37104527155E+02  0.22760871551E+03  0.00000000000E+00 0.  1.
         -1    1    1    2    0  502  0.94095418011E+01  0.27893641109E+02  0.34178414182E+02  0.45108299538E+02  0.00000000000E+00 0. -1.
<mgrwt>
<rscale>  1 0.65032354E+03</rscale>
<asrwt>0</asrwt>
<pdfrwt beam="1">  1       21 0.22454541E-01 0.65032354E+03</pdfrwt>
<pdfrwt beam="2">0</pdfrwt>
<totfact> 0.17952487E+03</totfact>
</mgrwt>
</event>
<event>
 6    1  0.1364923E-004  0.6334287E+03  0.7818608E-02  0.9838381E-01
         21   -1    0    0  501  502  0.00000000000E+00  0.00000000000E+00  0.14822433189E+03  0.14822433189E+03  0.00000000000E+00 0.  1.
         13   -1    0    0    0    0 -0.00000000000E+00 -0.00000000000E+00 -0.10000000000E+04  0.10000000000E+04  0.00000000000E+00 0.  1.
    9000005    2    1    2  501    0  0.10996235819E+02 -0.17199577151E+02 -0.89728810547E+03  0.10983432271E+04  0.63309964283E+03 0.  0.
         13    1    3    3    0    0  0.15768674330E+03  0.24911392854E+03 -0.26357248939E+03  0.39546594742E+03  0.00000000000E+00 0.  1.
          3    1    3    3  501    0 -0.14669050748E+03 -0.26631350569E+03 -0.63371561607E+03  0.70287727973E+03  0.00000000000E+00 0.  1.
         -3    1    1    2    0  502 -0.10996235819E+02  0.17199577151E+02  0.45512437359E+02  0.49881104747E+02  0.00000000000E+00 0. -1.
<mgrwt>
<rscale>  1 0.63342869E+03</rscale>
<asrwt>0</asrwt>
<pdfrwt beam="1">  1       21 0.22803743E-01 0.63342869E+03</pdfrwt>
<pdfrwt beam="2">0</pdfrwt>
<totfact> 0.17436775E+03</totfact>
</mgrwt>
</event>
<event>
 6    1  0.1364923E-004  0.6959870E+03  0.7818608E-02  0.9724120E-01
         21   -1    0    0  501  502  0.00000000000E+00  0.00000000000E+00  0.15255882783E+03  0.15255882783E+03  0.00000000000E+00 0.  1.
         13   -1    0    0    0    0 -0.00000000000E+00 -0.00000000000E+00 -0.10000000000E+04  0.10000000000E+04  0.00000000000E+00 0.  1.
    9000005    2    1    2  501    0  0.57097726832E+01  0.43787404141E+02 -0.86028958116E+03  0.11065694826E+04  0.69458470901E+03 0.  0.
         13    1    3    3    0    0  0.30705107502E+03 -0.12494863842E+02 -0.16981571484E+03  0.35110377568E+03  0.00000000000E+00 0.  1.
          1    1    3    3  501    0 -0.30134130233E+03  0.56282267983E+02 -0.69047386632E+03  0.75546570687E+03  0.00000000000E+00 0.  1.
         -1    1    1    2    0  502 -0.57097726832E+01 -0.43787404141E+02  0.12848408995E+02  0.45989345279E+02  0.00000000000E+00 0. -1.
<mgrwt>
<rscale>  1 0.69598697E+03</rscale>
<asrwt>0</asrwt>
<pdfrwt beam="1">  1       21 0.23470588E-01 0.69598697E+03</pdfrwt>
<pdfrwt beam="2">0</pdfrwt>
<totfact> 0.16437869E+03</totfact>
</mgrwt>
</event>
<event>
 6    1  0.1364923E-004  0.6669843E+03  0.7818608E-02  0.9775421E-01
         21   -1    0    0  501  502  0.00000000000E+00  0.00000000000E+00  0.20553238001E+03  0.20553238001E+03  0.00000000000E+00 0. -1.
         13   -1    0    0    0    0 -0.00000000000E+00 -0.00000000000E+00 -0.10000000000E+04  0.10000000000E+04  0.00000000000E+00 0.  1.
    9000005    2    1    2  501    0  0.12347615564E+02 -0.47567964232E+02 -0.88160957952E+03  0.11054879102E+04  0.66517132682E+03 0.  0.
         13    1    3    3    0    0 -0.21028327604E+03  0.19129686094E+03 -0.63682307656E+03  0.69739312875E+03  0.00000000000E+00 0.  1.
          1    1    3    3  501    0  0.22263089161E+03 -0.23886482517E+03 -0.24478650296E+03  0.40809478143E+03  0.00000000000E+00 0.  1.
         -1    1    1    2    0  502 -0.12347615564E+02  0.47567964232E+02  0.87141959532E+02  0.10004446982E+03  0.00000000000E+00 0. -1.
<mgrwt>
<rscale>  1 0.66698431E+03</rscale>
<asrwt>0</asrwt>
<pdfrwt beam="1">  1       21 0.31620365E-01 0.66698431E+03</pdfrwt>
<pdfrwt beam="2">0</pdfrwt>
<totfact> 0.91205534E+02</totfact>
</mgrwt>
</event>
<event>
 6    1  0.1364923E-004  0.6562579E+03  0.7818608E-02  0.9795107E-01
         21   -1    0    0  501  502  0.00000000000E+00  0.00000000000E+00  0.14469199063E+03  0.14469199063E+03  0.00000000000E+00 0. -1.
         13   -1    0    0    0    0 -0.00000000000E+00 -0.00000000000E+00 -0.10000000000E+04  0.10000000000E+04  0.00000000000E+00 0.  1.
    9000005    2    1    2  501    0 -0.46605425089E+01 -0.31585863555E+02 -0.88454126463E+03  0.11014026080E+04  0.65548079203E+03 0.  0.
         13    1    3    3    0    0 -0.14812452560E+03  0.55095370139E+02  0.38994825010E+02  0.16277890303E+03  0.00000000000E+00 0.  1.
          3    1    3    3  501    0  0.14346398309E+03 -0.86681233694E+02 -0.92353608964E+03  0.93862370500E+03  0.00000000000E+00 0.  1.
         -3    1    1    2    0  502  0.46605425089E+01  0.31585863555E+02  0.29233255254E+02  0.43289382598E+02  0.00000000000E+00 0. -1.
<mgrwt>
<rscale>  1 0.65625792E+03</rscale>
<asrwt>0</asrwt>
<pdfrwt beam="1">  1       21 0.22260306E-01 0.65625792E+03</pdfrwt>
<pdfrwt beam="2">0</pdfrwt>
<totfact> 0.18252464E+03</totfact>
</mgrwt>
</event>
<event>
 6    1  0.1364923E-004  0.6650055E+03  0.7818608E-02  0.9779023E-01
         21   -1    0    0  501  502  0.00000000000E+00  0.00000000000E+00  0.12804540257E+03  0.12804540257E+03  0.00000000000E+00 0.  1.
         13   -1    0    0    0    0 -0.00000000000E+00 -0.00000000000E+00 -0.10000000000E+04  0.10000000000E+04  0.00000000000E+00 0.  1.
    9000005    2    1    2  501    0  0.18666425458E+02 -0.79276539833E+01 -0.88264357719E+03  0.11051207995E+04  0.66469618173E+03 0.  0.
         13    1    3    3    0    0  0.12612102482E+03 -0.31248234535E+03 -0.38242839808E+03  0.50970894510E+03  0.00000000000E+00 0.  1.
          1    1    3    3  501    0 -0.10745459936E+03  0.30455469136E+03 -0.50021517911E+03  0.59541185441E+03  0.00000000000E+00 0.  1.
         -3    1    1    2    0  502 -0.18666425458E+02  0.79276539833E+01  0.10688979760E+02  0.22924603059E+02  0.00000000000E+00 0. -1.
<mgrwt>
<rscale>  1 0.66500549E+03</rscale>
<asrwt>0</asrwt>
<pdfrwt beam="1">  1       21 0.19699292E-01 0.66500549E+03</pdfrwt>
<pdfrwt beam="2">0</pdfrwt>
<totfact> 0.23090447E+03</totfact>
</mgrwt>
</event>
<event>
 6    1  0.1364923E-004  0.6671318E+03  0.7818608E-02  0.9775153E-01
         21   -1    0    0  501  502  0.00000000000E+00  0.00000000000E+00  0.19985535234E+03  0.19985535234E+03  0.00000000000E+00 0. -1.
         13   -1    0    0    0    0 -0.00000000000E+00 -0.00000000000E+00 -0.10000000000E+04  0.10000000000E+04  0.00000000000E+00 0.  1.
    9000005    2    1    2  501    0 -0.22391775288E+02  0.31757087659E+02 -0.88397092809E+03  0.11074608205E+04  0.66599922153E+03 0.  0.
         13    1    3    3    0    0  0.25536554586E+02 -0.31535760562E+03 -0.40196179593E+03  0.51154258907E+03  0.00000000000E+00 0.  1.
          1    1    3    3  501    0 -0.47928329874E+02  0.34711469328E+03 -0.48200913216E+03  0.59591823146E+03  0.00000000000E+00 0.  1.
         -1    1    1    2    0  502  0.22391775288E+02 -0.31757087659E+02  0.83826280430E+02  0.92394531808E+02  0.00000000000E+00 0. -1.
<mgrwt>
<rscale>  1 0.66713182E+03</rscale>
<asrwt>0</asrwt>
<pdfrwt beam="1">  1       21 0.30746976E-01 0.66713182E+03</pdfrwt>
<pdfrwt beam="2">0</pdfrwt>
<totfact> 0.96492007E+02</totfact>
</mgrwt>
</event>
<event>
 6    1  0.1364923E-004  0.5366168E+03  0.7818608E-02  0.1004640E+00
         21   -1    0    0  501  502  0.00000000000E+00  0.00000000000E+00  0.15433174045E+03  0.15433174045E+03  0.00000000000E+00 0. -1.
         13   -1    0    0    0    0 -0.00000000000E+00 -0.00000000000E+00 -0.10000000000E+04  0.10000000000E+04  0.00000000000E+00 0.  1.
    9000005    2    1    2  501    0  0.25288813515E+02 -0.43737642389E+00 -0.92592471979E+03  0.10701841630E+04  0.53602037327E+03 0.  0.
         13    1    3    3    0    0  0.25185606974E+03 -0.11237087172E+03 -0.57522244149E+03  0.63791813728E+03  0.00000000000E+00 0.  1.
          1    1    3    3  501    0 -0.22656725622E+03  0.11193349529E+03 -0.35070227829E+03  0.43226602569E+03  0.00000000000E+00 0.  1.
         -3    1    1    2    0  502 -0.25288813515E+02  0.43737642389E+00  0.80256460235E+02  0.84147577485E+02  0.00000000000E+00 0. -1.
<mgrwt>
<rscale>  1 0.53661677E+03</rscale>
<asrwt>0</asrwt>
<pdfrwt beam="1">  1       21 0.23743344E-01 0.53661677E+03</pdfrwt>
<pdfrwt beam="2">0</pdfrwt>
<totfact> 0.16204695E+03</totfact>
</mgrwt>
</event>
<event>
 6    1  0.1364923E-004  0.7574959E+03  0.7818608E-02  0.9623663E-01
         21   -1    0    0  501  502  0.00000000000E+00  0.00000000000E+00  0.18699852629E+03  0.18699852629E+03  0.00000000000E+00 0.  1.
         13   -1    0    0    0    0 -0.00000000000E+00 -0.00000000000E+00 -0.10000000000E+04  0.10000000000E+04  0.00000000000E+00 0.  1.
    9000005    2    1    2  501    0  0.66586992674E+02  0.91225737548E+01 -0.82357604562E+03  0.11189627231E+04  0.75450846504E+03 0.  0.
         13    1    3    3    0    0  0.28318101280E+03  0.18510327077E+03 -0.76121199298E+03  0.83300564531E+03  0.00000000000E+00 0.  1.
          3    1    3    3  501    0 -0.21659402012E+03 -0.17598069702E+03 -0.62364052639E+02  0.28595707779E+03  0.00000000000E+00 0.  1.
         -1    1    1    2    0  502 -0.66586992674E+02 -0.91225737548E+01  0.10574571916E+02  0.68035803196E+02  0.00000000000E+00 0. -1.
<mgrwt>
<rscale>  1 0.75749592E+03</rscale>
<asrwt>0</asrwt>
<pdfrwt beam="1">  1       21 0.28769003E-01 0.75749592E+03</pdfrwt>
<pdfrwt beam="2">0</pdfrwt>
<totfact> 0.10967413E+03</totfact>
</mgrwt>
</event>
<event>
 6    1  0.1364923E-004  0.6422968E+03  0.7818608E-02  0.9821342E-01
         21   -1    0    0  501  502  0.00000000000E+00  0.00000000000E+00  0.15314780666E+03  0.15314780666E+03  0.00000000000E+00 0. -1.
         13   -1    0    0    0    0 -0.00000000000E+00 -0.00000000000E+00 -0.10000000000E+04  0.10000000000E+04  0.00000000000E+00 0.  1.
    9000005    2    1    2  501    0  0.54390351003E+02  0.57996258436E+02 -0.85914244411E+03  0.10726933069E+04  0.63735650544E+03 0.  0.
         13    1    3    3    0    0 -0.23814848718E+03  0.80361260135E+02 -0.68928250478E+03  0.73367772590E+03  0.00000000000E+00 0.  1.
          1    1    3    3  501    0  0.29253883818E+03 -0.22365001699E+02 -0.16985993933E+03  0.33901558096E+03  0.00000000000E+00 0.  1.
         -3    1    1    2    0  502 -0.54390351003E+02 -0.57996258436E+02  0.12290250769E+02  0.80454499805E+02  0.00000000000E+00 0. -1.
<mgrwt>
<rscale>  1 0.64229681E+03</rscale>
<asrwt>0</asrwt>
<pdfrwt beam="1">  1       21 0.23561200E-01 0.64229681E+03</pdfrwt>
<pdfrwt beam="2">0</pdfrwt>
<totfact> 0.16356275E+03</totfact>
</mgrwt>
</event>
<event>
 6    1  0.1364923E-004  0.6580713E+03  0.7818608E-02  0.9791751E-01
         21   -1    0    0  501  502  0.00000000000E+00  0.00000000000E+00  0.12311834392E+03  0.12311834392E+03  0.00000000000E+00 0.  1.
         13   -1    0    0    0    0 -0.00000000000E+00 -0.00000000000E+00 -0.10000000000E+04  0.10000000000E+04  0.00000000000E+00 0.  1.
    9000005    2    1    2  501    0 -0.23813868457E+02 -0.25670716784E+02 -0.86340394598E+03  0.10855985531E+04  0.65713907097E+03 0.  0.
         13    1    3    3    0    0 -0.91246117367E+02  0.30245737313E+03 -0.33948711907E+03  0.46374327004E+03  0.00000000000E+00 0.  1.
          3    1    3    3  501    0  0.67432248910E+02 -0.32812808992E+03 -0.52391682691E+03  0.62185528309E+03  0.00000000000E+00 0.  1.
         -1    1    1    2    0  502  0.23813868457E+02  0.25670716784E+02 -0.13477710108E+02  0.37519790789E+02  0.00000000000E+00 0. -1.
<mgrwt>
<rscale>  1 0.65807131E+03</rscale>
<asrwt>0</asrwt>
<pdfrwt beam="1">  1       21 0.18941283E-01 0.65807131E+03</pdfrwt>
<pdfrwt beam="2">0</pdfrwt>
<totfact> 0.24895787E+03</totfact>
</mgrwt>
</event>
<event>
 6    1  0.1364923E-004  0.6508071E+03  0.7818608E-02  0.9805266E-01
         21   -1    0    0  501  502  0.00000000000E+00  0.00000000000E+00  0.11986949169E+03  0.11986949169E+03  0.00000000000E+00 0.  1.
         13   -1    0    0    0    0 -0.00000000000E+00 -0.00000000000E+00 -0.10000000000E+04  0.10000000000E+04  0.00000000000E+00 0.  1.
    9000005    2    1    2  501    0  0.37040887045E+02 -0.98138073424E+01 -0.85298940988E+03  0.10729123053E+04  0.64967803059E+03 0.  0.
         13    1    3    3    0    0  0.34602286149E+02  0.72567131220E+02  0.93232364384E+02  0.12310800343E+03  0.00000000000E+00 0.  1.
          1    1    3    3  501    0  0.24386008961E+01 -0.82380938563E+02 -0.94622177426E+03  0.94980430190E+03  0.00000000000E+00 0.  1.
         -3    1    1    2    0  502 -0.37040887045E+02  0.98138073424E+01 -0.27141098428E+02  0.46957186367E+02  0.00000000000E+00 0. -1.
<mgrwt>
<rscale>  1 0.65080710E+03</rscale>
<asrwt>0</asrwt>
<pdfrwt beam="1">  1       21 0.18441460E-01 0.65080710E+03</pdfrwt>
<pdfrwt beam="2">0</pdfrwt>
<totfact> 0.26203530E+03</totfact>
</mgrwt>
</event>
<event>
 6    1  0.1364923E-004  0.6755966E+03  0.7818608E-02  0.9759900E-01
         21   -1    0    0  501  502  0.00000000000E+00  0.00000000000E+00  0.12827529993E+03  0.12827529993E+03  0.00000000000E+00 0.  1.
         13   -1    0    0    0    0 -0.00000000000E+00 -0.00000000000E+00 -0.10000000000E+04  0.10000000000E+04  0.00000000000E+00 0.  1.
    9000005    2    1    2  501    0 -0.19304703129E+02  0.62473619773E+01 -0.87724803249E+03  0.11072465507E+04  0.67529187199E+03 0.  0.
         13    1    3    3    0    0 -0.41132035520E+02 -0.14928290507E+03  0.53128885545E+02  0.16370677620E+03  0.00000000000E+00 0.  1.
          1    1    3    3  501    0  0.21827332391E+02  0.15553026705E+03 -0.93037691803E+03  0.94353977447E+03  0.00000000000E+00 0.  1.
         -1    1    1    2    0  502  0.19304703129E+02 -0.62473619773E+01  0.55233324204E+01  0.21028749264E+02  0.00000000000E+00 0. -1.
<mgrwt>
<rscale>  1 0.67559664E+03</rscale>
<asrwt>0</asrwt>
<pdfrwt beam="1">  1       21 0.19734661E-01 0.67559664E+03</pdfrwt>
<pdfrwt beam="2">0</pdfrwt>
<totfact> 0.23002136E+03</totfact>
</mgrwt>
</event>
<event>
 6    1  0.1364923E-004  0.6333666E+03  0.7818608E-02  0.9838501E-01
         21   -1    0    0  501  502  0.00000000000E+00  0.00000000000E+00  0.18571622309E+03  0.18571622309E+03  0.00000000000E+00 0.  1.
         13   -1    0    0    0    0 -0.00000000000E+00 -0.00000000000E+00 -0.10000000000E+04  0.10000000000E+04  0.00000000000E+00 0.  1.
    9000005    2    1    2  501    0  0.11444145526E+02 -0.22500295449E+02 -0.89765498390E+03  0.10986071540E+04  0.63286331615E+03 0.  0.
         13    1    3    3    0    0 -0.22950973684E+03 -0.20325899106E+03 -0.29796723789E+03  0.42752007158E+03  0.00000000000E+00 0.  1.
          1    1    3    3  501    0  0.24095388236E+03  0.18075869561E+03 -0.59968774602E+03  0.67108708242E+03  0.00000000000E+00 0.  1.
         -1    1    1    2    0  502 -0.11444145526E+02  0.22500295449E+02  0.83371206995E+02  0.87109069092E+02  0.00000000000E+00 0. -1.
<mgrwt>
<rscale>  1 0.63336657E+03</rscale>
<asrwt>0</asrwt>
<pdfrwt beam="1">  1       21 0.28571726E-01 0.63336657E+03</pdfrwt>
<pdfrwt beam="2">0</pdfrwt>
<totfact> 0.11197186E+03</totfact>
</mgrwt>
</event>
<event>
 6    1  0.1364923E-004  0.6496302E+03  0.7818608E-02  0.9807473E-01
         21   -1    0    0  501  502  0.00000000000E+00  0.00000000000E+00  0.19750278053E+03  0.19750278053E+03  0.00000000000E+00 0.  1.
         13   -1    0    0    0    0 -0.00000000000E+00 -0.00000000000E+00 -0.10000000000E+04  0.10000000000E+04  0.00000000000E+00 0.  1.
    9000005    2    1    2  501    0 -0.85415659562E+00 -0.21343405030E+02 -0.89312233140E+03  0.11043943414E+04  0.64927890153E+03 0.  0.
         13    1    3    3    0    0 -0.21244195886E+03 -0.99579326319E+02 -0.61262119470E+02  0.24248850570E+03  0.00000000000E+00 0.  1.
          1    1    3    3  501    0  0.21158780226E+03  0.78235921289E+02 -0.83186021193E+03  0.86190583572E+03  0.00000000000E+00 0.  1.
         -1    1    1    2    0  502  0.85415659562E+00  0.21343405030E+02  0.90625111928E+02  0.93108439111E+02  0.00000000000E+00 0. -1.
<mgrwt>
<rscale>  1 0.64963017E+03</rscale>
<asrwt>0</asrwt>
<pdfrwt beam="1">  1       21 0.30385042E-01 0.64963017E+03</pdfrwt>
<pdfrwt beam="2">0</pdfrwt>
<totfact> 0.98921891E+02</totfact>
</mgrwt>
</event>
<event>
 6    1  0.1364923E-004  0.7008753E+03  0.7818608E-02  0.9715736E-01
         21   -1    0    0  501  502  0.00000000000E+00  0.00000000000E+00  0.17336361158E+03  0.17336361158E+03  0.00000000000E+00 0.  1.
         13   -1    0    0    0    0 -0.00000000000E+00 -0.00000000000E+00 -0.10000000000E+04  0.10000000000E+04  0.00000000000E+00 0.  1.
    9000005    2    1    2  501    0 -0.12984654653E+03 -0.94987984135E+01 -0.72304708703E+03  0.10069872425E+04  0.68867689356E+03 0.  0.
         13    1    3    3    0    0  0.18644739631E+03  0.15252510571E+03 -0.57235376600E+03  0.62097936593E+03  0.00000000000E+00 0.  1.
          3    1    3    3  501    0 -0.31629394284E+03 -0.16202390412E+03 -0.15069332103E+03  0.38600787659E+03  0.00000000000E+00 0.  1.
         -1    1    1    2    0  502  0.12984654653E+03  0.94987984135E+01 -0.10358930139E+03  0.16637636906E+03  0.00000000000E+00 0. -1.
<mgrwt>
<rscale>  1 0.70087532E+03</rscale>
<asrwt>0</asrwt>
<pdfrwt beam="1">  1       21 0.26671324E-01 0.70087532E+03</pdfrwt>
<pdfrwt beam="2">0</pdfrwt>
<totfact> 0.12786251E+03</totfact>
</mgrwt>
</event>
<event>
 6    1  0.1364923E-004  0.6555950E+03  0.7818608E-02  0.9796337E-01
         21   -1    0    0  501  502  0.00000000000E+00  0.00000000000E+00  0.15298274233E+03  0.15298274233E+03  0.00000000000E+00 0. -1.
         13   -1    0    0    0    0 -0.00000000000E+00 -0.00000000000E+00 -0.10000000000E+04  0.10000000000E+04  0.00000000000E+00 0.  1.
    9000005    2    1    2  501    0  0.27821009241E+02  0.65763734913E+02 -0.85898204764E+03  0.10805808530E+04  0.65169467102E+03 0.  0.
         13    1    3    3    0    0  0.21699070942E+03 -0.21045323665E+03 -0.28142315748E+03  0.41300669046E+03  0.00000000000E+00 0.  1.
          3    1    3    3  501    0 -0.18916970018E+03  0.27621697157E+03 -0.57755889015E+03  0.66757416251E+03  0.00000000000E+00 0.  1.
         -3    1    1    2    0  502 -0.27821009241E+02 -0.65763734913E+02  0.11964789971E+02  0.72401889367E+02  0.00000000000E+00 0. -1.
<mgrwt>
<rscale>  1 0.65559501E+03</rscale>
<asrwt>0</asrwt>
<pdfrwt beam="1">  1       21 0.23535806E-01 0.65559501E+03</pdfrwt>
<pdfrwt beam="2">0</pdfrwt>
<totfact> 0.16380068E+03</totfact>
</mgrwt>
</event>
<event>
 6    1  0.1364923E-004  0.6467529E+03  0.7818608E-02  0.9812891E-01
         21   -1    0    0  501  502  0.00000000000E+00  0.00000000000E+00  0.21628573638E+03  0.21628573638E+03  0.00000000000E+00 0.  1.
         13   -1    0    0    0    0 -0.00000000000E+00 -0.00000000000E+00 -0.10000000000E+04  0.10000000000E+04  0.00000000000E+00 0.  1.
    9000005    2    1    2  501    0  0.53504526834E+02 -0.94366425728E+00 -0.88830147296E+03  0.10988033579E+04  0.64453524931E+03 0.  0.
         13    1    3    3    0    0 -0.15843323204E+03  0.16031507278E+03 -0.77896903888E+03  0.81092217574E+03  0.00000000000E+00 0.  1.
          1    1    3    3  501    0  0.21193775887E+03 -0.16125873704E+03 -0.10933243408E+03  0.28788118217E+03  0.00000000000E+00 0.  1.
         -1    1    1    2    0  502 -0.53504526834E+02  0.94366425728E+00  0.10458720934E+03  0.11748237847E+03  0.00000000000E+00 0. -1.
<mgrwt>
<rscale>  1 0.64675290E+03</rscale>
<asrwt>0</asrwt>
<pdfrwt beam="1">  1       21 0.33274728E-01 0.64675290E+03</pdfrwt>
<pdfrwt beam="2">0</pdfrwt>
<totfact> 0.82386431E+02</totfact>
</mgrwt>
</event>
<event>
 6    1  0.1364923E-004  0.6511004E+03  0.7818608E-02  0.9804717E-01
         21   -1    0    0  501  502  0.00000000000E+00  0.00000000000E+00  0.32342074825E+03  0.32342074825E+03  0.00000000000E+00 0. -1.
         13   -1    0    0    0    0 -0.00000000000E+00 -0.00000000000E+00 -0.10000000000E+04  0.10000000000E+04  0.00000000000E+00 0.  1.
    9000005    2    1    2  501    0 -0.16795371287E+02 -0.81147789320E+02 -0.88524403430E+03  0.10989034000E+04  0.64580541494E+03 0.  0.
         13    1    3    3    0    0 -0.13240794101E+03  0.86867975187E+02 -0.88078174859E+03  0.89490468576E+03  0.00000000000E+00 0.  1.
          1    1    3    3  501    0  0.11561256972E+03 -0.16801576451E+03 -0.44622857123E+01  0.20399871420E+03  0.00000000000E+00 0.  1.
         -3    1    1    2    0  502  0.16795371287E+02  0.81147789320E+02  0.20866478255E+03  0.22451734829E+03  0.00000000000E+00 0. -1.
<mgrwt>
<rscale>  1 0.65110036E+03</rscale>
<asrwt>0</asrwt>
<pdfrwt beam="1">  1       21 0.49757037E-01 0.65110036E+03</pdfrwt>
<pdfrwt beam="2">0</pdfrwt>
<totfact> 0.35637891E+02</totfact>
</mgrwt>
</event>
<event>
 6    1  0.1364923E-004  0.6545944E+03  0.7818608E-02  0.9798196E-01
         21   -1    0    0  501  502  0.00000000000E+00  0.00000000000E+00  0.13626692725E+03  0.13626692725E+03  0.00000000000E+00 0.  1.
         13   -1    0    0    0    0 -0.00000000000E+00 -0.00000000000E+00 -0.10000000000E+04  0.10000000000E+04  0.00000000000E+00 0.  1.
    9000005    2    1    2  501    0  0.26301209603E+02 -0.35847084328E+02 -0.87269421784E+03  0.10909120025E+04  0.65308271465E+03 0.  0.
         13    1    3    3    0    0  0.28767239528E+03  0.76084631860E+02 -0.19440641094E+03  0.35544075572E+03  0.00000000000E+00 0.  1.
          3    1    3    3  501    0 -0.26137118568E+03 -0.11193171619E+03 -0.67828780690E+03  0.73547124674E+03  0.00000000000E+00 0.  1.
         -1    1    1    2    0  502 -0.26301209603E+02  0.35847084328E+02  0.89611450884E+01  0.45354924790E+02  0.00000000000E+00 0. -1.
<mgrwt>
<rscale>  1 0.65459438E+03</rscale>
<asrwt>0</asrwt>
<pdfrwt beam="1">  1       21 0.20964142E-01 0.65459438E+03</pdfrwt>
<pdfrwt beam="2">0</pdfrwt>
<totfact> 0.20497056E+03</totfact>
</mgrwt>
</event>
<event>
 6    1  0.1364923E-004  0.6695057E+03  0.7818608E-02  0.9770851E-01
         21   -1    0    0  501  502  0.00000000000E+00  0.00000000000E+00  0.24812185793E+03  0.24812185793E+03  0.00000000000E+00 0. -1.
         13   -1    0    0    0    0 -0.00000000000E+00 -0.00000000000E+00 -0.10000000000E+04  0.10000000000E+04  0.00000000000E+00 0.  1.
    9000005    2    1    2  501    0 -0.15489146219E+03 -0.17240712537E+02 -0.83598135837E+03  0.10710287801E+04  0.65111382185E+03 0.  0.
         13    1    3    3    0    0  0.19704360778E+03 -0.10657995471E+02 -0.63660772639E+03  0.66649019013E+03  0.00000000000E+00 0.  1.
          1    1    3    3  501    0 -0.35193506997E+03 -0.65827170654E+01 -0.19937363198E+03  0.40453858996E+03  0.00000000000E+00 0.  1.
         -1    1    1    2    0  502  0.15489146219E+03  0.17240712537E+02  0.84103216307E+02  0.17709307785E+03  0.00000000000E+00 0. -1.
<mgrwt>
<rscale>  1 0.66950565E+03</rscale>
<asrwt>0</asrwt>
<pdfrwt beam="1">  1       21 0.38172592E-01 0.66950565E+03</pdfrwt>
<pdfrwt beam="2">0</pdfrwt>
<totfact> 0.62118675E+02</totfact>
</mgrwt>
</event>
<event>
 6    1  0.1364923E-004  0.6420169E+03  0.7818608E-02  0.9821875E-01
         21   -1    0    0  501  502  0.00000000000E+00  0.00000000000E+00  0.12891628516E+03  0.12891628516E+03  0.00000000000E+00 0.  1.
         13   -1    0    0    0    0 -0.00000000000E+00 -0.00000000000E+00 -0.10000000000E+04  0.10000000000E+04  0.00000000000E+00 0.  1.
    9000005    2    1    2  501    0 -0.39438610382E+02  0.17673994511E+02 -0.87527962628E+03  0.10854953254E+04  0.64056061640E+03 0.  0.
         13    1    3    3    0    0  0.15609820502E+03  0.26352898725E+03 -0.57204142871E+03  0.64888024542E+03  0.00000000000E+00 0.  1.
          3    1    3    3  501    0 -0.19553681540E+03 -0.24585499274E+03 -0.30323819756E+03  0.43661508001E+03  0.00000000000E+00 0.  1.
         -1    1    1    2    0  502  0.39438610382E+02 -0.17673994511E+02  0.41959114346E+01  0.43420959727E+02  0.00000000000E+00 0. -1.
<mgrwt>
<rscale>  1 0.64201688E+03</rscale>
<asrwt>0</asrwt>
<pdfrwt beam="1">  1       21 0.19833274E-01 0.64201688E+03</pdfrwt>
<pdfrwt beam="2">0</pdfrwt>
<totfact> 0.22812649E+03</totfact>
</mgrwt>
</event>
<event>
 6    1  0.1364923E-004  0.6537281E+03  0.7818608E-02  0.9799809E-01
         21   -1    0    0  501  502  0.00000000000E+00  0.00000000000E+00  0.11951507777E+03  0.11951507777E+03  0.00000000000E+00 0.  1.
         13   -1    0    0    0    0 -0.00000000000E+00 -0.00000000000E+00 -0.10000000000E+04  0.10000000000E+04  0.00000000000E+00 0.  1.
    9000005    2    1    2  501    0 -0.35123465525E+02 -0.84946931840E+01 -0.84946191638E+03  0.10718889869E+04  0.65272860758E+03 0.  0.
         13    1    3    3    0    0 -0.25458457542E+03 -0.17372061522E+03 -0.20184947457E+03  0.36842281224E+03  0.00000000000E+00 0.  1.
          3    1    3    3  501    0  0.21946110990E+03  0.16522592203E+03 -0.64761244181E+03  0.70346617464E+03  0.00000000000E+00 0.  1.
         -3    1    1    2    0  502  0.35123465525E+02  0.84946931840E+01 -0.31023005847E+02  0.47626090901E+02  0.00000000000E+00 0. -1.
<mgrwt>
<rscale>  1 0.65372812E+03</rscale>
<asrwt>0</asrwt>
<pdfrwt beam="1">  1       21 0.18386935E-01 0.65372812E+03</pdfrwt>
<pdfrwt beam="2">0</pdfrwt>
<totfact> 0.26348835E+03</totfact>
</mgrwt>
</event>
<event>
 6    1  0.1364923E-004  0.6621327E+03  0.7818608E-02  0.9784276E-01
         21   -1    0    0  501  502  0.00000000000E+00  0.00000000000E+00  0.18458039984E+03  0.18458039984E+03  0.00000000000E+00 0.  1.
         13   -1    0    0    0    0 -0.00000000000E+00 -0.00000000000E+00 -0.10000000000E+04  0.10000000000E+04  0.00000000000E+00 0.  1.
    9000005    2    1    2  501    0  0.11455210220E+03  0.43104690588E+02 -0.82951920354E+03  0.10613773265E+04  0.65072230764E+03 0.  0.
         13    1    3    3    0    0  0.58147988787E+02  0.26698618333E+03 -0.77832049911E+03  0.82489127164E+03  0.00000000000E+00 0.  1.
          3    1    3    3  501    0  0.56404113414E+02 -0.22388149274E+03 -0.51198704430E+02  0.23648605484E+03  0.00000000000E+00 0.  1.
         -3    1    1    2    0  502 -0.11455210220E+03 -0.43104690588E+02  0.14099603375E+02  0.12320307336E+03  0.00000000000E+00 0. -1.
<mgrwt>
<rscale>  1 0.66213271E+03</rscale>
<asrwt>0</asrwt>
<pdfrwt beam="1">  1       21 0.28396984E-01 0.66213271E+03</pdfrwt>
<pdfrwt beam="2">0</pdfrwt>
<totfact> 0.11315161E+03</totfact>
</mgrwt>
</event>
<event>
 6    1  0.1364923E-004  0.6780060E+03  0.7818608E-02  0.9755602E-01
         21   -1    0    0  501  502  0.00000000000E+00  0.00000000000E+00  0.27729731499E+03  0.27729731499E+03  0.00000000000E+00 0. -1.
         13   -1    0    0    0    0 -0.00000000000E+00 -0.00000000000E+00 -0.10000000000E+04  0.10000000000E+04  0.00000000000E+00 0.  1.
    9000005    2    1    2  501    0 -0.35179191787E+02  0.28878366708E+02 -0.88151170441E+03  0.11120948930E+04  0.67647662957E+03 0.  0.
         13    1    3    3    0    0  0.16360771876E+03 -0.26613160626E+03 -0.50734290796E+03  0.59581066098E+03  0.00000000000E+00 0.  1.
          3    1    3    3  501    0 -0.19878691055E+03  0.29500997296E+03 -0.37416879646E+03  0.51628423198E+03  0.00000000000E+00 0.  1.
         -3    1    1    2    0  502  0.35179191787E+02 -0.28878366708E+02  0.15880901940E+03  0.16520242202E+03  0.00000000000E+00 0. -1.
<mgrwt>
<rscale>  1 0.67800602E+03</rscale>
<asrwt>0</asrwt>
<pdfrwt beam="1">  1       21 0.42661124E-01 0.67800602E+03</pdfrwt>
<pdfrwt beam="2">0</pdfrwt>
<totfact> 0.49260650E+02</totfact>
</mgrwt>
</event>
<event>
 6    1  0.1364923E-004  0.6515529E+03  0.7818608E-02  0.9803870E-01
         21   -1    0    0  501  502  0.00000000000E+00  0.00000000000E+00  0.19744739258E+03  0.19744739258E+03  0.00000000000E+00 0.  1.
         13   -1    0    0    0    0 -0.00000000000E+00 -0.00000000000E+00 -0.10000000000E+04  0.10000000000E+04  0.00000000000E+00 0.  1.
    9000005    2    1    2  501    0  0.72624803117E+02  0.10803196044E+01 -0.87758887001E+03  0.10930157411E+04  0.64749181965E+03 0.  0.
         13    1    3    3    0    0 -0.28432881609E+03 -0.40409667782E+02 -0.32333742888E+03  0.43246145473E+03  0.00000000000E+00 0.  1.
          3    1    3    3  501    0  0.35695361921E+03  0.41489987386E+02 -0.55425144112E+03  0.66055428642E+03  0.00000000000E+00 0.  1.
         -3    1    1    2    0  502 -0.72624803117E+02 -0.10803196044E+01  0.75036262593E+02  0.10443165144E+03  0.00000000000E+00 0. -1.
<mgrwt>
<rscale>  1 0.65155290E+03</rscale>
<asrwt>0</asrwt>
<pdfrwt beam="1">  1       21 0.30376521E-01 0.65155290E+03</pdfrwt>
<pdfrwt beam="2">0</pdfrwt>
<totfact> 0.98965418E+02</totfact>
</mgrwt>
</event>
<event>
 6    1  0.1364923E-004  0.6463293E+03  0.7818608E-02  0.9813692E-01
         21   -1    0    0  501  502  0.00000000000E+00  0.00000000000E+00  0.13416054461E+03  0.13416054461E+03  0.00000000000E+00 0.  1.
         13   -1    0    0    0    0 -0.00000000000E+00 -0.00000000000E+00 -0.10000000000E+04  0.10000000000E+04  0.00000000000E+00 0.  1.
    9000005    2    1    2  501    0 -0.55071830173E+02 -0.25406600574E+02 -0.85617925478E+03  0.10727462034E+04  0.64347734905E+03 0.  0.
         13    1    3    3    0    0  0.13118252098E+03 -0.29221849098E+03 -0.44831473710E+03  0.55098693613E+03  0.00000000000E+00 0.  1.
          3    1    3    3  501    0 -0.18625435116E+03  0.26681189041E+03 -0.40786451768E+03  0.52175926726E+03  0.00000000000E+00 0.  1.
         -1    1    1    2    0  502  0.55071830173E+02  0.25406600574E+02 -0.96602006075E+01  0.61414341217E+02  0.00000000000E+00 0. -1.
<mgrwt>
<rscale>  1 0.64632925E+03</rscale>
<asrwt>0</asrwt>
<pdfrwt beam="1">  1       21 0.20640083E-01 0.64632925E+03</pdfrwt>
<pdfrwt beam="2">0</pdfrwt>
<totfact> 0.21128205E+03</totfact>
</mgrwt>
</event>
<event>
 6    1  0.1364923E-004  0.7733550E+03  0.7818608E-02  0.9599406E-01
         21   -1    0    0  501  502  0.00000000000E+00  0.00000000000E+00  0.16849661717E+03  0.16849661717E+03  0.00000000000E+00 0.  1.
         13   -1    0    0    0    0 -0.00000000000E+00 -0.00000000000E+00 -0.10000000000E+04  0.10000000000E+04  0.00000000000E+00 0.  1.
    9000005    2    1    2  501    0 -0.44607789797E+01 -0.28396193830E+02 -0.83661726623E+03  0.11393008268E+04  0.77282060104E+03 0.  0.
         13    1    3    3    0    0 -0.84278002838E+02  0.36277570914E+03 -0.36627066644E+03  0.52236309019E+03  0.00000000000E+00 0.  1.
          3    1    3    3  501    0  0.79817223858E+02 -0.39117190297E+03 -0.47034659979E+03  0.61693773659E+03  0.00000000000E+00 0.  1.
         -3    1    1    2    0  502  0.44607789797E+01  0.28396193830E+02  0.51138833968E+01  0.29195790391E+02  0.00000000000E+00 0. -1.
<mgrwt>
<rscale>  1 0.77335498E+03</rscale>
<asrwt>0</asrwt>
<pdfrwt beam="1">  1       21 0.25922556E-01 0.77335498E+03</pdfrwt>
<pdfrwt beam="2">0</pdfrwt>
<totfact> 0.13478376E+03</totfact>
</mgrwt>
</event>
<event>
 6    1  0.1364923E-004  0.6562222E+03  0.7818608E-02  0.9795173E-01
         21   -1    0    0  501  502  0.00000000000E+00  0.00000000000E+00  0.25887011202E+03  0.25887011202E+03  0.00000000000E+00 0.  1.
         13   -1    0    0    0    0 -0.00000000000E+00 -0.00000000000E+00 -0.10000000000E+04  0.10000000000E+04  0.00000000000E+00 0.  1.
    9000005    2    1    2  501    0  0.20862514005E+02 -0.23897719494E+02 -0.89049769829E+03  0.11061707727E+04  0.65545501915E+03 0.  0.
         13    1    3    3    0    0  0.28404755844E+03 -0.16478341189E+03 -0.62790257050E+03  0.70858889797E+03  0.00000000000E+00 0.  1.
          1    1    3    3  501    0 -0.26318504443E+03  0.14088569240E+03 -0.26259512779E+03  0.39758187468E+03  0.00000000000E+00 0.  1.
         -1    1    1    2    0  502 -0.20862514005E+02  0.23897719494E+02  0.14936781031E+03  0.15269933937E+03  0.00000000000E+00 0. -1.
<mgrwt>
<rscale>  1 0.65622224E+03</rscale>
<asrwt>0</asrwt>
<pdfrwt beam="1">  1       21 0.39826170E-01 0.65622224E+03</pdfrwt>
<pdfrwt beam="2">0</pdfrwt>
<totfact> 0.56960226E+02</totfact>
</mgrwt>
</event>
<event>
 6    1  0.1364923E-004  0.6620366E+03  0.7818608E-02  0.9784452E-01
         21   -1    0    0  501  502  0.00000000000E+00  0.00000000000E+00  0.13523381049E+03  0.13523381049E+03  0.00000000000E+00 0.  1.
         13   -1    0    0    0    0 -0.00000000000E+00 -0.00000000000E+00 -0.10000000000E+04  0.10000000000E+04  0.00000000000E+00 0.  1.
    9000005    2    1    2  501    0  0.25962564884E+02 -0.13263003913E+01 -0.88289681840E+03  0.11035394332E+04  0.66152601977E+03 0.  0.
         13    1    3    3    0    0  0.29376739668E+03 -0.21546166682E+02 -0.74609972527E+03  0.80213983861E+03  0.00000000000E+00 0.  1.
          3    1    3    3  501    0 -0.26780483179E+03  0.20219866291E+02 -0.13679709313E+03  0.30139959458E+03  0.00000000000E+00 0.  1.
         -1    1    1    2    0  502 -0.25962564884E+02  0.13263003913E+01  0.18130628886E+02  0.31694377291E+02  0.00000000000E+00 0. -1.
<mgrwt>
<rscale>  1 0.66203662E+03</rscale>
<asrwt>0</asrwt>
<pdfrwt beam="1">  1       21 0.20805201E-01 0.66203662E+03</pdfrwt>
<pdfrwt beam="2">0</pdfrwt>
<totfact> 0.20793333E+03</totfact>
</mgrwt>
</event>
<event>
 6    1  0.1364923E-004  0.6477786E+03  0.7818608E-02  0.9810956E-01
         21   -1    0    0  501  502  0.00000000000E+00  0.00000000000E+00  0.12145857656E+03  0.12145857656E+03  0.00000000000E+00 0.  1.
         13   -1    0    0    0    0 -0.00000000000E+00 -0.00000000000E+00 -0.10000000000E+04  0.10000000000E+04  0.00000000000E+00 0.  1.
    9000005    2    1    2  501    0 -0.12351086109E+02 -0.16786297539E+02 -0.88751177064E+03  0.10987694549E+04  0.64744331247E+03 0.  0.
         13    1    3    3    0    0  0.19141285434E+03 -0.78400400577E+02 -0.85952288551E+03  0.88406170279E+03  0.00000000000E+00 0.  1.
          1    1    3    3  501    0 -0.20376394045E+03  0.61614103038E+02 -0.27988885126E+02  0.21470775210E+03  0.00000000000E+00 0.  1.
         -1    1    1    2    0  502  0.12351086109E+02  0.16786297539E+02  0.89703471956E+01  0.22689121665E+02  0.00000000000E+00 0. -1.
<mgrwt>
<rscale>  1 0.64777864E+03</rscale>
<asrwt>0</asrwt>
<pdfrwt beam="1">  1       21 0.18685934E-01 0.64777864E+03</pdfrwt>
<pdfrwt beam="2">0</pdfrwt>
<totfact> 0.25557780E+03</totfact>
</mgrwt>
</event>
<event>
 6    1  0.1364923E-004  0.6529754E+03  0.7818608E-02  0.9801212E-01
         21   -1    0    0  501  502  0.00000000000E+00  0.00000000000E+00  0.18860942299E+03  0.18860942299E+03  0.00000000000E+00 0.  1.
         13   -1    0    0    0    0 -0.00000000000E+00 -0.00000000000E+00 -0.10000000000E+04  0.10000000000E+04  0.00000000000E+00 0.  1.
    9000005    2    1    2  501    0  0.56550498228E+02  0.70160743164E+02 -0.86497282748E+03  0.10837688474E+04  0.64672748010E+03 0.  0.
         13    1    3    3    0    0  0.82862215142E+02 -0.15518393185E+03 -0.83686858826E+03  0.85515918601E+03  0.00000000000E+00 0.  1.
          3    1    3    3  501    0 -0.26311716914E+02  0.22534467501E+03 -0.28104239218E+02  0.22860966136E+03  0.00000000000E+00 0.  1.
         -3    1    1    2    0  502 -0.56550498228E+02 -0.70160743164E+02  0.53582250470E+02  0.10484057562E+03  0.00000000000E+00 0. -1.
<mgrwt>
<rscale>  1 0.65297544E+03</rscale>
<asrwt>0</asrwt>
<pdfrwt beam="1">  1       21 0.29016833E-01 0.65297544E+03</pdfrwt>
<pdfrwt beam="2">0</pdfrwt>
<totfact> 0.10844622E+03</totfact>
</mgrwt>
</event>
<event>
 6    1  0.1364923E-004  0.6624549E+03  0.7818608E-02  0.9783685E-01
         21   -1    0    0  501  502  0.00000000000E+00  0.00000000000E+00  0.20179811872E+03  0.20179811872E+03  0.00000000000E+00 0.  1.
         13   -1    0    0    0    0 -0.00000000000E+00 -0.00000000000E+00 -0.10000000000E+04  0.10000000000E+04  0.00000000000E+00 0.  1.
    9000005    2    1    2  501    0 -0.12746314647E+02  0.17784288047E+03 -0.77881572883E+03  0.10224482328E+04  0.63800931860E+03 0.  0.
         13    1    3    3    0    0 -0.19325046434E+03 -0.92666039473E+02 -0.43863314881E+02  0.21876180478E+03  0.00000000000E+00 0.  1.
          3    1    3    3  501    0  0.18050414969E+03  0.27050891995E+03 -0.73495241394E+03  0.80368642802E+03  0.00000000000E+00 0.  1.
         -1    1    1    2    0  502  0.12746314647E+02 -0.17784288047E+03 -0.19386152450E+02  0.17934988592E+03  0.00000000000E+00 0. -1.
<mgrwt>
<rscale>  1 0.66245487E+03</rscale>
<asrwt>0</asrwt>
<pdfrwt beam="1">  1       21 0.31045864E-01 0.66245487E+03</pdfrwt>
<pdfrwt beam="2">0</pdfrwt>
<totfact> 0.94662254E+02</totfact>
</mgrwt>
</event>
<event>
 6    1  0.1364923E-004  0.6473369E+03  0.7818608E-02  0.9811789E-01
         21   -1    0    0  501  502  0.00000000000E+00  0.00000000000E+00  0.12629975816E+03  0.12629975816E+03  0.00000000000E+00 0.  1.
         13   -1    0    0    0    0 -0.00000000000E+00 -0.00000000000E+00 -0.10000000000E+04  0.10000000000E+04  0.00000000000E+00 0.  1.
    9000005    2    1    2  501    0 -0.49046073331E+02  0.39447309925E+02 -0.80774154618E+03  0.10351287260E+04  0.64426971560E+03 0.  0.
         13    1    3    3    0    0 -0.11785330786E+03 -0.16642430996E+03 -0.79162032577E+03  0.81746510218E+03  0.00000000000E+00 0.  1.
          1    1    3    3  501    0  0.68807234527E+02  0.20587161988E+03 -0.16121220416E+02  0.21766362384E+03  0.00000000000E+00 0.  1.
         -1    1    1    2    0  502  0.49046073331E+02 -0.39447309925E+02 -0.65958695655E+02  0.91171032143E+02  0.00000000000E+00 0. -1.
<mgrwt>
<rscale>  1 0.64733691E+03</rscale>
<asrwt>0</asrwt>
<pdfrwt beam="1">  1       21 0.19430731E-01 0.64733691E+03</pdfrwt>
<pdfrwt beam="2">0</pdfrwt>
<totfact> 0.23720900E+03</totfact>
</mgrwt>
</event>
<event>
 6    1  0.1364923E-004  0.6764999E+03  0.7818608E-02  0.9758286E-01
         21   -1    0    0  501  502  0.00000000000E+00  0.00000000000E+00  0.21980523427E+03  0.21980523427E+03  0.00000000000E+00 0.  1.
         13   -1    0    0    0    0 -0.00000000000E+00 -0.00000000000E+00 -0.10000000000E+04  0.10000000000E+04  0.00000000000E+00 0.  1.
    9000005    2    1    2  501    0  0.10843431887E+03  0.10041147351E+03 -0.82356130020E+03  0.10657886058E+04  0.66016033781E+03 0.  0.
         13    1    3    3    0    0 -0.21300687591E+03  0.20749439190E+03 -0.56895475248E+03  0.64197769605E+03  0.00000000000E+00 0.  1.
          1    1    3    3  501    0  0.32144119478E+03 -0.10708291838E+03 -0.25460654773E+03  0.42381090979E+03  0.00000000000E+00 0.  1.
         -1    1    1    2    0  502 -0.10843431887E+03 -0.10041147351E+03  0.43366534474E+02  0.15401662843E+03  0.00000000000E+00 0. -1.
<mgrwt>
<rscale>  1 0.67649992E+03</rscale>
<asrwt>0</asrwt>
<pdfrwt beam="1">  1       21 0.33816189E-01 0.67649992E+03</pdfrwt>
<pdfrwt beam="2">0</pdfrwt>
<totfact> 0.79569049E+02</totfact>
</mgrwt>
</event>
<event>
 6    1  0.1364923E-004  0.6526486E+03  0.7818608E-02  0.9801822E-01
         21   -1    0    0  501  502  0.00000000000E+00  0.00000000000E+00  0.14631846256E+03  0.14631846256E+03  0.00000000000E+00 0.  1.
         13   -1    0    0    0    0 -0.00000000000E+00 -0.00000000000E+00 -0.10000000000E+04  0.10000000000E+04  0.00000000000E+00 0.  1.
    9000005    2    1    2  501    0  0.33676043509E+01 -0.36101868221E+02 -0.88416169516E+03  0.10989504812E+04  0.65164067645E+03 0.  0.
         13    1    3    3    0    0  0.14962995282E+03  0.26015242040E+03 -0.28050844298E+03  0.41079604575E+03  0.00000000000E+00 0.  1.
          3    1    3    3  501    0 -0.14626234847E+03 -0.29625428862E+03 -0.60365325218E+03  0.68815443541E+03  0.00000000000E+00 0.  1.
         -1    1    1    2    0  502 -0.33676043509E+01  0.36101868221E+02  0.30480157716E+02  0.47367981406E+02  0.00000000000E+00 0. -1.
<mgrwt>
<rscale>  1 0.65264865E+03</rscale>
<asrwt>0</asrwt>
<pdfrwt beam="1">  1       21 0.22510532E-01 0.65264865E+03</pdfrwt>
<pdfrwt beam="2">0</pdfrwt>
<totfact> 0.17864083E+03</totfact>
</mgrwt>
</event>
<event>
 6    1  0.1364923E-004  0.6524968E+03  0.7818608E-02  0.9802105E-01
         21   -1    0    0  501  502  0.00000000000E+00  0.00000000000E+00  0.12048924907E+03  0.12048924907E+03  0.00000000000E+00 0.  1.
         13   -1    0    0    0    0 -0.00000000000E+00 -0.00000000000E+00 -0.10000000000E+04  0.10000000000E+04  0.00000000000E+00 0.  1.
    9000005    2    1    2  501    0 -0.32385059451E+02  0.29024586023E+01 -0.86820982216E+03  0.10860664756E+04  0.65168618047E+03 0.  0.
         13    1    3    3    0    0 -0.52856536157E+01  0.28366438714E+03 -0.16455299010E+03  0.32798034883E+03  0.00000000000E+00 0.  1.
          1    1    3    3  501    0 -0.27099405836E+02 -0.28076192854E+03 -0.70365683206E+03  0.75808612678E+03  0.00000000000E+00 0.  1.
         -1    1    1    2    0  502  0.32385059451E+02 -0.29024586023E+01 -0.11300928766E+02  0.34422773459E+02  0.00000000000E+00 0. -1.
<mgrwt>
<rscale>  1 0.65249682E+03</rscale>
<asrwt>0</asrwt>
<pdfrwt beam="1">  1       21 0.18536807E-01 0.65249682E+03</pdfrwt>
<pdfrwt beam="2">0</pdfrwt>
<totfact> 0.25946224E+03</totfact>
</mgrwt>
</event>
<event>
 6    1  0.1364923E-004  0.6541970E+03  0.7818608E-02  0.9798935E-01
         21   -1    0    0  501  502  0.00000000000E+00  0.00000000000E+00  0.13053840200E+03  0.13053840200E+03  0.00000000000E+00 0.  1.
         13   -1    0    0    0    0 -0.00000000000E+00 -0.00000000000E+00 -0.10000000000E+04  0.10000000000E+04  0.00000000000E+00 0.  1.
    9000005    2    1    2  501    0 -0.42959619474E+02 -0.16680961330E+02 -0.86458582385E+03  0.10841966654E+04  0.65257181912E+03 0.  0.
         13    1    3    3    0    0  0.29927686130E+03  0.53251645071E+02 -0.43091025698E+03  0.52733862649E+03  0.00000000000E+00 0.  1.
          3    1    3    3  501    0 -0.34223648078E+03 -0.69932606402E+02 -0.43367556687E+03  0.55685803892E+03  0.00000000000E+00 0.  1.
         -3    1    1    2    0  502  0.42959619474E+02  0.16680961330E+02 -0.48757741466E+01  0.46341736585E+02  0.00000000000E+00 0. -1.
<mgrwt>
<rscale>  1 0.65419704E+03</rscale>
<asrwt>0</asrwt>
<pdfrwt beam="1">  1       21 0.20082831E-01 0.65419704E+03</pdfrwt>
<pdfrwt beam="2">0</pdfrwt>
<totfact> 0.22261656E+03</totfact>
</mgrwt>
</event>
<event>
 6    1  0.1364923E-004  0.6554476E+03  0.7818608E-02  0.9796610E-01
         21   -1    0    0  501  502  0.00000000000E+00  0.00000000000E+00  0.16434743539E+03  0.16434743539E+03  0.00000000000E+00 0.  1.
         13   -1    0    0    0    0 -0.00000000000E+00 -0.00000000000E+00 -0.10000000000E+04  0.10000000000E+04  0.00000000000E+00 0.  1.
    9000005    2    1    2  501    0  0.30385927845E+02 -0.76869633949E+02 -0.85705885764E+03  0.10789631592E+04  0.65021486317E+03 0.  0.
         13    1    3    3    0    0  0.31286665038E+03  0.12844812435E+02 -0.63704351507E+03  0.70984151064E+03  0.00000000000E+00 0.  1.
          3    1    3    3  501    0 -0.28248072254E+03 -0.89714446385E+02 -0.22001534257E+03  0.36912164859E+03  0.00000000000E+00 0.  1.
         -3    1    1    2    0  502 -0.30385927845E+02  0.76869633949E+02  0.21406293027E+02  0.85384276162E+02  0.00000000000E+00 0. -1.
<mgrwt>
<rscale>  1 0.65544764E+03</rscale>
<asrwt>0</asrwt>
<pdfrwt beam="1">  1       21 0.25284220E-01 0.65544764E+03</pdfrwt>
<pdfrwt beam="2">0</pdfrwt>
<totfact> 0.14238334E+03</totfact>
</mgrwt>
</event>
<event>
 6    1  0.1364923E-004  0.6668505E+03  0.7818608E-02  0.9775664E-01
         21   -1    0    0  501  502  0.00000000000E+00  0.00000000000E+00  0.11964827662E+03  0.11964827662E+03  0.00000000000E+00 0.  1.
         13   -1    0    0    0    0 -0.00000000000E+00 -0.00000000000E+00 -0.10000000000E+04  0.10000000000E+04  0.00000000000E+00 0.  1.
    9000005    2    1    2  501    0 -0.73130670125E+01 -0.20036052940E+02 -0.86933349893E+03  0.10956414935E+04  0.66650928388E+03 0.  0.
         13    1    3    3    0    0  0.21827702527E+03 -0.20403522490E+03 -0.69454300501E+03  0.75608545719E+03  0.00000000000E+00 0.  1.
          1    1    3    3  501    0 -0.22559009228E+03  0.18399917196E+03 -0.17479049392E+03  0.33955603629E+03  0.00000000000E+00 0.  1.
         -3    1    1    2    0  502  0.73130670125E+01  0.20036052940E+02 -0.11018224453E+02  0.24006783138E+02  0.00000000000E+00 0. -1.
<mgrwt>
<rscale>  1 0.66685047E+03</rscale>
<asrwt>0</asrwt>
<pdfrwt beam="1">  1       21 0.18407427E-01 0.66685047E+03</pdfrwt>
<pdfrwt beam="2">0</pdfrwt>
<totfact> 0.26281364E+03</totfact>
</mgrwt>
</event>
<event>
 6    1  0.1364923E-004  0.6622820E+03  0.7818608E-02  0.9784002E-01
         21   -1    0    0  501  502  0.00000000000E+00  0.00000000000E+00  0.12528514406E+03  0.12528514406E+03  0.00000000000E+00 0.  1.
         13   -1    0    0    0    0 -0.00000000000E+00 -0.00000000000E+00 -0.10000000000E+04  0.10000000000E+04  0.00000000000E+00 0.  1.
    9000005    2    1    2  501    0 -0.40684021870E+02 -0.20513808442E+02 -0.82215573864E+03  0.10557260556E+04  0.66071282716E+03 0.  0.
         13    1    3    3    0    0  0.12546297157E+03  0.16963898618E+03 -0.76934026091E+03  0.79774856937E+03  0.00000000000E+00 0.  1.
          3    1    3    3  501    0 -0.16614699344E+03 -0.19015279462E+03 -0.52815477731E+02  0.25797748626E+03  0.00000000000E+00 0.  1.
         -1    1    1    2    0  502  0.40684021870E+02  0.20513808442E+02 -0.52559117295E+02  0.69559088429E+02  0.00000000000E+00 0. -1.
<mgrwt>
<rscale>  1 0.66228200E+03</rscale>
<asrwt>0</asrwt>
<pdfrwt beam="1">  1       21 0.19274637E-01 0.66228200E+03</pdfrwt>
<pdfrwt beam="2">0</pdfrwt>
<totfact> 0.24076209E+03</totfact>
</mgrwt>
</event>
<event>
 6    1  0.1364923E-004  0.6492453E+03  0.7818608E-02  0.9808196E-01
         21   -1    0    0  501  502  0.00000000000E+00  0.00000000000E+00  0.18740356739E+03  0.18740356739E+03  0.00000000000E+00 0.  1.
         13   -1    0    0    0    0 -0.00000000000E+00 -0.00000000000E+00 -0.10000000000E+04  0.10000000000E+04  0.00000000000E+00 0.  1.
    9000005    2    1    2  501    0  0.45749446896E+01  0.29527803952E+02 -0.89160074046E+03  0.11029375862E+04  0.64855733537E+03 0.  0.
         13    1    3    3    0    0 -0.16211480615E+03 -0.26372414927E+03 -0.47377334770E+03  0.56594418653E+03  0.00000000000E+00 0.  1.
          3    1    3    3  501    0  0.16668975084E+03  0.29325195323E+03 -0.41782739277E+03  0.53699339963E+03  0.00000000000E+00 0.  1.
         -3    1    1    2    0  502 -0.45749446896E+01 -0.29527803952E+02  0.79004307850E+02  0.84465981224E+02  0.00000000000E+00 0. -1.
<mgrwt>
<rscale>  1 0.64924528E+03</rscale>
<asrwt>0</asrwt>
<pdfrwt beam="1">  1       21 0.28831317E-01 0.64924528E+03</pdfrwt>
<pdfrwt beam="2">0</pdfrwt>
<totfact> 0.10986668E+03</totfact>
</mgrwt>
</event>
<event>
 6    1  0.1364923E-004  0.6505719E+03  0.7818608E-02  0.9805707E-01
         21   -1    0    0  501  502  0.00000000000E+00  0.00000000000E+00  0.23580705354E+03  0.23580705354E+03  0.00000000000E+00 0. -1.
         13   -1    0    0    0    0 -0.00000000000E+00 -0.00000000000E+00 -0.10000000000E+04  0.10000000000E+04  0.00000000000E+00 0.  1.
    9000005    2    1    2  501    0 -0.27795437438E+02  0.11220864592E+02 -0.89227528482E+03  0.11042639825E+04  0.64988096213E+03 0.  0.
         13    1    3    3    0    0 -0.33902931455E+03  0.27262046280E+01 -0.47816215208E+03  0.58616324689E+03  0.00000000000E+00 0.  1.
          3    1    3    3  501    0  0.31123387711E+03  0.84946599645E+01 -0.41411313274E+03  0.51810073559E+03  0.00000000000E+00 0.  1.
         -3    1    1    2    0  502  0.27795437438E+02 -0.11220864592E+02  0.12808233836E+03  0.13154307106E+03  0.00000000000E+00 0. -1.
<mgrwt>
<rscale>  1 0.65057187E+03</rscale>
<asrwt>0</asrwt>
<pdfrwt beam="1">  1       21 0.36278007E-01 0.65057187E+03</pdfrwt>
<pdfrwt beam="2">0</pdfrwt>
<totfact> 0.69069052E+02</totfact>
</mgrwt>
</event>
<event>
 6    1  0.1364923E-004  0.6659334E+03  0.7818608E-02  0.9777332E-01
         21   -1    0    0  501  502  0.00000000000E+00  0.00000000000E+00  0.15590265399E+03  0.15590265399E+03  0.00000000000E+00 0.  1.
         13   -1    0    0    0    0 -0.00000000000E+00 -0.00000000000E+00 -0.10000000000E+04  0.10000000000E+04  0.00000000000E+00 0.  1.
    9000005    2    1    2  501    0  0.89697398344E+02  0.49270336409E+01 -0.83133334011E+03  0.10651677722E+04  0.65984646819E+03 0.  0.
         13    1    3    3    0    0  0.24464632400E+03  0.10154125626E+02 -0.27358262066E+02  0.24638060925E+03  0.00000000000E+00 0.  1.
          1    1    3    3  501    0 -0.15494892565E+03 -0.52270919848E+01 -0.80397507804E+03  0.81878716292E+03  0.00000000000E+00 0.  1.
         -1    1    1    2    0  502 -0.89697398344E+02 -0.49270336409E+01 -0.12764005908E+02  0.90734881810E+02  0.00000000000E+00 0. -1.
<mgrwt>
<rscale>  1 0.66593338E+03</rscale>
<asrwt>0</asrwt>
<pdfrwt beam="1">  1       21 0.23985023E-01 0.66593338E+03</pdfrwt>
<pdfrwt beam="2">0</pdfrwt>
<totfact> 0.15779082E+03</totfact>
</mgrwt>
</event>
<event>
 6    1  0.1364923E-004  0.6701571E+03  0.7818608E-02  0.9769674E-01
         21   -1    0    0  501  502  0.00000000000E+00  0.00000000000E+00  0.49596645567E+03  0.49596645567E+03  0.00000000000E+00 0. -1.
         13   -1    0    0    0    0 -0.00000000000E+00 -0.00000000000E+00 -0.10000000000E+04  0.10000000000E+04  0.00000000000E+00 0.  1.
    9000005    2    1    2  501    0 -0.10656373356E+03 -0.24719901343E+02 -0.87902268820E+03  0.11053467418E+04  0.66116838281E+03 0.  0.
         13    1    3    3    0    0 -0.33490889298E+03 -0.19562640592E+02 -0.20378106832E+03  0.39252183036E+03  0.00000000000E+00 0.  1.
          1    1    3    3  501    0  0.22834515942E+03 -0.51572607518E+01 -0.67524161988E+03  0.71282491146E+03  0.00000000000E+00 0.  1.
         -3    1    1    2    0  502  0.10656373356E+03  0.24719901343E+02  0.37498914387E+03  0.39061971385E+03  0.00000000000E+00 0. -1.
<mgrwt>
<rscale>  1 0.67015710E+03</rscale>
<asrwt>0</asrwt>
<pdfrwt beam="1">  1       21 0.76302529E-01 0.67015710E+03</pdfrwt>
<pdfrwt beam="2">0</pdfrwt>
<totfact> 0.13754543E+02</totfact>
</mgrwt>
</event>
<event>
 6    1  0.1364923E-004  0.6538526E+03  0.7818608E-02  0.9799577E-01
         21   -1    0    0  501  502  0.00000000000E+00  0.00000000000E+00  0.12422962020E+03  0.12422962020E+03  0.00000000000E+00 0.  1.
         13   -1    0    0    0    0 -0.00000000000E+00 -0.00000000000E+00 -0.10000000000E+04  0.10000000000E+04  0.00000000000E+00 0.  1.
    9000005    2    1    2  501    0 -0.19479125562E+02 -0.37915989516E+02 -0.85623333758E+03  0.10773387404E+04  0.65246162684E+03 0.  0.
         13    1    3    3    0    0 -0.11368829386E+03  0.28514458373E+03 -0.31365360455E+03  0.43887474915E+03  0.00000000000E+00 0.  1.
          3    1    3    3  501    0  0.94209168293E+02 -0.32306057325E+03 -0.54257973303E+03  0.63846399121E+03  0.00000000000E+00 0.  1.
         -1    1    1    2    0  502  0.19479125562E+02  0.37915989516E+02 -0.19537042215E+02  0.46890879840E+02  0.00000000000E+00 0. -1.
<mgrwt>
<rscale>  1 0.65385261E+03</rscale>
<asrwt>0</asrwt>
<pdfrwt beam="1">  1       21 0.19112249E-01 0.65385261E+03</pdfrwt>
<pdfrwt beam="2">0</pdfrwt>
<totfact> 0.24476095E+03</totfact>
</mgrwt>
</event>
<event>
 6    1  0.1364923E-004  0.6417689E+03  0.7818608E-02  0.9822348E-01
         21   -1    0    0  501  502  0.00000000000E+00  0.00000000000E+00  0.43643028098E+03  0.43643028098E+03  0.00000000000E+00 0. -1.
         13   -1    0    0    0    0 -0.00000000000E+00 -0.00000000000E+00 -0.10000000000E+04  0.10000000000E+04  0.00000000000E+00 0.  1.
    9000005    2    1    2  501    0 -0.19847608613E+02 -0.11362492231E+02 -0.89660059246E+03  0.11026150679E+04  0.64136131145E+03 0.  0.
         13    1    3    3    0    0 -0.11762831451E+03  0.19381472143E+03 -0.83767761200E+03  0.86781584928E+03  0.00000000000E+00 0.  1.
          1    1    3    3  501    0  0.97780705892E+02 -0.20517721366E+03 -0.58922980460E+02  0.23479921865E+03  0.00000000000E+00 0.  1.
         -1    1    1    2    0  502  0.19847608613E+02  0.11362492231E+02  0.33303087344E+03  0.33381521305E+03  0.00000000000E+00 0. -1.
<mgrwt>
<rscale>  1 0.64176893E+03</rscale>
<asrwt>0</asrwt>
<pdfrwt beam="1">  1       21 0.67143118E-01 0.64176893E+03</pdfrwt>
<pdfrwt beam="2">0</pdfrwt>
<totfact> 0.18475705E+02</totfact>
</mgrwt>
</event>
<event>
 6    1  0.1364923E-004  0.6276135E+03  0.7818608E-02  0.9849717E-01
         21   -1    0    0  501  502  0.00000000000E+00  0.00000000000E+00  0.38833672748E+03  0.38833672748E+03  0.00000000000E+00 0. -1.
         13   -1    0    0    0    0 -0.00000000000E+00 -0.00000000000E+00 -0.10000000000E+04  0.10000000000E+04  0.00000000000E+00 0.  1.
    9000005    2    1    2  501    0  0.28005264705E+02 -0.43805309221E+02 -0.89896169112E+03  0.10963716931E+04  0.62545628733E+03 0.  0.
         13    1    3    3    0    0  0.32214545758E+03 -0.63499529607E+02 -0.53855463091E+03  0.63075429176E+03  0.00000000000E+00 0.  1.
          3    1    3    3  501    0 -0.29414019288E+03  0.19694220386E+02 -0.36040706022E+03  0.46561740135E+03  0.00000000000E+00 0.  1.
         -3    1    1    2    0  502 -0.28005264705E+02  0.43805309221E+02  0.28729841860E+03  0.29196503438E+03  0.00000000000E+00 0. -1.
<mgrwt>
<rscale>  1 0.62761355E+03</rscale>
<asrwt>0</asrwt>
<pdfrwt beam="1">  1       21 0.59744110E-01 0.62761355E+03</pdfrwt>
<pdfrwt beam="2">0</pdfrwt>
<totfact> 0.24007382E+02</totfact>
</mgrwt>
</event>
<event>
 6    1  0.1364923E-004  0.6825404E+03  0.7818608E-02  0.9747565E-01
         21   -1    0    0  501  502  0.00000000000E+00  0.00000000000E+00  0.35714096464E+03  0.35714096464E+03  0.00000000000E+00 0. -1.
         13   -1    0    0    0    0 -0.00000000000E+00 -0.00000000000E+00 -0.10000000000E+04  0.10000000000E+04  0.00000000000E+00 0.  1.
    9000005    2    1    2  501    0 -0.17241087351E+03 -0.17080867361E+02 -0.84804224960E+03  0.10885941033E+04  0.66018497354E+03 0.  0.
         13    1    3    3    0    0 -0.21209153981E+03  0.21757850243E+03 -0.12705329352E+03  0.32934141157E+03  0.00000000000E+00 0.  1.
          1    1    3    3  501    0  0.39680666297E+02 -0.23465936980E+03 -0.72098895607E+03  0.75925269173E+03  0.00000000000E+00 0.  1.
         -3    1    1    2    0  502  0.17241087351E+03  0.17080867361E+02  0.20518321424E+03  0.26854686135E+03  0.00000000000E+00 0. -1.
<mgrwt>
<rscale>  1 0.68254045E+03</rscale>
<asrwt>0</asrwt>
<pdfrwt beam="1">  1       21 0.54944762E-01 0.68254045E+03</pdfrwt>
<pdfrwt beam="2">0</pdfrwt>
<totfact> 0.28679471E+02</totfact>
</mgrwt>
</event>
<event>
 6    1  0.1364923E-004  0.6625224E+03  0.7818608E-02  0.9783561E-01
         21   -1    0    0  501  502  0.00000000000E+00  0.00000000000E+00  0.14720291105E+03  0.14720291105E+03  0.00000000000E+00 0.  1.
         13   -1    0    0    0    0 -0.00000000000E+00 -0.00000000000E+00 -0.10000000000E+04  0.10000000000E+04  0.00000000000E+00 0.  1.
    9000005    2    1    2  501    0  0.92988695960E+02 -0.48109585354E+02 -0.72931794092E+03  0.98531242406E+03  0.65419758809E+03 0.  0.
         13    1    3    3    0    0  0.40169114221E+02 -0.25890413672E+03 -0.43119892115E+02  0.26552633550E+03  0.00000000000E+00 0.  1.
          1    1    3    3  501    0  0.52819581739E+02  0.21079455136E+03 -0.68619804881E+03  0.71978608856E+03  0.00000000000E+00 0.  1.
         -1    1    1    2    0  502 -0.92988695960E+02  0.48109585354E+02 -0.12347914803E+03  0.16189048699E+03  0.00000000000E+00 0. -1.
<mgrwt>
<rscale>  1 0.66252239E+03</rscale>
<asrwt>0</asrwt>
<pdfrwt beam="1">  1       21 0.22646601E-01 0.66252239E+03</pdfrwt>
<pdfrwt beam="2">0</pdfrwt>
<totfact> 0.17648428E+03</totfact>
</mgrwt>
</event>
<event>
 6    1  0.1364923E-004  0.6499148E+03  0.7818608E-02  0.9806939E-01
         21   -1    0    0  501  502  0.00000000000E+00  0.00000000000E+00  0.23482304505E+03  0.23482304505E+03  0.00000000000E+00 0. -1.
         13   -1    0    0    0    0 -0.00000000000E+00 -0.00000000000E+00 -0.10000000000E+04  0.10000000000E+04  0.00000000000E+00 0.  1.
    9000005    2    1    2  501    0  0.42210112608E+02  0.91512162484E+02 -0.87226870585E+03  0.10877692705E+04  0.64205383046E+03 0.  0.
         13    1    3    3    0    0  0.11999813767E+03 -0.24205118556E+03 -0.21003549109E+03  0.34220350231E+03  0.00000000000E+00 0.  1.
          1    1    3    3  501    0 -0.77788025060E+02  0.33356334804E+03 -0.66223321477E+03  0.74556576822E+03  0.00000000000E+00 0.  1.
         -1    1    1    2    0  502 -0.42210112608E+02 -0.91512162484E+02  0.10709175090E+03  0.14705377452E+03  0.00000000000E+00 0. -1.
<mgrwt>
<rscale>  1 0.64991483E+03</rscale>
<asrwt>0</asrwt>
<pdfrwt beam="1">  1       21 0.36126621E-01 0.64991483E+03</pdfrwt>
<pdfrwt beam="2">0</pdfrwt>
<totfact> 0.69666420E+02</totfact>
</mgrwt>
</event>
<event>
 6    1  0.1364923E-004  0.6483020E+03  0.7818608E-02  0.9809971E-01
         21   -1    0    0  501  502  0.00000000000E+00  0.00000000000E+00  0.13519464659E+03  0.13519464659E+03  0.00000000000E+00 0.  1.
         13   -1    0    0    0    0 -0.00000000000E+00 -0.00000000000E+00 -0.10000000000E+04  0.10000000000E+04  0.00000000000E+00 0.  1.
    9000005    2    1    2  501    0  0.70569423845E+02 -0.45136763218E+02 -0.79730218747E+03  0.10276118952E+04  0.64286706100E+03 0.  0.
         13    1    3    3    0    0 -0.97096303354E+02  0.17846174486E+03 -0.70437448704E+03  0.73308915181E+03  0.00000000000E+00 0.  1.
          1    1    3    3  501    0  0.16766572720E+03 -0.22359850808E+03 -0.92927700426E+02  0.29452274343E+03  0.00000000000E+00 0.  1.
         -1    1    1    2    0  502 -0.70569423845E+02  0.45136763218E+02 -0.67503165946E+02  0.10758275135E+03  0.00000000000E+00 0. -1.
<mgrwt>
<rscale>  1 0.64830196E+03</rscale>
<asrwt>0</asrwt>
<pdfrwt beam="1">  1       21 0.20799176E-01 0.64830196E+03</pdfrwt>
<pdfrwt beam="2">0</pdfrwt>
<totfact> 0.20816687E+03</totfact>
</mgrwt>
</event>
<event>
 6    1  0.1364923E-004  0.6631605E+03  0.7818608E-02  0.9782393E-01
         21   -1    0    0  501  502  0.00000000000E+00  0.00000000000E+00  0.18146101345E+03  0.18146101345E+03  0.00000000000E+00 0. -1.
         13   -1    0    0    0    0 -0.00000000000E+00 -0.00000000000E+00 -0.10000000000E+04  0.10000000000E+04  0.00000000000E+00 0.  1.
    9000005    2    1    2  501    0 -0.11516142717E+03  0.23727761897E+02 -0.83105214832E+03  0.10632166047E+04  0.65265359434E+03 0.  0.
         13    1    3    3    0    0 -0.23021750560E+03 -0.26574793610E+03 -0.44768269611E+03  0.56924674950E+03  0.00000000000E+00 0.  1.
          1    1    3    3  501    0  0.11505607843E+03  0.28947569800E+03 -0.38336945221E+03  0.49396985516E+03  0.00000000000E+00 0.  1.
         -3    1    1    2    0  502  0.11516142717E+03 -0.23727761897E+02  0.12513161769E+02  0.11824440879E+03  0.00000000000E+00 0. -1.
<mgrwt>
<rscale>  1 0.66316052E+03</rscale>
<asrwt>0</asrwt>
<pdfrwt beam="1">  1       21 0.27917078E-01 0.66316052E+03</pdfrwt>
<pdfrwt beam="2">0</pdfrwt>
<totfact> 0.11704488E+03</totfact>
</mgrwt>
</event>
<event>
 6    1  0.1364923E-004  0.6569178E+03  0.7818608E-02  0.9793884E-01
         21   -1    0    0  501  502  0.00000000000E+00  0.00000000000E+00  0.13518984928E+03  0.13518984928E+03  0.00000000000E+00 0.  1.
         13   -1    0    0    0    0 -0.00000000000E+00 -0.00000000000E+00 -0.10000000000E+04  0.10000000000E+04  0.00000000000E+00 0.  1.
    9000005    2    1    2  501    0 -0.27084506507E+02 -0.20704510289E+01 -0.88441206460E+03  0.11016922033E+04  0.65635596552E+03 0.  0.
         13    1    3    3    0    0 -0.31803422467E+03 -0.11663880288E+03 -0.53051491391E+03  0.62944138113E+03  0.00000000000E+00 0.  1.
          1    1    3    3  501    0  0.29094971816E+03  0.11456835185E+03 -0.35389715069E+03  0.47225082214E+03  0.00000000000E+00 0.  1.
         -1    1    1    2    0  502  0.27084506507E+02  0.20704510289E+01  0.19601913877E+02  0.33497646005E+02  0.00000000000E+00 0. -1.
<mgrwt>
<rscale>  1 0.65691781E+03</rscale>
<asrwt>0</asrwt>
<pdfrwt beam="1">  1       21 0.20798438E-01 0.65691781E+03</pdfrwt>
<pdfrwt beam="2">0</pdfrwt>
<totfact> 0.20810706E+03</totfact>
</mgrwt>
</event>
<event>
 6    1  0.1364923E-004  0.5701324E+03  0.7818608E-02  0.9969386E-01
         21   -1    0    0  501  502  0.00000000000E+00  0.00000000000E+00  0.10286961674E+03  0.10286961674E+03  0.00000000000E+00 0.  1.
         13   -1    0    0    0    0 -0.00000000000E+00 -0.00000000000E+00 -0.10000000000E+04  0.10000000000E+04  0.00000000000E+00 0.  1.
    9000005    2    1    2  501    0 -0.29586002783E+02  0.12778550573E+02 -0.90507393214E+03  0.10696774055E+04  0.56922078877E+03 0.  0.
         13    1    3    3    0    0 -0.30703048985E+02 -0.27525651445E+03 -0.37224287986E+03  0.46397584805E+03  0.00000000000E+00 0.  1.
          3    1    3    3  501    0  0.11170462011E+01  0.28803506502E+03 -0.53283105228E+03  0.60570155749E+03  0.00000000000E+00 0.  1.
         -1    1    1    2    0  502  0.29586002783E+02 -0.12778550573E+02  0.79435488815E+01  0.33192211199E+02  0.00000000000E+00 0. -1.
<mgrwt>
<rscale>  1 0.57013238E+03</rscale>
<asrwt>0</asrwt>
<pdfrwt beam="1">  1       21 0.15826094E-01 0.57013238E+03</pdfrwt>
<pdfrwt beam="2">0</pdfrwt>
<totfact> 0.35058670E+03</totfact>
</mgrwt>
</event>
<event>
 6    1  0.1364923E-004  0.6737717E+03  0.7818608E-02  0.9763168E-01
         21   -1    0    0  501  502  0.00000000000E+00  0.00000000000E+00  0.38235048762E+03  0.38235048762E+03  0.00000000000E+00 0. -1.
         13   -1    0    0    0    0 -0.00000000000E+00 -0.00000000000E+00 -0.10000000000E+04  0.10000000000E+04  0.00000000000E+00 0.  1.
    9000005    2    1    2  501    0 -0.11746857382E+02  0.21033133120E+03 -0.83948346484E+03  0.10764296482E+04  0.63999300167E+03 0.  0.
         13    1    3    3    0    0 -0.14614848682E+03  0.39907975593E+03 -0.42180910519E+03  0.59878790320E+03  0.00000000000E+00 0.  1.
          1    1    3    3  501    0  0.13440162944E+03 -0.18874842473E+03 -0.41767435965E+03  0.47764174498E+03  0.00000000000E+00 0.  1.
         -1    1    1    2    0  502  0.11746857382E+02 -0.21033133120E+03  0.22183395246E+03  0.30592083944E+03  0.00000000000E+00 0. -1.
<mgrwt>
<rscale>  1 0.67377170E+03</rscale>
<asrwt>0</asrwt>
<pdfrwt beam="1">  1       21 0.58823150E-01 0.67377170E+03</pdfrwt>
<pdfrwt beam="2">0</pdfrwt>
<totfact> 0.24721268E+02</totfact>
</mgrwt>
</event>
<event>
 6    1  0.1364923E-004  0.6362932E+03  0.7818608E-02  0.9832845E-01
         21   -1    0    0  501  502  0.00000000000E+00  0.00000000000E+00  0.14586173760E+03  0.14586173760E+03  0.00000000000E+00 0.  1.
         13   -1    0    0    0    0 -0.00000000000E+00 -0.00000000000E+00 -0.10000000000E+04  0.10000000000E+04  0.00000000000E+00 0.  1.
    9000005    2    1    2  501    0  0.47713851518E+01 -0.22059424408E+02 -0.89562011275E+03  0.10986375041E+04  0.63589275409E+03 0.  0.
         13    1    3    3    0    0 -0.75850793375E+02  0.11582739629E+03 -0.92579040153E+03  0.93608610509E+03  0.00000000000E+00 0.  1.
          1    1    3    3  501    0  0.80622178527E+02 -0.13788682070E+03  0.30170288770E+02  0.16255139900E+03  0.00000000000E+00 0.  1.
         -1    1    1    2    0  502 -0.47713851518E+01  0.22059424408E+02  0.41481850357E+02  0.47224233509E+02  0.00000000000E+00 0. -1.
<mgrwt>
<rscale>  1 0.63629315E+03</rscale>
<asrwt>0</asrwt>
<pdfrwt beam="1">  1       21 0.22440267E-01 0.63629315E+03</pdfrwt>
<pdfrwt beam="2">0</pdfrwt>
<totfact> 0.17986309E+03</totfact>
</mgrwt>
</event>
<event>
 6    1  0.1364923E-004  0.6511980E+03  0.7818608E-02  0.9804534E-01
         21   -1    0    0  501  502  0.00000000000E+00  0.00000000000E+00  0.54956228080E+03  0.54956228080E+03  0.00000000000E+00 0. -1.
         13   -1    0    0    0    0 -0.00000000000E+00 -0.00000000000E+00 -0.10000000000E+04  0.10000000000E+04  0.00000000000E+00 0.  1.
    9000005    2    1    2  501    0 -0.55080416513E+02 -0.11667662774E+03 -0.88357445058E+03  0.10976168020E+04  0.63828798089E+03 0.  0.
         13    1    3    3    0    0 -0.16977621766E+03  0.68469463865E+02 -0.85917430084E+03  0.87846030689E+03  0.00000000000E+00 0.  1.
          1    1    3    3  501    0  0.11469580115E+03 -0.18514609160E+03 -0.24400149743E+02  0.21915649510E+03  0.00000000000E+00 0.  1.
         -1    1    1    2    0  502  0.55080416513E+02  0.11667662774E+03  0.43313673138E+03  0.45194547881E+03  0.00000000000E+00 0. -1.
<mgrwt>
<rscale>  1 0.65119800E+03</rscale>
<asrwt>0</asrwt>
<pdfrwt beam="1">  1       21 0.84548041E-01 0.65119800E+03</pdfrwt>
<pdfrwt beam="2">0</pdfrwt>
<totfact> 0.10852326E+02</totfact>
</mgrwt>
</event>
<event>
 6    1  0.1364923E-004  0.6531043E+03  0.7818608E-02  0.9800971E-01
         21   -1    0    0  501  502  0.00000000000E+00  0.00000000000E+00  0.15157403936E+03  0.15157403936E+03  0.00000000000E+00 0.  1.
         13   -1    0    0    0    0 -0.00000000000E+00 -0.00000000000E+00 -0.10000000000E+04  0.10000000000E+04  0.00000000000E+00 0.  1.
    9000005    2    1    2  501    0  0.48184077571E+01  0.35211292824E+02 -0.88544703584E+03  0.11002553078E+04  0.65213667046E+03 0.  0.
         13    1    3    3    0    0 -0.10455194538E+03  0.12742061082E+03  0.35215978911E+02  0.16854461283E+03  0.00000000000E+00 0.  1.
          3    1    3    3  501    0  0.10937035314E+03 -0.92209317993E+02 -0.92066301475E+03  0.93171069501E+03  0.00000000000E+00 0.  1.
         -3    1    1    2    0  502 -0.48184077571E+01 -0.35211292824E+02  0.37021075196E+02  0.51318731515E+02  0.00000000000E+00 0. -1.
<mgrwt>
<rscale>  1 0.65310435E+03</rscale>
<asrwt>0</asrwt>
<pdfrwt beam="1">  1       21 0.23319082E-01 0.65310435E+03</pdfrwt>
<pdfrwt beam="2">0</pdfrwt>
<totfact> 0.16679843E+03</totfact>
</mgrwt>
</event>
<event>
 6    1  0.1364923E-004  0.6637322E+03  0.7818608E-02  0.9781347E-01
         21   -1    0    0  501  502  0.00000000000E+00  0.00000000000E+00  0.21714939132E+03  0.21714939132E+03  0.00000000000E+00 0.  1.
         13   -1    0    0    0    0 -0.00000000000E+00 -0.00000000000E+00 -0.10000000000E+04  0.10000000000E+04  0.00000000000E+00 0.  1.
    9000005    2    1    2  501    0  0.31388178163E+02  0.17830713149E+02 -0.88647354051E+03  0.11074185203E+04  0.66274979362E+03 0.  0.
         13    1    3    3    0    0 -0.16913813295E+02 -0.30991644118E+03 -0.57125798099E+03  0.65013072411E+03  0.00000000000E+00 0.  1.
          1    1    3    3  501    0  0.48301991458E+02  0.32774715433E+03 -0.31521555953E+03  0.45728779616E+03  0.00000000000E+00 0.  1.
         -1    1    1    2    0  502 -0.31388178163E+02 -0.17830713149E+02  0.10362293183E+03  0.10973087105E+03  0.00000000000E+00 0. -1.
<mgrwt>
<rscale>  1 0.66373221E+03</rscale>
<asrwt>0</asrwt>
<pdfrwt beam="1">  1       21 0.33407598E-01 0.66373221E+03</pdfrwt>
<pdfrwt beam="2">0</pdfrwt>
<totfact> 0.81627962E+02</totfact>
</mgrwt>
</event>
<event>
 6    1  0.1364923E-004  0.6777542E+03  0.7818608E-02  0.9756050E-01
         21   -1    0    0  501  502  0.00000000000E+00  0.00000000000E+00  0.22512837868E+03  0.22512837868E+03  0.00000000000E+00 0.  1.
         13   -1    0    0    0    0 -0.00000000000E+00 -0.00000000000E+00 -0.10000000000E+04  0.10000000000E+04  0.00000000000E+00 0.  1.
    9000005    2    1    2  501    0  0.16718633475E+03 -0.89403470472E+02 -0.78272168461E+03  0.10353762389E+04  0.65069691060E+03 0.  0.
         13    1    3    3    0    0  0.22117863116E+03  0.17841085210E+03 -0.10206995702E+03  0.30194154261E+03  0.00000000000E+00 0.  1.
          3    1    3    3  501    0 -0.53992296411E+02 -0.26781432257E+03 -0.68065172759E+03  0.73343469629E+03  0.00000000000E+00 0.  1.
         -3    1    1    2    0  502 -0.16718633475E+03  0.89403470472E+02  0.78500632939E+01  0.18975213979E+03  0.00000000000E+00 0. -1.
<mgrwt>
<rscale>  1 0.67775417E+03</rscale>
<asrwt>0</asrwt>
<pdfrwt beam="1">  1       21 0.34635134E-01 0.67775417E+03</pdfrwt>
<pdfrwt beam="2">0</pdfrwt>
<totfact> 0.75780592E+02</totfact>
</mgrwt>
</event>
<event>
 6    1  0.1364923E-004  0.7562161E+03  0.7818608E-02  0.9625648E-01
         21   -1    0    0  501  502  0.00000000000E+00  0.00000000000E+00  0.38846144825E+03  0.38846144825E+03  0.00000000000E+00 0. -1.
         13   -1    0    0    0    0 -0.00000000000E+00 -0.00000000000E+00 -0.10000000000E+04  0.10000000000E+04  0.00000000000E+00 0.  1.
    9000005    2    1    2  501    0 -0.37639454132E+03  0.10998070557E+03 -0.64632809376E+03  0.99478782890E+03  0.64660205183E+03 0.  0.
         13    1    3    3    0    0 -0.52164527053E+03  0.74395153974E+02 -0.66008875707E+03  0.84460972906E+03  0.00000000000E+00 0.  1.
          3    1    3    3  501    0  0.14525072921E+03  0.35585551599E+02  0.13760663317E+02  0.15017809985E+03  0.00000000000E+00 0.  1.
         -3    1    1    2    0  502  0.37639454132E+03 -0.10998070557E+03  0.34789542002E+02  0.39367361934E+03  0.00000000000E+00 0. -1.
<mgrwt>
<rscale>  1 0.75621612E+03</rscale>
<asrwt>0</asrwt>
<pdfrwt beam="1">  1       21 0.59763298E-01 0.75621612E+03</pdfrwt>
<pdfrwt beam="2">0</pdfrwt>
<totfact> 0.23679204E+02</totfact>
</mgrwt>
</event>
<event>
 6    1  0.1364923E-004  0.1004556E+04  0.7818608E-02  0.9303562E-01
         21   -1    0    0  501  502  0.00000000000E+00  0.00000000000E+00  0.95018511747E+03  0.95018511747E+03  0.00000000000E+00 0. -1.
         13   -1    0    0    0    0 -0.00000000000E+00 -0.00000000000E+00 -0.10000000000E+04  0.10000000000E+04  0.00000000000E+00 0.  1.
    9000005    2    1    2  501    0 -0.28242827867E+03 -0.70743131992E+03 -0.43724994085E+03  0.10955912201E+04  0.65491053267E+03 0.  0.
         13    1    3    3    0    0 -0.49484829917E+03 -0.53430475473E+03 -0.28446074009E+03  0.78184034353E+03  0.00000000000E+00 0.  1.
          1    1    3    3  501    0  0.21242002050E+03 -0.17312656519E+03 -0.15278920077E+03  0.31375087658E+03  0.00000000000E+00 0.  1.
         -1    1    1    2    0  502  0.28242827867E+03  0.70743131992E+03  0.38743505833E+03  0.85459389737E+03  0.00000000000E+00 0. -1.
<mgrwt>
<rscale>  1 0.10045559E+04</rscale>
<asrwt>0</asrwt>
<pdfrwt beam="1">  1       21 0.14618232E+00 0.10045559E+04</pdfrwt>
<pdfrwt beam="2">0</pdfrwt>
<totfact> 0.25838938E+01</totfact>
</mgrwt>
</event>
<event>
 6    1  0.1364923E-004  0.6516905E+03  0.7818608E-02  0.9803612E-01
         21   -1    0    0  501  502  0.00000000000E+00  0.00000000000E+00  0.14820094219E+03  0.14820094219E+03  0.00000000000E+00 0.  1.
         13   -1    0    0    0    0 -0.00000000000E+00 -0.00000000000E+00 -0.10000000000E+04  0.10000000000E+04  0.00000000000E+00 0.  1.
    9000005    2    1    2  501    0 -0.23372731137E+02  0.33108659222E+02 -0.88272229180E+03  0.10972233562E+04  0.65042907454E+03 0.  0.
         13    1    3    3    0    0  0.68668033395E+02  0.91642693229E+02  0.72668605134E+02  0.13562598647E+03  0.00000000000E+00 0.  1.
          1    1    3    3  501    0 -0.92040764532E+02 -0.58534034007E+02 -0.95539089693E+03  0.96159736970E+03  0.00000000000E+00 0.  1.
         -1    1    1    2    0  502  0.23372731137E+02 -0.33108659222E+02  0.30923233994E+02  0.50977586025E+02  0.00000000000E+00 0. -1.
<mgrwt>
<rscale>  1 0.65169045E+03</rscale>
<asrwt>0</asrwt>
<pdfrwt beam="1">  1       21 0.22800144E-01 0.65169045E+03</pdfrwt>
<pdfrwt beam="2">0</pdfrwt>
<totfact> 0.17427072E+03</totfact>
</mgrwt>
</event>
<event>
 6    1  0.1364923E-004  0.6493806E+03  0.7818608E-02  0.9807942E-01
         21   -1    0    0  501  502  0.00000000000E+00  0.00000000000E+00  0.13710075905E+03  0.13710075905E+03  0.00000000000E+00 0.  1.
         13   -1    0    0    0    0 -0.00000000000E+00 -0.00000000000E+00 -0.10000000000E+04  0.10000000000E+04  0.00000000000E+00 0.  1.
    9000005    2    1    2  501    0 -0.80050932552E+02  0.40980134594E+02 -0.77832117922E+03  0.10136464284E+04  0.64312339447E+03 0.  0.
         13    1    3    3    0    0  0.38526534311E+02 -0.29250970214E+03 -0.37161666126E+03  0.47449463919E+03  0.00000000000E+00 0.  1.
          3    1    3    3  501    0 -0.11857746686E+03  0.33348983674E+03 -0.40670451796E+03  0.53915178919E+03  0.00000000000E+00 0.  1.
         -1    1    1    2    0  502  0.80050932552E+02 -0.40980134594E+02 -0.84578061737E+02  0.12345433067E+03  0.00000000000E+00 0. -1.
<mgrwt>
<rscale>  1 0.64938065E+03</rscale>
<asrwt>0</asrwt>
<pdfrwt beam="1">  1       21 0.21092424E-01 0.64938065E+03</pdfrwt>
<pdfrwt beam="2">0</pdfrwt>
<totfact> 0.20261958E+03</totfact>
</mgrwt>
</event>
<event>
 6    1  0.1364923E-004  0.6475362E+03  0.7818608E-02  0.9811413E-01
         21   -1    0    0  501  502  0.00000000000E+00  0.00000000000E+00  0.19226045214E+03  0.19226045214E+03  0.00000000000E+00 0.  1.
         13   -1    0    0    0    0 -0.00000000000E+00 -0.00000000000E+00 -0.10000000000E+04  0.10000000000E+04  0.00000000000E+00 0.  1.
    9000005    2    1    2  501    0 -0.55878391100E+00  0.22137072262E+02 -0.89362234167E+03  0.11035687587E+04  0.64715744106E+03 0.  0.
         13    1    3    3    0    0  0.22187030420E+03  0.24149435425E+03 -0.37540572556E+03  0.49847308233E+03  0.00000000000E+00 0.  1.
          1    1    3    3  501    0 -0.22242908811E+03 -0.21935728199E+03 -0.51821661610E+03  0.60509567640E+03  0.00000000000E+00 0.  1.
         -3    1    1    2    0  502  0.55878391100E+00 -0.22137072262E+02  0.85882793804E+02  0.88691693407E+02  0.00000000000E+00 0. -1.
<mgrwt>
<rscale>  1 0.64753619E+03</rscale>
<asrwt>0</asrwt>
<pdfrwt beam="1">  1       21 0.29578530E-01 0.64753619E+03</pdfrwt>
<pdfrwt beam="2">0</pdfrwt>
<totfact> 0.10440848E+03</totfact>
</mgrwt>
</event>
<event>
 6    1  0.1364923E-004  0.6732187E+03  0.7818608E-02  0.9764161E-01
         21   -1    0    0  501  502  0.00000000000E+00  0.00000000000E+00  0.31554763245E+03  0.31554763245E+03  0.00000000000E+00 0.  1.
         13   -1    0    0    0    0 -0.00000000000E+00 -0.00000000000E+00 -0.10000000000E+04  0.10000000000E+04  0.00000000000E+00 0.  1.
    9000005    2    1    2  501    0 -0.12158605549E+03 -0.32263069159E+02 -0.86462261868E+03  0.10958082552E+04  0.66136176555E+03 0.  0.
         13    1    3    3    0    0 -0.19299053682E+03  0.17288238169E+03 -0.64893550134E+02  0.26710454517E+03  0.00000000000E+00 0.  1.
          3    1    3    3  501    0  0.71404481328E+02 -0.20514545085E+03 -0.79972906854E+03  0.82870371004E+03  0.00000000000E+00 0.  1.
         -3    1    1    2    0  502  0.12158605549E+03  0.32263069159E+02  0.18017025113E+03  0.21973937725E+03  0.00000000000E+00 0. -1.
<mgrwt>
<rscale>  1 0.67321873E+03</rscale>
<asrwt>0</asrwt>
<pdfrwt beam="1">  1       21 0.48545788E-01 0.67321873E+03</pdfrwt>
<pdfrwt beam="2">0</pdfrwt>
<totfact> 0.37490075E+02</totfact>
</mgrwt>
</event>
<event>
 6    1  0.1364923E-004  0.6686001E+03  0.7818608E-02  0.9772490E-01
         21   -1    0    0  501  502  0.00000000000E+00  0.00000000000E+00  0.13093698020E+03  0.13093698020E+03  0.00000000000E+00 0.  1.
         13   -1    0    0    0    0 -0.00000000000E+00 -0.00000000000E+00 -0.10000000000E+04  0.10000000000E+04  0.00000000000E+00 0.  1.
    9000005    2    1    2  501    0 -0.23865521348E+01 -0.46557397135E+02 -0.84774666416E+03  0.10796761386E+04  0.66697291616E+03 0.  0.
         13    1    3    3    0    0  0.39193243230E+02  0.68320951117E+02  0.98192900503E+02  0.12587973779E+03  0.00000000000E+00 0.  1.
          1    1    3    3  501    0 -0.41579795365E+02 -0.11487834825E+03 -0.94593956466E+03  0.95379640085E+03  0.00000000000E+00 0.  1.
         -1    1    1    2    0  502  0.23865521348E+01  0.46557397135E+02 -0.21316355644E+02  0.51260841556E+02  0.00000000000E+00 0. -1.
<mgrwt>
<rscale>  1 0.66860015E+03</rscale>
<asrwt>0</asrwt>
<pdfrwt beam="1">  1       21 0.20144150E-01 0.66860015E+03</pdfrwt>
<pdfrwt beam="2">0</pdfrwt>
<totfact> 0.22119393E+03</totfact>
</mgrwt>
</event>
<event>
 6    1  0.1364923E-004  0.6547437E+03  0.7818608E-02  0.9797919E-01
         21   -1    0    0  501  502  0.00000000000E+00  0.00000000000E+00  0.17892160762E+03  0.17892160762E+03  0.00000000000E+00 0.  1.
         13   -1    0    0    0    0 -0.00000000000E+00 -0.00000000000E+00 -0.10000000000E+04  0.10000000000E+04  0.00000000000E+00 0.  1.
    9000005    2    1    2  501    0 -0.24007791331E+02  0.16807068380E+02 -0.88949846349E+03  0.11044893718E+04  0.65408745925E+03 0.  0.
         13    1    3    3    0    0 -0.13535671027E+03 -0.14363494394E+03 -0.36799147441E+01  0.19739801901E+03  0.00000000000E+00 0.  1.
          1    1    3    3  501    0  0.11134891894E+03  0.16044201232E+03 -0.88581854875E+03  0.90709135283E+03  0.00000000000E+00 0.  1.
         -1    1    1    2    0  502  0.24007791331E+02 -0.16807068380E+02  0.68420071113E+02  0.74432235780E+02  0.00000000000E+00 0. -1.
<mgrwt>
<rscale>  1 0.65474366E+03</rscale>
<asrwt>0</asrwt>
<pdfrwt beam="1">  1       21 0.27526400E-01 0.65474366E+03</pdfrwt>
<pdfrwt beam="2">0</pdfrwt>
<totfact> 0.12042287E+03</totfact>
</mgrwt>
</event>
<event>
 6    1  0.1364923E-004  0.6339736E+03  0.7818608E-02  0.9837325E-01
         21   -1    0    0  501  502  0.00000000000E+00  0.00000000000E+00  0.15377260925E+03  0.15377260925E+03  0.00000000000E+00 0.  1.
         13   -1    0    0    0    0 -0.00000000000E+00 -0.00000000000E+00 -0.10000000000E+04  0.10000000000E+04  0.00000000000E+00 0.  1.
    9000005    2    1    2  501    0 -0.53852430654E+01 -0.10444705370E+03 -0.83526563536E+03  0.10486139294E+04  0.62528737666E+03 0.  0.
         13    1    3    3    0    0  0.13795807512E+03 -0.33510950056E+03 -0.47571700180E+03  0.59802798735E+03  0.00000000000E+00 0.  1.
          1    1    3    3  501    0 -0.14334331818E+03  0.23066244686E+03 -0.35954863357E+03  0.45058594203E+03  0.00000000000E+00 0.  1.
         -3    1    1    2    0  502  0.53852430654E+01  0.10444705370E+03 -0.10961755389E+02  0.10515867986E+03  0.00000000000E+00 0. -1.
<mgrwt>
<rscale>  1 0.63397357E+03</rscale>
<asrwt>0</asrwt>
<pdfrwt beam="1">  1       21 0.23657324E-01 0.63397357E+03</pdfrwt>
<pdfrwt beam="2">0</pdfrwt>
<totfact> 0.16233762E+03</totfact>
</mgrwt>
</event>
<event>
 6    1  0.1364923E-004  0.6744493E+03  0.7818608E-02  0.9761953E-01
         21   -1    0    0  501  502  0.00000000000E+00  0.00000000000E+00  0.19937998003E+03  0.19937998003E+03  0.00000000000E+00 0.  1.
         13   -1    0    0    0    0 -0.00000000000E+00 -0.00000000000E+00 -0.10000000000E+04  0.10000000000E+04  0.00000000000E+00 0.  1.
    9000005    2    1    2  501    0  0.39097431310E+01  0.71411050997E+02 -0.86927856127E+03  0.11002395766E+04  0.67064676586E+03 0.  0.
         13    1    3    3    0    0 -0.27357179566E+03  0.62540758072E+02 -0.12754789181E+03  0.30825531383E+03  0.00000000000E+00 0.  1.
          1    1    3    3  501    0  0.27748153879E+03  0.88702929249E+01 -0.74173066946E+03  0.79198426278E+03  0.00000000000E+00 0.  1.
         -3    1    1    2    0  502 -0.39097431310E+01 -0.71411050997E+02  0.68658541300E+02  0.99140403415E+02  0.00000000000E+00 0. -1.
<mgrwt>
<rscale>  1 0.67444934E+03</rscale>
<asrwt>0</asrwt>
<pdfrwt beam="1">  1       21 0.30673842E-01 0.67444934E+03</pdfrwt>
<pdfrwt beam="2">0</pdfrwt>
<totfact> 0.96910356E+02</totfact>
</mgrwt>
</event>
<event>
 6    1  0.1364923E-004  0.6476961E+03  0.7818608E-02  0.9811112E-01
         21   -1    0    0  501  502  0.00000000000E+00  0.00000000000E+00  0.21529015971E+03  0.21529015971E+03  0.00000000000E+00 0. -1.
         13   -1    0    0    0    0 -0.00000000000E+00 -0.00000000000E+00 -0.10000000000E+04  0.10000000000E+04  0.00000000000E+00 0.  1.
    9000005    2    1    2  501    0  0.43964636028E+02  0.34878287031E+02 -0.88718368585E+03  0.10984557763E+04  0.64526026988E+03 0.  0.
         13    1    3    3    0    0  0.17704400539E+02  0.39308577326E+02  0.10105056066E+03  0.10986275920E+03  0.00000000000E+00 0.  1.
          1    1    3    3  501    0  0.26260235489E+02 -0.44302902949E+01 -0.98823424651E+03  0.98859301708E+03  0.00000000000E+00 0.  1.
         -3    1    1    2    0  502 -0.43964636028E+02 -0.34878287031E+02  0.10247384557E+03  0.11683438343E+03  0.00000000000E+00 0. -1.
<mgrwt>
<rscale>  1 0.64769607E+03</rscale>
<asrwt>0</asrwt>
<pdfrwt beam="1">  1       21 0.33121562E-01 0.64769607E+03</pdfrwt>
<pdfrwt beam="2">0</pdfrwt>
<totfact> 0.83154598E+02</totfact>
</mgrwt>
</event>
<event>
 6    1  0.1364923E-004  0.6312703E+03  0.7818608E-02  0.9842573E-01
         21   -1    0    0  501  502  0.00000000000E+00  0.00000000000E+00  0.11861721038E+03  0.11861721038E+03  0.00000000000E+00 0.  1.
         13   -1    0    0    0    0 -0.00000000000E+00 -0.00000000000E+00 -0.10000000000E+04  0.10000000000E+04  0.00000000000E+00 0.  1.
    9000005    2    1    2  501    0 -0.19629990410E+00  0.51038232153E+02 -0.84974122643E+03  0.10585661638E+04  0.62920364873E+03 0.  0.
         13    1    3    3    0    0  0.22776163378E+03 -0.96837068415E+02 -0.71228297954E+03  0.75405558322E+03  0.00000000000E+00 0.  1.
          3    1    3    3  501    0 -0.22795793368E+03  0.14787530057E+03 -0.13745824689E+03  0.30451058058E+03  0.00000000000E+00 0.  1.
         -1    1    1    2    0  502  0.19629990410E+00 -0.51038232153E+02 -0.31641563192E+02  0.60051046587E+02  0.00000000000E+00 0. -1.
<mgrwt>
<rscale>  1 0.63127028E+03</rscale>
<asrwt>0</asrwt>
<pdfrwt beam="1">  1       21 0.18248801E-01 0.63127028E+03</pdfrwt>
<pdfrwt beam="2">0</pdfrwt>
<totfact> 0.26749887E+03</totfact>
</mgrwt>
</event>
<event>
 6    1  0.1364923E-004  0.6481160E+03  0.7818608E-02  0.9810321E-01
         21   -1    0    0  501  502  0.00000000000E+00  0.00000000000E+00  0.18309780723E+03  0.18309780723E+03  0.00000000000E+00 0. -1.
         13   -1    0    0    0    0 -0.00000000000E+00 -0.00000000000E+00 -0.10000000000E+04  0.10000000000E+04  0.00000000000E+00 0.  1.
    9000005    2    1    2  501    0 -0.76463154472E+02 -0.69255325805E+01 -0.87352210705E+03  0.10877018341E+04  0.64355250869E+03 0.  0.
         13    1    3    3    0    0 -0.14518114889E+03 -0.18792711800E+03 -0.86160055484E+03  0.89372796967E+03  0.00000000000E+00 0.  1.
          1    1    3    3  501    0  0.68717994414E+02  0.18100158542E+03 -0.11921552206E+02  0.19397386444E+03  0.00000000000E+00 0.  1.
         -1    1    1    2    0  502  0.76463154472E+02  0.69255325805E+01  0.56619914278E+02  0.95395973113E+02  0.00000000000E+00 0. -1.
<mgrwt>
<rscale>  1 0.64811605E+03</rscale>
<asrwt>0</asrwt>
<pdfrwt beam="1">  1       21 0.28168893E-01 0.64811605E+03</pdfrwt>
<pdfrwt beam="2">0</pdfrwt>
<totfact> 0.11507613E+03</totfact>
</mgrwt>
</event>
<event>
 6    1  0.1364923E-004  0.6560934E+03  0.7818608E-02  0.9795412E-01
         21   -1    0    0  501  502  0.00000000000E+00  0.00000000000E+00  0.12541926657E+03  0.12541926657E+03  0.00000000000E+00 0.  1.
         13   -1    0    0    0    0 -0.00000000000E+00 -0.00000000000E+00 -0.10000000000E+04  0.10000000000E+04  0.00000000000E+00 0.  1.
    9000005    2    1    2  501    0  0.23969292419E+02  0.27330669795E+02 -0.86865639096E+03  0.10885873467E+04  0.65508548545E+03 0.  0.
         13    1    3    3    0    0 -0.79385710570E+01 -0.29046786902E+03 -0.61686460361E+03  0.68187721991E+03  0.00000000000E+00 0.  1.
          1    1    3    3  501    0  0.31907863476E+02  0.31779853881E+03 -0.25179178735E+03  0.40671012675E+03  0.00000000000E+00 0.  1.
         -3    1    1    2    0  502 -0.23969292419E+02 -0.27330669795E+02 -0.59243424715E+01  0.36831919909E+02  0.00000000000E+00 0. -1.
<mgrwt>
<rscale>  1 0.65609335E+03</rscale>
<asrwt>0</asrwt>
<pdfrwt beam="1">  1       21 0.19295271E-01 0.65609335E+03</pdfrwt>
<pdfrwt beam="2">0</pdfrwt>
<totfact> 0.24032463E+03</totfact>
</mgrwt>
</event>
<event>
 6    1  0.1364923E-004  0.6619593E+03  0.7818608E-02  0.9784594E-01
         21   -1    0    0  501  502  0.00000000000E+00  0.00000000000E+00  0.18441579048E+03  0.18441579048E+03  0.00000000000E+00 0.  1.
         13   -1    0    0    0    0 -0.00000000000E+00 -0.00000000000E+00 -0.10000000000E+04  0.10000000000E+04  0.00000000000E+00 0.  1.
    9000005    2    1    2  501    0 -0.26422127072E+02  0.11300787462E+03 -0.83624599946E+03  0.10665352658E+04  0.65170637033E+03 0.  0.
         13    1    3    3    0    0 -0.82492225236E+02 -0.22797582865E+03 -0.11832225173E+03  0.26977416653E+03  0.00000000000E+00 0.  1.
          3    1    3    3  501    0  0.56070098164E+02  0.34098370328E+03 -0.71792374773E+03  0.79676109931E+03  0.00000000000E+00 0.  1.
         -3    1    1    2    0  502  0.26422127072E+02 -0.11300787462E+03  0.20661789941E+02  0.11788052464E+03  0.00000000000E+00 0. -1.
<mgrwt>
<rscale>  1 0.66195929E+03</rscale>
<asrwt>0</asrwt>
<pdfrwt beam="1">  1       21 0.28371659E-01 0.66195929E+03</pdfrwt>
<pdfrwt beam="2">0</pdfrwt>
<totfact> 0.11335384E+03</totfact>
</mgrwt>
</event>
<event>
 6    1  0.1364923E-004  0.6598290E+03  0.7818608E-02  0.9788509E-01
         21   -1    0    0  501  502  0.00000000000E+00  0.00000000000E+00  0.16536920491E+03  0.16536920491E+03  0.00000000000E+00 0.  1.
         13   -1    0    0    0    0 -0.00000000000E+00 -0.00000000000E+00 -0.10000000000E+04  0.10000000000E+04  0.00000000000E+00 0.  1.
    9000005    2    1    2  501    0 -0.14267306980E+02 -0.20231008668E+02 -0.88813419044E+03  0.11064161467E+04  0.65936446649E+03 0.  0.
         13    1    3    3    0    0 -0.19240265997E+03  0.11783598824E+03 -0.84799079374E+03  0.87749215949E+03  0.00000000000E+00 0.  1.
          1    1    3    3  501    0  0.17813535299E+03 -0.13806699691E+03 -0.40143396694E+02  0.22892398720E+03  0.00000000000E+00 0.  1.
         -3    1    1    2    0  502  0.14267306980E+02  0.20231008668E+02  0.53503395345E+02  0.58953058221E+02  0.00000000000E+00 0. -1.
<mgrwt>
<rscale>  1 0.65982903E+03</rscale>
<asrwt>0</asrwt>
<pdfrwt beam="1">  1       21 0.25441415E-01 0.65982903E+03</pdfrwt>
<pdfrwt beam="2">0</pdfrwt>
<totfact> 0.14062875E+03</totfact>
</mgrwt>
</event>
<event>
 6    1  0.1364923E-004  0.6561666E+03  0.7818608E-02  0.9795276E-01
         21   -1    0    0  501  502  0.00000000000E+00  0.00000000000E+00  0.69777019914E+03  0.69777019914E+03  0.00000000000E+00 0. -1.
         13   -1    0    0    0    0 -0.00000000000E+00 -0.00000000000E+00 -0.10000000000E+04  0.10000000000E+04  0.00000000000E+00 0.  1.
    9000005    2    1    2  501    0 -0.55038435768E+02  0.33717844943E+02 -0.89040547962E+03  0.11060635560E+04  0.65298434074E+03 0.  0.
         13    1    3    3    0    0  0.22381439574E+03  0.72551641447E+02 -0.80585032724E+02  0.24869775214E+03  0.00000000000E+00 0.  1.
          1    1    3    3  501    0 -0.27885283151E+03 -0.38833796504E+02 -0.80982044689E+03  0.85736580384E+03  0.00000000000E+00 0.  1.
         -3    1    1    2    0  502  0.55038435768E+02 -0.33717844943E+02  0.58817567876E+03  0.59170664316E+03  0.00000000000E+00 0. -1.
<mgrwt>
<rscale>  1 0.65616665E+03</rscale>
<asrwt>0</asrwt>
<pdfrwt beam="1">  1       21 0.10734926E+00 0.65616665E+03</pdfrwt>
<pdfrwt beam="2">0</pdfrwt>
<totfact> 0.60776881E+01</totfact>
</mgrwt>
</event>
<event>
 6    1  0.1364923E-004  0.6607617E+03  0.7818608E-02  0.9786793E-01
         21   -1    0    0  501  502  0.00000000000E+00  0.00000000000E+00  0.16128144947E+03  0.16128144947E+03  0.00000000000E+00 0.  1.
         13   -1    0    0    0    0 -0.00000000000E+00 -0.00000000000E+00 -0.10000000000E+04  0.10000000000E+04  0.00000000000E+00 0.  1.
    9000005    2    1    2  501    0 -0.12722378403E+03  0.43325814365E+02 -0.75331805859E+03  0.10020449542E+04  0.64694897430E+03 0.  0.
         13    1    3    3    0    0 -0.25749640208E+03 -0.11404018918E+03 -0.74626179296E+03  0.79763163520E+03  0.00000000000E+00 0.  1.
          3    1    3    3  501    0  0.13027261806E+03  0.15736600355E+03 -0.70562656318E+01  0.20441331897E+03  0.00000000000E+00 0.  1.
         -1    1    1    2    0  502  0.12722378403E+03 -0.43325814365E+02 -0.85400491941E+02  0.15923649530E+03  0.00000000000E+00 0. -1.
<mgrwt>
<rscale>  1 0.66076168E+03</rscale>
<asrwt>0</asrwt>
<pdfrwt beam="1">  1       21 0.24812530E-01 0.66076168E+03</pdfrwt>
<pdfrwt beam="2">0</pdfrwt>
<totfact> 0.14769944E+03</totfact>
</mgrwt>
</event>
<event>
 6    1  0.1364923E-004  0.6628979E+03  0.7818608E-02  0.9782874E-01
         21   -1    0    0  501  502  0.00000000000E+00  0.00000000000E+00  0.23293378392E+03  0.23293378392E+03  0.00000000000E+00 0.  1.
         13   -1    0    0    0    0 -0.00000000000E+00 -0.00000000000E+00 -0.10000000000E+04  0.10000000000E+04  0.00000000000E+00 0.  1.
    9000005    2    1    2  501    0  0.17618972052E+02  0.19216833838E+03 -0.79808312581E+03  0.10374826464E+04  0.63418803798E+03 0.  0.
         13    1    3    3    0    0 -0.23810784934E+03 -0.76385280669E+02 -0.50962441705E+03  0.56766812970E+03  0.00000000000E+00 0.  1.
          3    1    3    3  501    0  0.25572682139E+03  0.26855361905E+03 -0.28845870875E+03  0.46981451674E+03  0.00000000000E+00 0.  1.
         -1    1    1    2    0  502 -0.17618972052E+02 -0.19216833838E+03  0.31016909724E+02  0.19545113748E+03  0.00000000000E+00 0. -1.
<mgrwt>
<rscale>  1 0.66289785E+03</rscale>
<asrwt>0</asrwt>
<pdfrwt beam="1">  1       21 0.35835966E-01 0.66289785E+03</pdfrwt>
<pdfrwt beam="2">0</pdfrwt>
<totfact> 0.70760162E+02</totfact>
</mgrwt>
</event>
<event>
 6    1  0.1364923E-004  0.6562629E+03  0.7818608E-02  0.9795098E-01
         21   -1    0    0  501  502  0.00000000000E+00  0.00000000000E+00  0.27157645567E+03  0.27157645567E+03  0.00000000000E+00 0. -1.
         13   -1    0    0    0    0 -0.00000000000E+00 -0.00000000000E+00 -0.10000000000E+04  0.10000000000E+04  0.00000000000E+00 0.  1.
    9000005    2    1    2  501    0  0.55355221647E+02 -0.11211916743E+03 -0.86541164488E+03  0.10861023390E+04  0.64424069057E+03 0.  0.
         13    1    3    3    0    0 -0.26531077749E+03 -0.10177087122E+03 -0.62050965839E+03  0.68248029644E+03  0.00000000000E+00 0.  1.
          3    1    3    3  501    0  0.32066599914E+03 -0.10348296213E+02 -0.24490198649E+03  0.40362204254E+03  0.00000000000E+00 0.  1.
         -1    1    1    2    0  502 -0.55355221647E+02  0.11211916743E+03  0.13698810055E+03  0.18547411668E+03  0.00000000000E+00 0. -1.
<mgrwt>
<rscale>  1 0.65626289E+03</rscale>
<asrwt>0</asrwt>
<pdfrwt beam="1">  1       21 0.41780992E-01 0.65626289E+03</pdfrwt>
<pdfrwt beam="2">0</pdfrwt>
<totfact> 0.51550027E+02</totfact>
</mgrwt>
</event>
<event>
 6    1  0.1364923E-004  0.6600586E+03  0.7818608E-02  0.9788086E-01
         21   -1    0    0  501  502  0.00000000000E+00  0.00000000000E+00  0.14509107533E+03  0.14509107533E+03  0.00000000000E+00 0.  1.
         13   -1    0    0    0    0 -0.00000000000E+00 -0.00000000000E+00 -0.10000000000E+04  0.10000000000E+04  0.00000000000E+00 0.  1.
    9000005    2    1    2  501    0  0.53783818252E+02 -0.39257577084E+02 -0.85289358772E+03  0.10784733746E+04  0.65669132120E+03 0.  0.
         13    1    3    3    0    0  0.32179399001E+03 -0.11372344494E+03 -0.27938566834E+03  0.44106773358E+03  0.00000000000E+00 0.  1.
          1    1    3    3  501    0 -0.26801017176E+03  0.74465867856E+02 -0.57350791938E+03  0.63740564104E+03  0.00000000000E+00 0.  1.
         -3    1    1    2    0  502 -0.53783818252E+02  0.39257577084E+02 -0.20153369535E+01  0.66617700706E+02  0.00000000000E+00 0. -1.
<mgrwt>
<rscale>  1 0.66005859E+03</rscale>
<asrwt>0</asrwt>
<pdfrwt beam="1">  1       21 0.22321703E-01 0.66005859E+03</pdfrwt>
<pdfrwt beam="2">0</pdfrwt>
<totfact> 0.18152189E+03</totfact>
</mgrwt>
</event>
<event>
 6    1  0.1364923E-004  0.6392556E+03  0.7818608E-02  0.9827152E-01
         21   -1    0    0  501  502  0.00000000000E+00  0.00000000000E+00  0.16647309203E+03  0.16647309203E+03  0.00000000000E+00 0.  1.
         13   -1    0    0    0    0 -0.00000000000E+00 -0.00000000000E+00 -0.10000000000E+04  0.10000000000E+04  0.00000000000E+00 0.  1.
    9000005    2    1    2  501    0  0.60558354462E+01 -0.70702756568E+02 -0.87548857819E+03  0.10840332067E+04  0.63530480064E+03 0.  0.
         13    1    3    3    0    0 -0.29594905140E+03  0.17199770454E+02 -0.58524416255E+03  0.65604298863E+03  0.00000000000E+00 0.  1.
          3    1    3    3  501    0  0.30200488685E+03 -0.87902527022E+02 -0.29024441563E+03  0.42799021805E+03  0.00000000000E+00 0.  1.
         -3    1    1    2    0  502 -0.60558354462E+01  0.70702756568E+02  0.41961670212E+02  0.82439885348E+02  0.00000000000E+00 0. -1.
<mgrwt>
<rscale>  1 0.63925562E+03</rscale>
<asrwt>0</asrwt>
<pdfrwt beam="1">  1       21 0.25611244E-01 0.63925562E+03</pdfrwt>
<pdfrwt beam="2">0</pdfrwt>
<totfact> 0.13895514E+03</totfact>
</mgrwt>
</event>
<event>
 6    1  0.1364923E-004  0.6806322E+03  0.7818608E-02  0.9750939E-01
         21   -1    0    0  501  502  0.00000000000E+00  0.00000000000E+00  0.21507341830E+03  0.21507341830E+03  0.00000000000E+00 0. -1.
         13   -1    0    0    0    0 -0.00000000000E+00 -0.00000000000E+00 -0.10000000000E+04  0.10000000000E+04  0.00000000000E+00 0.  1.
    9000005    2    1    2  501    0 -0.20289642900E+03 -0.97264101027E+01 -0.74306859164E+03  0.10076760816E+04  0.64961418512E+03 0.  0.
         13    1    3    3    0    0  0.53229978430E+02  0.28414533041E+03 -0.35210642731E+03  0.45557758455E+03  0.00000000000E+00 0.  1.
          3    1    3    3  501    0 -0.25612640743E+03 -0.29387174051E+03 -0.39096216434E+03  0.55209849701E+03  0.00000000000E+00 0.  1.
         -1    1    1    2    0  502  0.20289642900E+03  0.97264101027E+01 -0.41857990061E+02  0.20739733674E+03  0.00000000000E+00 0. -1.
<mgrwt>
<rscale>  1 0.68063217E+03</rscale>
<asrwt>0</asrwt>
<pdfrwt beam="1">  1       21 0.33088217E-01 0.68063217E+03</pdfrwt>
<pdfrwt beam="2">0</pdfrwt>
<totfact> 0.83139193E+02</totfact>
</mgrwt>
</event>
<event>
 6    1  0.1364923E-004  0.6402733E+03  0.7818608E-02  0.9825204E-01
         21   -1    0    0  501  502  0.00000000000E+00  0.00000000000E+00  0.16087242603E+03  0.16087242603E+03  0.00000000000E+00 0.  1.
         13   -1    0    0    0    0 -0.00000000000E+00 -0.00000000000E+00 -0.10000000000E+04  0.10000000000E+04  0.00000000000E+00 0.  1.
    9000005    2    1    2  501    0 -0.30390595829E+02 -0.44630013045E+02 -0.88341267410E+03  0.10910397942E+04  0.63799251824E+03 0.  0.
         13    1    3    3    0    0  0.10577863784E+03 -0.42066613191E+02  0.66216463462E+02  0.13169411605E+03  0.00000000000E+00 0.  1.
          3    1    3    3  501    0 -0.13616923367E+03 -0.25633998536E+01 -0.94962913756E+03  0.95934567812E+03  0.00000000000E+00 0.  1.
         -3    1    1    2    0  502  0.30390595829E+02  0.44630013045E+02  0.44285100127E+02  0.69832631860E+02  0.00000000000E+00 0. -1.
<mgrwt>
<rscale>  1 0.64027329E+03</rscale>
<asrwt>0</asrwt>
<pdfrwt beam="1">  1       21 0.24749603E-01 0.64027329E+03</pdfrwt>
<pdfrwt beam="2">0</pdfrwt>
<totfact> 0.14859262E+03</totfact>
</mgrwt>
</event>
<event>
 6    1  0.1364923E-004  0.4669163E+03  0.7818608E-02  0.1022794E+00
         21   -1    0    0  501  502  0.00000000000E+00  0.00000000000E+00  0.90311538152E+02  0.90311538152E+02  0.00000000000E+00 0.  1.
         13   -1    0    0    0    0 -0.00000000000E+00 -0.00000000000E+00 -0.10000000000E+04  0.10000000000E+04  0.00000000000E+00 0.  1.
    9000005    2    1    2  501    0  0.53001835490E+02 -0.79274177965E+02 -0.86928343014E+03  0.98674437905E+03  0.45707460859E+03 0.  0.
         13    1    3    3    0    0 -0.44878449643E+02 -0.25104875063E+03 -0.60614937578E+03  0.65761433697E+03  0.00000000000E+00 0.  1.
          3    1    3    3  501    0  0.97880285133E+02  0.17177457267E+03 -0.26313405436E+03  0.32913004208E+03  0.00000000000E+00 0.  1.
         -1    1    1    2    0  502 -0.53001835490E+02  0.79274177965E+02 -0.40405031713E+02  0.10356715910E+03  0.00000000000E+00 0. -1.
<mgrwt>
<rscale>  1 0.46691625E+03</rscale>
<asrwt>0</asrwt>
<pdfrwt beam="1">  1       21 0.13894082E-01 0.46691625E+03</pdfrwt>
<pdfrwt beam="2">0</pdfrwt>
<totfact> 0.44777228E+03</totfact>
</mgrwt>
</event>
<event>
 6    1  0.1364923E-004  0.7604272E+03  0.7818608E-02  0.9619132E-01
         21   -1    0    0  501  502  0.00000000000E+00  0.00000000000E+00  0.41055974676E+03  0.41055974676E+03  0.00000000000E+00 0.  1.
         13   -1    0    0    0    0 -0.00000000000E+00 -0.00000000000E+00 -0.10000000000E+04  0.10000000000E+04  0.00000000000E+00 0.  1.
    9000005    2    1    2  501    0 -0.62769415528E+02  0.27002582539E+03 -0.76802517650E+03  0.10807923731E+04  0.70809288667E+03 0.  0.
         13    1    3    3    0    0 -0.26767826248E+03  0.37296538378E+03 -0.27020509363E+03  0.53269655745E+03  0.00000000000E+00 0.  1.
          1    1    3    3  501    0  0.20490884695E+03 -0.10293955839E+03 -0.49782008287E+03  0.54809581566E+03  0.00000000000E+00 0.  1.
         -3    1    1    2    0  502  0.62769415528E+02 -0.27002582539E+03  0.17858492326E+03  0.32976737364E+03  0.00000000000E+00 0. -1.
<mgrwt>
<rscale>  1 0.76042717E+03</rscale>
<asrwt>0</asrwt>
<pdfrwt beam="1">  1       21 0.63163036E-01 0.76042717E+03</pdfrwt>
<pdfrwt beam="2">0</pdfrwt>
<totfact> 0.20927340E+02</totfact>
</mgrwt>
</event>
<event>
 6    1  0.1364923E-004  0.6611252E+03  0.7818608E-02  0.9786125E-01
         21   -1    0    0  501  502  0.00000000000E+00  0.00000000000E+00  0.28057791158E+03  0.28057791158E+03  0.00000000000E+00 0.  1.
         13   -1    0    0    0    0 -0.00000000000E+00 -0.00000000000E+00 -0.10000000000E+04  0.10000000000E+04  0.00000000000E+00 0.  1.
    9000005    2    1    2  501    0  0.81987145508E+02  0.46118715345E+02 -0.87626313096E+03  0.10976901303E+04  0.65439874653E+03 0.  0.
         13    1    3    3    0    0 -0.38472221435E+02  0.18883183846E+01 -0.94927107678E+03  0.95005223792E+03  0.00000000000E+00 0.  1.
          1    1    3    3  501    0  0.12045936694E+03  0.44230396960E+02  0.73007945825E+02  0.14763789234E+03  0.00000000000E+00 0.  1.
         -1    1    1    2    0  502 -0.81987145508E+02 -0.46118715345E+02  0.15684104253E+03  0.18288778132E+03  0.00000000000E+00 0. -1.
<mgrwt>
<rscale>  1 0.66112521E+03</rscale>
<asrwt>0</asrwt>
<pdfrwt beam="1">  1       21 0.43165831E-01 0.66112521E+03</pdfrwt>
<pdfrwt beam="2">0</pdfrwt>
<totfact> 0.48127325E+02</totfact>
</mgrwt>
</event>
<event>
 6    1  0.1364923E-004  0.6486427E+03  0.7818608E-02  0.9809329E-01
         21   -1    0    0  501  502  0.00000000000E+00  0.00000000000E+00  0.27100292332E+03  0.27100292332E+03  0.00000000000E+00 0. -1.
         13   -1    0    0    0    0 -0.00000000000E+00 -0.00000000000E+00 -0.10000000000E+04  0.10000000000E+04  0.00000000000E+00 0.  1.
    9000005    2    1    2  501    0 -0.34780554596E+00 -0.35635738593E+02 -0.89269649585E+03  0.11034692650E+04  0.64766299745E+03 0.  0.
         13    1    3    3    0    0 -0.19789205686E+03 -0.87822840761E+02 -0.32003921865E+02  0.21885695909E+03  0.00000000000E+00 0.  1.
          1    1    3    3  501    0  0.19754425131E+03  0.52187102168E+02 -0.86069257398E+03  0.88461230591E+03  0.00000000000E+00 0.  1.
         -3    1    1    2    0  502  0.34780554596E+00  0.35635738593E+02  0.16369941917E+03  0.16753365832E+03  0.00000000000E+00 0. -1.
<mgrwt>
<rscale>  1 0.64864273E+03</rscale>
<asrwt>0</asrwt>
<pdfrwt beam="1">  1       21 0.41692756E-01 0.64864273E+03</pdfrwt>
<pdfrwt beam="2">0</pdfrwt>
<totfact> 0.51811068E+02</totfact>
</mgrwt>
</event>
<event>
 6    1  0.1364923E-004  0.6356714E+03  0.7818608E-02  0.9834044E-01
         21   -1    0    0  501  502  0.00000000000E+00  0.00000000000E+00  0.25353215484E+03  0.25353215484E+03  0.00000000000E+00 0.  1.
         13   -1    0    0    0    0 -0.00000000000E+00 -0.00000000000E+00 -0.10000000000E+04  0.10000000000E+04  0.00000000000E+00 0.  1.
    9000005    2    1    2  501    0  0.35782117753E+02  0.40624797393E+02 -0.89367169031E+03  0.10966892202E+04  0.63336199884E+03 0.  0.
         13    1    3    3    0    0 -0.80908779043E+00 -0.94142928855E+02 -0.94367517729E+03  0.94835983988E+03  0.00000000000E+00 0.  1.
          3    1    3    3  501    0  0.36591205544E+02  0.13476772625E+03  0.50003486980E+02  0.14832938034E+03  0.00000000000E+00 0.  1.
         -1    1    1    2    0  502 -0.35782117753E+02 -0.40624797393E+02  0.14720384514E+03  0.15684293462E+03  0.00000000000E+00 0. -1.
<mgrwt>
<rscale>  1 0.63567142E+03</rscale>
<asrwt>0</asrwt>
<pdfrwt beam="1">  1       21 0.39004946E-01 0.63567142E+03</pdfrwt>
<pdfrwt beam="2">0</pdfrwt>
<totfact> 0.59570357E+02</totfact>
</mgrwt>
</event>
<event>
 6    1  0.1364923E-004  0.6651068E+03  0.7818608E-02  0.9778838E-01
         21   -1    0    0  501  502  0.00000000000E+00  0.00000000000E+00  0.16035436754E+03  0.16035436754E+03  0.00000000000E+00 0.  1.
         13   -1    0    0    0    0 -0.00000000000E+00 -0.00000000000E+00 -0.10000000000E+04  0.10000000000E+04  0.00000000000E+00 0.  1.
    9000005    2    1    2  501    0 -0.47087734574E+02 -0.11510795890E+03 -0.77122844188E+03  0.10184106853E+04  0.65337578583E+03 0.  0.
         13    1    3    3    0    0 -0.34442992319E+03 -0.12676665360E+03 -0.44584348281E+03  0.57747568574E+03  0.00000000000E+00 0.  1.
          1    1    3    3  501    0  0.29734218861E+03  0.11658694706E+02 -0.32538495907E+03  0.44093499961E+03  0.00000000000E+00 0.  1.
         -3    1    1    2    0  502  0.47087734574E+02  0.11510795890E+03 -0.68417190575E+02  0.14194368219E+03  0.00000000000E+00 0. -1.
<mgrwt>
<rscale>  1 0.66510677E+03</rscale>
<asrwt>0</asrwt>
<pdfrwt beam="1">  1       21 0.24669902E-01 0.66510677E+03</pdfrwt>
<pdfrwt beam="2">0</pdfrwt>
<totfact> 0.14934400E+03</totfact>
</mgrwt>
</event>
<event>
 6    1  0.1364923E-004  0.6612410E+03  0.7818608E-02  0.9785912E-01
         21   -1    0    0  501  502  0.00000000000E+00  0.00000000000E+00  0.14066015538E+03  0.14066015538E+03  0.00000000000E+00 0.  1.
         13   -1    0    0    0    0 -0.00000000000E+00 -0.00000000000E+00 -0.10000000000E+04  0.10000000000E+04  0.00000000000E+00 0.  1.
    9000005    2    1    2  501    0  0.26132938689E+02  0.20707549652E+02 -0.88051871026E+03  0.11011598080E+04  0.66039987162E+03 0.  0.
         13    1    3    3    0    0 -0.64092617180E+02 -0.24171727332E+03 -0.75732044434E+03  0.79753956592E+03  0.00000000000E+00 0.  1.
          3    1    3    3  501    0  0.90225555869E+02  0.26242482297E+03 -0.12319826592E+03  0.30362024203E+03  0.00000000000E+00 0.  1.
         -3    1    1    2    0  502 -0.26132938689E+02 -0.20707549652E+02  0.21178865637E+02  0.39500347426E+02  0.00000000000E+00 0. -1.
<mgrwt>
<rscale>  1 0.66124105E+03</rscale>
<asrwt>0</asrwt>
<pdfrwt beam="1">  1       21 0.21640023E-01 0.66124105E+03</pdfrwt>
<pdfrwt beam="2">0</pdfrwt>
<totfact> 0.19274293E+03</totfact>
</mgrwt>
</event>
<event>
 6    1  0.1364923E-004  0.6451227E+03  0.7818608E-02  0.9815974E-01
         21   -1    0    0  501  502  0.00000000000E+00  0.00000000000E+00  0.24041090075E+03  0.24041090075E+03  0.00000000000E+00 0. -1.
         13   -1    0    0    0    0 -0.00000000000E+00 -0.00000000000E+00 -0.10000000000E+04  0.10000000000E+04  0.00000000000E+00 0.  1.
    9000005    2    1    2  501    0 -0.73089855586E+01 -0.20039396792E+02 -0.89503256679E+03  0.11032980582E+04  0.64476996743E+03 0.  0.
         13    1    3    3    0    0  0.34440360394E+02  0.56085631785E+02 -0.97977017431E+03  0.98197827419E+03  0.00000000000E+00 0.  1.
          1    1    3    3  501    0 -0.41749345952E+02 -0.76125028578E+02  0.84737607513E+02  0.12131978400E+03  0.00000000000E+00 0.  1.
         -1    1    1    2    0  502  0.73089855586E+01  0.20039396792E+02  0.13544346754E+03  0.13711284255E+03  0.00000000000E+00 0. -1.
<mgrwt>
<rscale>  1 0.64512271E+03</rscale>
<asrwt>0</asrwt>
<pdfrwt beam="1">  1       21 0.36986291E-01 0.64512271E+03</pdfrwt>
<pdfrwt beam="2">0</pdfrwt>
<totfact> 0.66411412E+02</totfact>
</mgrwt>
</event>
<event>
 6    1  0.1364923E-004  0.6510366E+03  0.7818608E-02  0.9804836E-01
         21   -1    0    0  501  502  0.00000000000E+00  0.00000000000E+00  0.13090925974E+03  0.13090925974E+03  0.00000000000E+00 0.  1.
         13   -1    0    0    0    0 -0.00000000000E+00 -0.00000000000E+00 -0.10000000000E+04  0.10000000000E+04  0.00000000000E+00 0.  1.
    9000005    2    1    2  501    0 -0.48683229572E+02 -0.24506290503E+02 -0.85493292781E+03  0.10745971050E+04  0.64875111711E+03 0.  0.
         13    1    3    3    0    0  0.78688266530E+02  0.75944422138E+02 -0.89969667447E+03  0.90631865511E+03  0.00000000000E+00 0.  1.
          3    1    3    3  501    0 -0.12737149610E+03 -0.10045071264E+03  0.44763746664E+02  0.16827844991E+03  0.00000000000E+00 0.  1.
         -1    1    1    2    0  502  0.48683229572E+02  0.24506290503E+02 -0.14157812451E+02  0.56312154720E+02  0.00000000000E+00 0. -1.
<mgrwt>
<rscale>  1 0.65103658E+03</rscale>
<asrwt>0</asrwt>
<pdfrwt beam="1">  1       21 0.20139886E-01 0.65103658E+03</pdfrwt>
<pdfrwt beam="2">0</pdfrwt>
<totfact> 0.22143561E+03</totfact>
</mgrwt>
</event>
<event>
 6    1  0.1364923E-004  0.6531052E+03  0.7818608E-02  0.9800970E-01
         21   -1    0    0  501  502  0.00000000000E+00  0.00000000000E+00  0.29227480166E+03  0.29227480166E+03  0.00000000000E+00 0. -1.
         13   -1    0    0    0    0 -0.00000000000E+00 -0.00000000000E+00 -0.10000000000E+04  0.10000000000E+04  0.00000000000E+00 0.  1.
    9000005    2    1    2  501    0 -0.56817250969E+02 -0.17521338609E+02 -0.88807783808E+03  0.11023741119E+04  0.65039314168E+03 0.  0.
         13    1    3    3    0    0 -0.13071549747E+03  0.25640985042E+03 -0.17972736914E+03  0.33931472101E+03  0.00000000000E+00 0.  1.
          1    1    3    3  501    0  0.73898246499E+02 -0.27393118903E+03 -0.70835046894E+03  0.76305939088E+03  0.00000000000E+00 0.  1.
         -3    1    1    2    0  502  0.56817250969E+02  0.17521338609E+02  0.18035263974E+03  0.18990068977E+03  0.00000000000E+00 0. -1.
<mgrwt>
<rscale>  1 0.65310523E+03</rscale>
<asrwt>0</asrwt>
<pdfrwt beam="1">  1       21 0.44965353E-01 0.65310523E+03</pdfrwt>
<pdfrwt beam="2">0</pdfrwt>
<totfact> 0.44192687E+02</totfact>
</mgrwt>
</event>
<event>
 6    1  0.1364923E-004  0.6232743E+03  0.7818608E-02  0.9858262E-01
         21   -1    0    0  501  502  0.00000000000E+00  0.00000000000E+00  0.23619730166E+03  0.23619730166E+03  0.00000000000E+00 0.  1.
         13   -1    0    0    0    0 -0.00000000000E+00 -0.00000000000E+00 -0.10000000000E+04  0.10000000000E+04  0.00000000000E+00 0.  1.
    9000005    2    1    2  501    0  0.78807923836E+01  0.33466885764E+02 -0.90054707682E+03  0.10951967188E+04  0.62232521713E+03 0.  0.
         13    1    3    3    0    0  0.16088712782E+03 -0.19833303206E+02  0.17421932132E+02  0.16303849709E+03  0.00000000000E+00 0.  1.
          3    1    3    3  501    0 -0.15300633544E+03  0.53300188970E+02 -0.91796900895E+03  0.93215822167E+03  0.00000000000E+00 0.  1.
         -3    1    1    2    0  502 -0.78807923836E+01 -0.33466885764E+02  0.13674437848E+03  0.14100058290E+03  0.00000000000E+00 0. -1.
<mgrwt>
<rscale>  1 0.62327427E+03</rscale>
<asrwt>0</asrwt>
<pdfrwt beam="1">  1       21 0.36338045E-01 0.62327427E+03</pdfrwt>
<pdfrwt beam="2">0</pdfrwt>
<totfact> 0.68978892E+02</totfact>
</mgrwt>
</event>
<event>
 6    1  0.1364923E-004  0.8151896E+03  0.7818608E-02  0.9538287E-01
         21   -1    0    0  501  502  0.00000000000E+00  0.00000000000E+00  0.53573738511E+03  0.53573738511E+03  0.00000000000E+00 0. -1.
         13   -1    0    0    0    0 -0.00000000000E+00 -0.00000000000E+00 -0.10000000000E+04  0.10000000000E+04  0.00000000000E+00 0.  1.
    9000005    2    1    2  501    0  0.34964639273E+03 -0.33093281426E+03 -0.62605719572E+03  0.10278529358E+04  0.65784870429E+03 0.  0.
         13    1    3    3    0    0  0.29881676020E+03 -0.34005262133E+02 -0.65942053567E+03  0.72476427677E+03  0.00000000000E+00 0.  1.
          1    1    3    3  501    0  0.50829632529E+02 -0.29692755213E+03  0.33363339944E+02  0.30308865899E+03  0.00000000000E+00 0.  1.
         -1    1    1    2    0  502 -0.34964639273E+03  0.33093281426E+03  0.16179458084E+03  0.50788444935E+03  0.00000000000E+00 0. -1.
<mgrwt>
<rscale>  1 0.81518958E+03</rscale>
<asrwt>0</asrwt>
<pdfrwt beam="1">  1       21 0.82421134E-01 0.81518958E+03</pdfrwt>
<pdfrwt beam="2">0</pdfrwt>
<totfact> 0.11302823E+02</totfact>
</mgrwt>
</event>
<event>
 6    1  0.1364923E-004  0.6618332E+03  0.7818608E-02  0.9784825E-01
         21   -1    0    0  501  502  0.00000000000E+00  0.00000000000E+00  0.16586659503E+03  0.16586659503E+03  0.00000000000E+00 0.  1.
         13   -1    0    0    0    0 -0.00000000000E+00 -0.00000000000E+00 -0.10000000000E+04  0.10000000000E+04  0.00000000000E+00 0.  1.
    9000005    2    1    2  501    0 -0.99266226796E+02  0.10814934518E+03 -0.73313524499E+03  0.98767935372E+03  0.64534731244E+03 0.  0.
         13    1    3    3    0    0 -0.25196408568E+03 -0.62914324545E+02 -0.71143453901E+03  0.75735276853E+03  0.00000000000E+00 0.  1.
          3    1    3    3  501    0  0.15269785888E+03  0.17106366972E+03 -0.21700705980E+02  0.23032658519E+03  0.00000000000E+00 0.  1.
         -1    1    1    2    0  502  0.99266226796E+02 -0.10814934518E+03 -0.10099815998E+03  0.17818724130E+03  0.00000000000E+00 0. -1.
<mgrwt>
<rscale>  1 0.66183323E+03</rscale>
<asrwt>0</asrwt>
<pdfrwt beam="1">  1       21 0.25517937E-01 0.66183323E+03</pdfrwt>
<pdfrwt beam="2">0</pdfrwt>
<totfact> 0.13978672E+03</totfact>
</mgrwt>
</event>
<event>
 6    1  0.1364923E-004  0.6172581E+03  0.7818608E-02  0.9870234E-01
         21   -1    0    0  501  502  0.00000000000E+00  0.00000000000E+00  0.15874155921E+03  0.15874155921E+03  0.00000000000E+00 0.  1.
         13   -1    0    0    0    0 -0.00000000000E+00 -0.00000000000E+00 -0.10000000000E+04  0.10000000000E+04  0.00000000000E+00 0.  1.
    9000005    2    1    2  501    0 -0.90054683692E+01 -0.39912418492E+02 -0.89745057197E+03  0.10892314505E+04  0.61590057959E+03 0.  0.
         13    1    3    3    0    0 -0.69875178417E+02  0.26613557793E+03 -0.59080116966E+03  0.65173361772E+03  0.00000000000E+00 0.  1.
          3    1    3    3  501    0  0.60869710047E+02 -0.30604799642E+03 -0.30664940232E+03  0.43749783274E+03  0.00000000000E+00 0.  1.
         -3    1    1    2    0  502  0.90054683692E+01  0.39912418492E+02  0.56192131187E+02  0.69510108745E+02  0.00000000000E+00 0. -1.
<mgrwt>
<rscale>  1 0.61725815E+03</rscale>
<asrwt>0</asrwt>
<pdfrwt beam="1">  1       21 0.24421778E-01 0.61725815E+03</pdfrwt>
<pdfrwt beam="2">0</pdfrwt>
<totfact> 0.15270366E+03</totfact>
</mgrwt>
</event>
<event>
 6    1  0.1364923E-004  0.6496606E+03  0.7818608E-02  0.9807416E-01
         21   -1    0    0  501  502  0.00000000000E+00  0.00000000000E+00  0.20610507455E+03  0.20610507455E+03  0.00000000000E+00 0. -1.
         13   -1    0    0    0    0 -0.00000000000E+00 -0.00000000000E+00 -0.10000000000E+04  0.10000000000E+04  0.00000000000E+00 0.  1.
    9000005    2    1    2  501    0 -0.22812428044E+02  0.24102848437E+02 -0.89144968685E+03  0.11030600085E+04  0.64881236417E+03 0.  0.
         13    1    3    3    0    0  0.17944501355E+03 -0.19642944677E+03 -0.15446715131E+03  0.30764450471E+03  0.00000000000E+00 0.  1.
          1    1    3    3  501    0 -0.20225744159E+03  0.22053229520E+03 -0.73698253554E+03  0.79541550374E+03  0.00000000000E+00 0.  1.
         -1    1    1    2    0  502  0.22812428044E+02 -0.24102848437E+02  0.97554761393E+02  0.10304506610E+03  0.00000000000E+00 0. -1.
<mgrwt>
<rscale>  1 0.64966056E+03</rscale>
<asrwt>0</asrwt>
<pdfrwt beam="1">  1       21 0.31708472E-01 0.64966056E+03</pdfrwt>
<pdfrwt beam="2">0</pdfrwt>
<totfact> 0.90798473E+02</totfact>
</mgrwt>
</event>
<event>
 6    1  0.1364923E-004  0.6731014E+03  0.7818608E-02  0.9764371E-01
         21   -1    0    0  501  502  0.00000000000E+00  0.00000000000E+00  0.45713376435E+03  0.45713376435E+03  0.00000000000E+00 0. -1.
         13   -1    0    0    0    0 -0.00000000000E+00 -0.00000000000E+00 -0.10000000000E+04  0.10000000000E+04  0.00000000000E+00 0.  1.
    9000005    2    1    2  501    0 -0.50929012112E+01 -0.20573027633E+02 -0.88637000101E+03  0.11129767886E+04  0.67276769115E+03 0.  0.
         13    1    3    3    0    0  0.18619346869E+03  0.25434592455E+03 -0.28658406326E+03  0.42601676309E+03  0.00000000000E+00 0.  1.
          3    1    3    3  501    0 -0.19128636991E+03 -0.27491895218E+03 -0.59978593775E+03  0.68696002555E+03  0.00000000000E+00 0.  1.
         -3    1    1    2    0  502  0.50929012112E+01  0.20573027633E+02  0.34350376536E+03  0.34415697570E+03  0.00000000000E+00 0. -1.
<mgrwt>
<rscale>  1 0.67310144E+03</rscale>
<asrwt>0</asrwt>
<pdfrwt beam="1">  1       21 0.70328269E-01 0.67310144E+03</pdfrwt>
<pdfrwt beam="2">0</pdfrwt>
<totfact> 0.16574729E+02</totfact>
</mgrwt>
</event>
<event>
 6    1  0.1364923E-004  0.6490893E+03  0.7818608E-02  0.9808489E-01
         21   -1    0    0  501  502  0.00000000000E+00  0.00000000000E+00  0.13154720230E+03  0.13154720230E+03  0.00000000000E+00 0.  1.
         13   -1    0    0    0    0 -0.00000000000E+00 -0.00000000000E+00 -0.10000000000E+04  0.10000000000E+04  0.00000000000E+00 0.  1.
    9000005    2    1    2  501    0  0.64885036386E+02 -0.17377628610E+02 -0.83160309832E+03  0.10549316016E+04  0.64560430687E+03 0.  0.
         13    1    3    3    0    0 -0.10497987298E+03  0.27482754973E+03 -0.50779342611E+03  0.58686039176E+03  0.00000000000E+00 0.  1.
          1    1    3    3  501    0  0.16986490936E+03 -0.29220517834E+03 -0.32380967221E+03  0.46807120986E+03  0.00000000000E+00 0.  1.
         -1    1    1    2    0  502 -0.64885036386E+02  0.17377628610E+02 -0.36849699379E+02  0.76615600678E+02  0.00000000000E+00 0. -1.
<mgrwt>
<rscale>  1 0.64908934E+03</rscale>
<asrwt>0</asrwt>
<pdfrwt beam="1">  1       21 0.20238031E-01 0.64908934E+03</pdfrwt>
<pdfrwt beam="2">0</pdfrwt>
<totfact> 0.21939611E+03</totfact>
</mgrwt>
</event>
<event>
 6    1  0.1364923E-004  0.6566641E+03  0.7818608E-02  0.9794354E-01
         21   -1    0    0  501  502  0.00000000000E+00  0.00000000000E+00  0.23627614230E+03  0.23627614230E+03  0.00000000000E+00 0. -1.
         13   -1    0    0    0    0 -0.00000000000E+00 -0.00000000000E+00 -0.10000000000E+04  0.10000000000E+04  0.00000000000E+00 0.  1.
    9000005    2    1    2  501    0 -0.55983795808E+01 -0.46254435239E+02 -0.88749973090E+03  0.11040215340E+04  0.65500913012E+03 0.  0.
         13    1    3    3    0    0  0.46735020032E+01 -0.21851057629E+03 -0.90458639338E+03  0.93061552569E+03  0.00000000000E+00 0.  1.
          3    1    3    3  501    0 -0.10271881584E+02  0.17225614105E+03  0.17086662478E+02  0.17340600830E+03  0.00000000000E+00 0.  1.
         -1    1    1    2    0  502  0.55983795808E+01  0.46254435239E+02  0.12377587319E+03  0.13225460831E+03  0.00000000000E+00 0. -1.
<mgrwt>
<rscale>  1 0.65666413E+03</rscale>
<asrwt>0</asrwt>
<pdfrwt beam="1">  1       21 0.36350175E-01 0.65666413E+03</pdfrwt>
<pdfrwt beam="2">0</pdfrwt>
<totfact> 0.68757273E+02</totfact>
</mgrwt>
</event>
<event>
 6    1  0.1364923E-004  0.6556854E+03  0.7818608E-02  0.9796169E-01
         21   -1    0    0  501  502  0.00000000000E+00  0.00000000000E+00  0.11544121158E+03  0.11544121158E+03  0.00000000000E+00 0.  1.
         13   -1    0    0    0    0 -0.00000000000E+00 -0.00000000000E+00 -0.10000000000E+04  0.10000000000E+04  0.00000000000E+00 0.  1.
    9000005    2    1    2  501    0 -0.21744813391E+02 -0.36174718086E+01 -0.86826593884E+03  0.10880299008E+04  0.65531473464E+03 0.  0.
         13    1    3    3    0    0  0.73497953590E+02 -0.27784013766E+03 -0.68977797638E+03  0.74725547705E+03  0.00000000000E+00 0.  1.
          1    1    3    3  501    0 -0.95242766981E+02  0.27422266585E+03 -0.17848796246E+03  0.34077442374E+03  0.00000000000E+00 0.  1.
         -1    1    1    2    0  502  0.21744813391E+02  0.36174718086E+01 -0.16292849589E+02  0.27411310793E+02  0.00000000000E+00 0. -1.
<mgrwt>
<rscale>  1 0.65568539E+03</rscale>
<asrwt>0</asrwt>
<pdfrwt beam="1">  1       21 0.17760186E-01 0.65568539E+03</pdfrwt>
<pdfrwt beam="2">0</pdfrwt>
<totfact> 0.28140225E+03</totfact>
</mgrwt>
</event>
<event>
 6    1  0.1364923E-004  0.6478294E+03  0.7818608E-02  0.9810861E-01
         21   -1    0    0  501  502  0.00000000000E+00  0.00000000000E+00  0.17008741665E+03  0.17008741665E+03  0.00000000000E+00 0.  1.
         13   -1    0    0    0    0 -0.00000000000E+00 -0.00000000000E+00 -0.10000000000E+04  0.10000000000E+04  0.00000000000E+00 0.  1.
    9000005    2    1    2  501    0 -0.25527179223E+02 -0.16694313394E+00 -0.89230506520E+03  0.11026746097E+04  0.64732627071E+03 0.  0.
         13    1    3    3    0    0 -0.68825241852E+02  0.23845092558E+03 -0.80906028469E+03  0.84627082077E+03  0.00000000000E+00 0.  1.
          3    1    3    3  501    0  0.43298062629E+02 -0.23861786871E+03 -0.83244780511E+02  0.25640378893E+03  0.00000000000E+00 0.  1.
         -3    1    1    2    0  502  0.25527179223E+02  0.16694313394E+00  0.62392481850E+02  0.67412806948E+02  0.00000000000E+00 0. -1.
<mgrwt>
<rscale>  1 0.64782943E+03</rscale>
<asrwt>0</asrwt>
<pdfrwt beam="1">  1       21 0.26167294E-01 0.64782943E+03</pdfrwt>
<pdfrwt beam="2">0</pdfrwt>
<totfact> 0.13314423E+03</totfact>
</mgrwt>
</event>
<event>
 6    1  0.1364923E-004  0.6756991E+03  0.7818608E-02  0.9759717E-01
         21   -1    0    0  501  502  0.00000000000E+00  0.00000000000E+00  0.14691257708E+03  0.14691257708E+03  0.00000000000E+00 0.  1.
         13   -1    0    0    0    0 -0.00000000000E+00 -0.00000000000E+00 -0.10000000000E+04  0.10000000000E+04  0.00000000000E+00 0.  1.
    9000005    2    1    2  501    0  0.37469396749E+02  0.35709498528E+02 -0.86107383092E+03  0.10945398104E+04  0.67371368567E+03 0.  0.
         13    1    3    3    0    0  0.50135861664E+02 -0.30455988768E+03 -0.25935078465E+03  0.40315401438E+03  0.00000000000E+00 0.  1.
          1    1    3    3  501    0 -0.12666464915E+02  0.34026938620E+03 -0.60172304627E+03  0.69138579602E+03  0.00000000000E+00 0.  1.
         -3    1    1    2    0  502 -0.37469396749E+02 -0.35709498528E+02  0.79864080034E+01  0.52372766689E+02  0.00000000000E+00 0. -1.
<mgrwt>
<rscale>  1 0.67569909E+03</rscale>
<asrwt>0</asrwt>
<pdfrwt beam="1">  1       21 0.22601934E-01 0.67569909E+03</pdfrwt>
<pdfrwt beam="2">0</pdfrwt>
<totfact> 0.17705708E+03</totfact>
</mgrwt>
</event>
<event>
 6    1  0.1364923E-004  0.6450804E+03  0.7818608E-02  0.9816054E-01
         21   -1    0    0  501  502  0.00000000000E+00  0.00000000000E+00  0.13069981516E+03  0.13069981516E+03  0.00000000000E+00 0.  1.
         13   -1    0    0    0    0 -0.00000000000E+00 -0.00000000000E+00 -0.10000000000E+04  0.10000000000E+04  0.00000000000E+00 0.  1.
    9000005    2    1    2  501    0  0.39450724633E+02 -0.45259387162E+02 -0.85113979569E+03  0.10679736521E+04  0.64228031104E+03 0.  0.
         13    1    3    3    0    0  0.96610197727E+02 -0.26825034321E+03 -0.77456030089E+03  0.82536987869E+03  0.00000000000E+00 0.  1.
          3    1    3    3  501    0 -0.57159473094E+02  0.22299095605E+03 -0.76579494807E+02  0.24260377340E+03  0.00000000000E+00 0.  1.
         -1    1    1    2    0  502 -0.39450724633E+02  0.45259387162E+02 -0.18160389143E+02  0.62726163075E+02  0.00000000000E+00 0. -1.
<mgrwt>
<rscale>  1 0.64508044E+03</rscale>
<asrwt>0</asrwt>
<pdfrwt beam="1">  1       21 0.20107663E-01 0.64508044E+03</pdfrwt>
<pdfrwt beam="2">0</pdfrwt>
<totfact> 0.22216941E+03</totfact>
</mgrwt>
</event>
<event>
 6    1  0.1364923E-004  0.6522547E+03  0.7818608E-02  0.9802558E-01
         21   -1    0    0  501  502  0.00000000000E+00  0.00000000000E+00  0.27058577303E+03  0.27058577303E+03  0.00000000000E+00 0. -1.
         13   -1    0    0    0    0 -0.00000000000E+00 -0.00000000000E+00 -0.10000000000E+04  0.10000000000E+04  0.00000000000E+00 0.  1.
    9000005    2    1    2  501    0 -0.28687562645E+02 -0.99213077349E+01 -0.89208750653E+03  0.11051046427E+04  0.65154795950E+03 0.  0.
         13    1    3    3    0    0  0.20120587916E+03  0.15635642662E+03 -0.74114847689E+03  0.78372967454E+03  0.00000000000E+00 0.  1.
          3    1    3    3  501    0 -0.22989344180E+03 -0.16627773435E+03 -0.15093902963E+03  0.32137496821E+03  0.00000000000E+00 0.  1.
         -1    1    1    2    0  502  0.28687562645E+02  0.99213077349E+01  0.16267327956E+03  0.16548113028E+03  0.00000000000E+00 0. -1.
<mgrwt>
<rscale>  1 0.65225467E+03</rscale>
<asrwt>0</asrwt>
<pdfrwt beam="1">  1       21 0.41628579E-01 0.65225467E+03</pdfrwt>
<pdfrwt beam="2">0</pdfrwt>
<totfact> 0.51962358E+02</totfact>
</mgrwt>
</event>
<event>
 6    1  0.1364923E-004  0.6326071E+03  0.7818608E-02  0.9839974E-01
         21   -1    0    0  501  502  0.00000000000E+00  0.00000000000E+00  0.14750034316E+03  0.14750034316E+03  0.00000000000E+00 0.  1.
         13   -1    0    0    0    0 -0.00000000000E+00 -0.00000000000E+00 -0.10000000000E+04  0.10000000000E+04  0.00000000000E+00 0.  1.
    9000005    2    1    2  501    0  0.89102750500E+02 -0.86610197991E+02 -0.77755512167E+03  0.10023889725E+04  0.62028304702E+03 0.  0.
         13    1    3    3    0    0  0.25662446469E+03  0.11302728357E+03 -0.65880043768E+03  0.71599532079E+03  0.00000000000E+00 0.  1.
          3    1    3    3  501    0 -0.16752171419E+03 -0.19963748156E+03 -0.11875468399E+03  0.28639365171E+03  0.00000000000E+00 0.  1.
         -1    1    1    2    0  502 -0.89102750500E+02  0.86610197991E+02 -0.74944535169E+02  0.14511137066E+03  0.00000000000E+00 0. -1.
<mgrwt>
<rscale>  1 0.63260705E+03</rscale>
<asrwt>0</asrwt>
<pdfrwt beam="1">  1       21 0.22692360E-01 0.63260705E+03</pdfrwt>
<pdfrwt beam="2">0</pdfrwt>
<totfact> 0.17603936E+03</totfact>
</mgrwt>
</event>
<event>
 6    1  0.1364923E-004  0.6734871E+03  0.7818608E-02  0.9763679E-01
         21   -1    0    0  501  502  0.00000000000E+00  0.00000000000E+00  0.19922460737E+03  0.19922460737E+03  0.00000000000E+00 0. -1.
         13   -1    0    0    0    0 -0.00000000000E+00 -0.00000000000E+00 -0.10000000000E+04  0.10000000000E+04  0.00000000000E+00 0.  1.
    9000005    2    1    2  501    0  0.15592720814E+03  0.66385503047E+02 -0.77673467968E+03  0.10280571889E+04  0.65181630224E+03 0.  0.
         13    1    3    3    0    0 -0.12725466233E+03  0.25245506085E+03 -0.55573907409E+03  0.62351682039E+03  0.00000000000E+00 0.  1.
          1    1    3    3  501    0  0.28318187047E+03 -0.18606955780E+03 -0.22099560559E+03  0.40454036856E+03  0.00000000000E+00 0.  1.
         -3    1    1    2    0  502 -0.15592720814E+03 -0.66385503047E+02 -0.24040712948E+02  0.17116741843E+03  0.00000000000E+00 0. -1.
<mgrwt>
<rscale>  1 0.67348706E+03</rscale>
<asrwt>0</asrwt>
<pdfrwt beam="1">  1       21 0.30649939E-01 0.67348706E+03</pdfrwt>
<pdfrwt beam="2">0</pdfrwt>
<totfact> 0.97068009E+02</totfact>
</mgrwt>
</event>
<event>
 6    1  0.1364923E-004  0.5928237E+03  0.7818608E-02  0.9920407E-01
         21   -1    0    0  501  502  0.00000000000E+00  0.00000000000E+00  0.14108534316E+03  0.14108534316E+03  0.00000000000E+00 0.  1.
         13   -1    0    0    0    0 -0.00000000000E+00 -0.00000000000E+00 -0.10000000000E+04  0.10000000000E+04  0.00000000000E+00 0.  1.
    9000005    2    1    2  501    0  0.14839714805E+02  0.78293334905E+02 -0.87776093058E+03  0.10591997800E+04  0.58744349447E+03 0.  0.
         13    1    3    3    0    0  0.19994153257E+03 -0.56515249856E+02 -0.69443628270E+02  0.21907306412E+03  0.00000000000E+00 0.  1.
          1    1    3    3  501    0 -0.18510181777E+03  0.13480858476E+03 -0.80831730231E+03  0.84012671584E+03  0.00000000000E+00 0.  1.
         -3    1    1    2    0  502 -0.14839714805E+02 -0.78293334905E+02  0.18846273732E+02  0.81885563194E+02  0.00000000000E+00 0. -1.
<mgrwt>
<rscale>  1 0.59282369E+03</rscale>
<asrwt>0</asrwt>
<pdfrwt beam="1">  1       21 0.21705437E-01 0.59282369E+03</pdfrwt>
<pdfrwt beam="2">0</pdfrwt>
<totfact> 0.19221866E+03</totfact>
</mgrwt>
</event>
<event>
 6    1  0.1364923E-004  0.6618115E+03  0.7818608E-02  0.9784865E-01
         21   -1    0    0  501  502  0.00000000000E+00  0.00000000000E+00  0.14215501594E+03  0.14215501594E+03  0.00000000000E+00 0.  1.
         13   -1    0    0    0    0 -0.00000000000E+00 -0.00000000000E+00 -0.10000000000E+04  0.10000000000E+04  0.00000000000E+00 0.  1.
    9000005    2    1    2  501    0 -0.57815250505E+02 -0.15247928632E+02 -0.85643375682E+03  0.10823462032E+04  0.65910501535E+03 0.  0.
         13    1    3    3    0    0 -0.65630188553E+02  0.15570838862E+03 -0.89173928010E+03  0.90760749645E+03  0.00000000000E+00 0.  1.
          3    1    3    3  501    0  0.78149380483E+01 -0.17095631725E+03  0.35305523279E+02  0.17473870676E+03  0.00000000000E+00 0.  1.
         -1    1    1    2    0  502  0.57815250505E+02  0.15247928632E+02 -0.14112272332E+01  0.59808812735E+02  0.00000000000E+00 0. -1.
<mgrwt>
<rscale>  1 0.66181155E+03</rscale>
<asrwt>0</asrwt>
<pdfrwt beam="1">  1       21 0.21870002E-01 0.66181155E+03</pdfrwt>
<pdfrwt beam="2">0</pdfrwt>
<totfact> 0.18883816E+03</totfact>
</mgrwt>
</event>
<event>
 6    1  0.1364923E-004  0.6684584E+03  0.7818608E-02  0.9772747E-01
         21   -1    0    0  501  502  0.00000000000E+00  0.00000000000E+00  0.20021413162E+03  0.20021413162E+03  0.00000000000E+00 0.  1.
         13   -1    0    0    0    0 -0.00000000000E+00 -0.00000000000E+00 -0.10000000000E+04  0.10000000000E+04  0.00000000000E+00 0.  1.
    9000005    2    1    2  501    0 -0.97494891723E+02 -0.10777757076E+03 -0.81502204357E+03  0.10540861066E+04  0.65246864283E+03 0.  0.
         13    1    3    3    0    0 -0.53307168221E+02 -0.31946290918E+03 -0.76698782429E+03  0.83256743099E+03  0.00000000000E+00 0.  1.
          3    1    3    3  501    0 -0.44187723502E+02  0.21168533842E+03 -0.48034219275E+02  0.22151867558E+03  0.00000000000E+00 0.  1.
         -1    1    1    2    0  502  0.97494891723E+02  0.10777757076E+03  0.15236175185E+02  0.14612802505E+03  0.00000000000E+00 0. -1.
<mgrwt>
<rscale>  1 0.66845837E+03</rscale>
<asrwt>0</asrwt>
<pdfrwt beam="1">  1       21 0.30802173E-01 0.66845837E+03</pdfrwt>
<pdfrwt beam="2">0</pdfrwt>
<totfact> 0.96136941E+02</totfact>
</mgrwt>
</event>
<event>
 6    1  0.1364923E-004  0.6475614E+03  0.7818608E-02  0.9811366E-01
         21   -1    0    0  501  502  0.00000000000E+00  0.00000000000E+00  0.15057362684E+03  0.15057362684E+03  0.00000000000E+00 0.  1.
         13   -1    0    0    0    0 -0.00000000000E+00 -0.00000000000E+00 -0.10000000000E+04  0.10000000000E+04  0.00000000000E+00 0.  1.
    9000005    2    1    2  501    0  0.17569515980E+02  0.19614915607E+02 -0.89093991264E+03  0.11014125979E+04  0.64702577233E+03 0.  0.
         13    1    3    3    0    0  0.14225390857E+03 -0.25661699441E+03 -0.65371419861E+03  0.71654079422E+03  0.00000000000E+00 0.  1.
          1    1    3    3  501    0 -0.12468439259E+03  0.27623191002E+03 -0.23722571403E+03  0.38487180368E+03  0.00000000000E+00 0.  1.
         -3    1    1    2    0  502 -0.17569515980E+02 -0.19614915607E+02  0.41513539479E+02  0.49161028937E+02  0.00000000000E+00 0. -1.
<mgrwt>
<rscale>  1 0.64756141E+03</rscale>
<asrwt>0</asrwt>
<pdfrwt beam="1">  1       21 0.23165173E-01 0.64756141E+03</pdfrwt>
<pdfrwt beam="2">0</pdfrwt>
<totfact> 0.16900628E+03</totfact>
</mgrwt>
</event>
<event>
 6    1  0.1364923E-004  0.6715335E+03  0.7818608E-02  0.9767192E-01
         21   -1    0    0  501  502  0.00000000000E+00  0.00000000000E+00  0.30911828077E+03  0.30911828077E+03  0.00000000000E+00 0.  1.
         13   -1    0    0    0    0 -0.00000000000E+00 -0.00000000000E+00 -0.10000000000E+04  0.10000000000E+04  0.00000000000E+00 0.  1.
    9000005    2    1    2  501    0  0.20623962511E+02 -0.73444981289E+02 -0.87897502373E+03  0.11061438875E+04  0.66718640162E+03 0.  0.
         13    1    3    3    0    0 -0.15270847043E+03  0.23073156981E+02  0.45195207988E+02  0.16091878181E+03  0.00000000000E+00 0.  1.
          3    1    3    3  501    0  0.17333243294E+03 -0.96518138270E+02 -0.92417023172E+03  0.94522510574E+03  0.00000000000E+00 0.  1.
         -3    1    1    2    0  502 -0.20623962511E+02  0.73444981289E+02  0.18809330450E+03  0.20297439322E+03  0.00000000000E+00 0. -1.
<mgrwt>
<rscale>  1 0.67153347E+03</rscale>
<asrwt>0</asrwt>
<pdfrwt beam="1">  1       21 0.47556657E-01 0.67153347E+03</pdfrwt>
<pdfrwt beam="2">0</pdfrwt>
<totfact> 0.39178615E+02</totfact>
</mgrwt>
</event>
<event>
 6    1  0.1364923E-004  0.6570496E+03  0.7818608E-02  0.9793640E-01
         21   -1    0    0  501  502  0.00000000000E+00  0.00000000000E+00  0.16856196332E+03  0.16856196332E+03  0.00000000000E+00 0.  1.
         13   -1    0    0    0    0 -0.00000000000E+00 -0.00000000000E+00 -0.10000000000E+04  0.10000000000E+04  0.00000000000E+00 0.  1.
    9000005    2    1    2  501    0  0.83834564965E+01 -0.37696284143E+02 -0.88517809787E+03  0.11023857867E+04  0.65591376377E+03 0.  0.
         13    1    3    3    0    0 -0.20984108045E+03  0.23021005471E+03 -0.41577404688E+03  0.51951708961E+03  0.00000000000E+00 0.  1.
          3    1    3    3  501    0  0.21822453694E+03 -0.26790633885E+03 -0.46940405098E+03  0.58286869705E+03  0.00000000000E+00 0.  1.
         -1    1    1    2    0  502 -0.83834564965E+01  0.37696284143E+02  0.53740061193E+02  0.66176176665E+02  0.00000000000E+00 0. -1.
<mgrwt>
<rscale>  1 0.65704959E+03</rscale>
<asrwt>0</asrwt>
<pdfrwt beam="1">  1       21 0.25932609E-01 0.65704959E+03</pdfrwt>
<pdfrwt beam="2">0</pdfrwt>
<totfact> 0.13545912E+03</totfact>
</mgrwt>
</event>
<event>
 6    1  0.1364923E-004  0.7000854E+03  0.7818608E-02  0.9717086E-01
         21   -1    0    0  501  502  0.00000000000E+00  0.00000000000E+00  0.13471559137E+03  0.13471559137E+03  0.00000000000E+00 0.  1.
         13   -1    0    0    0    0 -0.00000000000E+00 -0.00000000000E+00 -0.10000000000E+04  0.10000000000E+04  0.00000000000E+00 0.  1.
    9000005    2    1    2  501    0  0.23541489754E+02 -0.48491179628E+01 -0.86196484987E+03  0.11104517262E+04  0.69967272208E+03 0.  0.
         13    1    3    3    0    0  0.14311367776E+03 -0.22905655304E+03 -0.80628981665E+03  0.85032446612E+03  0.00000000000E+00 0.  1.
          3    1    3    3  501    0 -0.11957218800E+03  0.22420743508E+03 -0.55675033224E+02  0.26012726004E+03  0.00000000000E+00 0.  1.
         -1    1    1    2    0  502 -0.23541489754E+02  0.48491179628E+01 -0.33195587557E+01  0.24263865215E+02  0.00000000000E+00 0. -1.
<mgrwt>
<rscale>  1 0.70008545E+03</rscale>
<asrwt>0</asrwt>
<pdfrwt beam="1">  1       21 0.20725475E-01 0.70008545E+03</pdfrwt>
<pdfrwt beam="2">0</pdfrwt>
<totfact> 0.20916199E+03</totfact>
</mgrwt>
</event>
<event>
 6    1  0.1364923E-004  0.6399483E+03  0.7818608E-02  0.9825825E-01
         21   -1    0    0  501  502  0.00000000000E+00  0.00000000000E+00  0.12269539056E+03  0.12269539056E+03  0.00000000000E+00 0.  1.
         13   -1    0    0    0    0 -0.00000000000E+00 -0.00000000000E+00 -0.10000000000E+04  0.10000000000E+04  0.00000000000E+00 0.  1.
    9000005    2    1    2  501    0 -0.41247045470E+02 -0.44233784110E+02 -0.80746518001E+03  0.10303076624E+04  0.63708391581E+03 0.  0.
         13    1    3    3    0    0  0.29215712341E+03 -0.84446126057E+02 -0.38678071161E+03  0.49202261314E+03  0.00000000000E+00 0.  1.
          1    1    3    3  501    0 -0.33340416888E+03  0.40212341948E+02 -0.42068446840E+03  0.53828504923E+03  0.00000000000E+00 0.  1.
         -3    1    1    2    0  502  0.41247045470E+02  0.44233784110E+02 -0.69839429430E+02  0.92387728188E+02  0.00000000000E+00 0. -1.
<mgrwt>
<rscale>  1 0.63994833E+03</rscale>
<asrwt>0</asrwt>
<pdfrwt beam="1">  1       21 0.18876213E-01 0.63994833E+03</pdfrwt>
<pdfrwt beam="2">0</pdfrwt>
<totfact> 0.25076139E+03</totfact>
</mgrwt>
</event>
<event>
 6    1  0.1364923E-004  0.6531800E+03  0.7818608E-02  0.9800830E-01
         21   -1    0    0  501  502  0.00000000000E+00  0.00000000000E+00  0.11971254476E+03  0.11971254476E+03  0.00000000000E+00 0.  1.
         13   -1    0    0    0    0 -0.00000000000E+00 -0.00000000000E+00 -0.10000000000E+04  0.10000000000E+04  0.00000000000E+00 0.  1.
    9000005    2    1    2  501    0  0.13405449686E+02 -0.18022990505E+02 -0.88160653736E+03  0.10972120060E+04  0.65279366195E+03 0.  0.
         13    1    3    3    0    0  0.24543456542E+03  0.20117601704E+03 -0.31656076371E+03  0.44824171254E+03  0.00000000000E+00 0.  1.
          3    1    3    3  501    0 -0.23202911573E+03 -0.21919900755E+03 -0.56504577364E+03  0.64897029344E+03  0.00000000000E+00 0.  1.
         -3    1    1    2    0  502 -0.13405449686E+02  0.18022990505E+02  0.13190821195E+01  0.22500538786E+02  0.00000000000E+00 0. -1.
<mgrwt>
<rscale>  1 0.65317999E+03</rscale>
<asrwt>0</asrwt>
<pdfrwt beam="1">  1       21 0.18417314E-01 0.65317999E+03</pdfrwt>
<pdfrwt beam="2">0</pdfrwt>
<totfact> 0.26266748E+03</totfact>
</mgrwt>
</event>
<event>
 6    1  0.1364923E-004  0.6514816E+03  0.7818608E-02  0.9804003E-01
         21   -1    0    0  501  502  0.00000000000E+00  0.00000000000E+00  0.12414554542E+03  0.12414554542E+03  0.00000000000E+00 0.  1.
         13   -1    0    0    0    0 -0.00000000000E+00 -0.00000000000E+00 -0.10000000000E+04  0.10000000000E+04  0.00000000000E+00 0.  1.
    9000005    2    1    2  501    0  0.19748163539E+02 -0.43624138472E+01 -0.88739331039E+03  0.11008610911E+04  0.65116759290E+03 0.  0.
         13    1    3    3    0    0  0.10260754436E+03 -0.17338783199E+02  0.79114466906E+02  0.13072123178E+03  0.00000000000E+00 0.  1.
          3    1    3    3  501    0 -0.82859380825E+02  0.12976369352E+02 -0.96650777730E+03  0.97013985936E+03  0.00000000000E+00 0.  1.
         -1    1    1    2    0  502 -0.19748163539E+02  0.43624138472E+01  0.11538855807E+02  0.23284454279E+02  0.00000000000E+00 0. -1.
<mgrwt>
<rscale>  1 0.65148158E+03</rscale>
<asrwt>0</asrwt>
<pdfrwt beam="1">  1       21 0.19099314E-01 0.65148158E+03</pdfrwt>
<pdfrwt beam="2">0</pdfrwt>
<totfact> 0.24509877E+03</totfact>
</mgrwt>
</event>
<event>
 6    1  0.1364923E-004  0.6400994E+03  0.7818608E-02  0.9825536E-01
         21   -1    0    0  501  502  0.00000000000E+00  0.00000000000E+00  0.25087704777E+03  0.25087704777E+03  0.00000000000E+00 0. -1.
         13   -1    0    0    0    0 -0.00000000000E+00 -0.00000000000E+00 -0.10000000000E+04  0.10000000000E+04  0.00000000000E+00 0.  1.
    9000005    2    1    2  501    0 -0.31592850970E+02  0.12765655566E+02 -0.89540919507E+03  0.11006747341E+04  0.63919181270E+03 0.  0.
         13    1    3    3    0    0 -0.90376003538E+02  0.68320478606E+02 -0.97831365344E+03  0.98485182353E+03  0.00000000000E+00 0.  1.
          3    1    3    3  501    0  0.58783152568E+02 -0.55554823041E+02  0.82904458368E+02  0.11582291054E+03  0.00000000000E+00 0.  1.
         -1    1    1    2    0  502  0.31592850970E+02 -0.12765655566E+02  0.14628624284E+03  0.15020231369E+03  0.00000000000E+00 0. -1.
<mgrwt>
<rscale>  1 0.64009940E+03</rscale>
<asrwt>0</asrwt>
<pdfrwt beam="1">  1       21 0.38596468E-01 0.64009940E+03</pdfrwt>
<pdfrwt beam="2">0</pdfrwt>
<totfact> 0.60858092E+02</totfact>
</mgrwt>
</event>
<event>
 6    1  0.1364923E-004  0.6543071E+03  0.7818608E-02  0.9798731E-01
         21   -1    0    0  501  502  0.00000000000E+00  0.00000000000E+00  0.12432232923E+03  0.12432232923E+03  0.00000000000E+00 0.  1.
         13   -1    0    0    0    0 -0.00000000000E+00 -0.00000000000E+00 -0.10000000000E+04  0.10000000000E+04  0.00000000000E+00 0.  1.
    9000005    2    1    2  501    0 -0.19972653217E+02  0.41872147930E+02 -0.84497523438E+03  0.10686911936E+04  0.65266035346E+03 0.  0.
         13    1    3    3    0    0 -0.29494177404E+03  0.50667810385E+02 -0.18041777566E+03  0.34944019639E+03  0.00000000000E+00 0.  1.
          3    1    3    3  501    0  0.27496912082E+03 -0.87956624547E+01 -0.66455745872E+03  0.71925099724E+03  0.00000000000E+00 0.  1.
         -1    1    1    2    0  502  0.19972653217E+02 -0.41872147930E+02 -0.30702436383E+02  0.55631135604E+02  0.00000000000E+00 0. -1.
<mgrwt>
<rscale>  1 0.65430705E+03</rscale>
<asrwt>0</asrwt>
<pdfrwt beam="1">  1       21 0.19126512E-01 0.65430705E+03</pdfrwt>
<pdfrwt beam="2">0</pdfrwt>
<totfact> 0.24440845E+03</totfact>
</mgrwt>
</event>
<event>
 6    1  0.1364923E-004  0.6594683E+03  0.7818608E-02  0.9789173E-01
         21   -1    0    0  501  502  0.00000000000E+00  0.00000000000E+00  0.22624369955E+03  0.22624369955E+03  0.00000000000E+00 0. -1.
         13   -1    0    0    0    0 -0.00000000000E+00 -0.00000000000E+00 -0.10000000000E+04  0.10000000000E+04  0.00000000000E+00 0.  1.
    9000005    2    1    2  501    0 -0.98296428508E+02 -0.67075778557E+02 -0.85674584515E+03  0.10811623001E+04  0.64864252723E+03 0.  0.
         13    1    3    3    0    0  0.14464521707E+02 -0.33770583921E+03 -0.30002670901E+03  0.45196292143E+03  0.00000000000E+00 0.  1.
          1    1    3    3  501    0 -0.11276095022E+03  0.27063006066E+03 -0.55671913613E+03  0.62919937870E+03  0.00000000000E+00 0.  1.
         -1    1    1    2    0  502  0.98296428508E+02  0.67075778557E+02  0.82989544694E+02  0.14508139941E+03  0.00000000000E+00 0. -1.
<mgrwt>
<rscale>  1 0.65946833E+03</rscale>
<asrwt>0</asrwt>
<pdfrwt beam="1">  1       21 0.34806722E-01 0.65946833E+03</pdfrwt>
<pdfrwt beam="2">0</pdfrwt>
<totfact> 0.75117247E+02</totfact>
</mgrwt>
</event>
<event>
 6    1  0.1364923E-004  0.6819366E+03  0.7818608E-02  0.9748632E-01
         21   -1    0    0  501  502  0.00000000000E+00  0.00000000000E+00  0.44383955772E+03  0.44383955772E+03  0.00000000000E+00 0. -1.
         13   -1    0    0    0    0 -0.00000000000E+00 -0.00000000000E+00 -0.10000000000E+04  0.10000000000E+04  0.00000000000E+00 0.  1.
    9000005    2    1    2  501    0  0.17990240580E+03  0.29688864254E+02 -0.85507320435E+03  0.10937036647E+04  0.65710822323E+03 0.  0.
         13    1    3    3    0    0 -0.12492039962E+02 -0.14428880844E+03 -0.81912885748E+03  0.83183375531E+03  0.00000000000E+00 0.  1.
          3    1    3    3  501    0  0.19239444576E+03  0.17397767270E+03 -0.35944346868E+02  0.26186990936E+03  0.00000000000E+00 0.  1.
         -3    1    1    2    0  502 -0.17990240580E+03 -0.29688864254E+02  0.29891276207E+03  0.35013589305E+03  0.00000000000E+00 0. -1.
<mgrwt>
<rscale>  1 0.68193660E+03</rscale>
<asrwt>0</asrwt>
<pdfrwt beam="1">  1       21 0.68283007E-01 0.68193660E+03</pdfrwt>
<pdfrwt beam="2">0</pdfrwt>
<totfact> 0.17704498E+02</totfact>
</mgrwt>
</event>
<event>
 6    1  0.1364923E-004  0.6420787E+03  0.7818608E-02  0.9821757E-01
         21   -1    0    0  501  502  0.00000000000E+00  0.00000000000E+00  0.22242941314E+03  0.22242941314E+03  0.00000000000E+00 0.  1.
         13   -1    0    0    0    0 -0.00000000000E+00 -0.00000000000E+00 -0.10000000000E+04  0.10000000000E+04  0.00000000000E+00 0.  1.
    9000005    2    1    2  501    0 -0.35430994618E+02  0.66141824563E+02 -0.88377474347E+03  0.10923931904E+04  0.63767937786E+03 0.  0.
         13    1    3    3    0    0 -0.25051234905E+03 -0.14120875114E+03 -0.21226850869E+03  0.35742729079E+03  0.00000000000E+00 0.  1.
          1    1    3    3  501    0  0.21508135443E+03  0.20735057570E+03 -0.67150623478E+03  0.73496589963E+03  0.00000000000E+00 0.  1.
         -3    1    1    2    0  502  0.35430994618E+02 -0.66141824563E+02  0.10620415661E+03  0.13003622272E+03  0.00000000000E+00 0. -1.
<mgrwt>
<rscale>  1 0.64207872E+03</rscale>
<asrwt>0</asrwt>
<pdfrwt beam="1">  1       21 0.34219909E-01 0.64207872E+03</pdfrwt>
<pdfrwt beam="2">0</pdfrwt>
<totfact> 0.77859330E+02</totfact>
</mgrwt>
</event>
<event>
 6    1  0.1364923E-004  0.6658007E+03  0.7818608E-02  0.9777574E-01
         21   -1    0    0  501  502  0.00000000000E+00  0.00000000000E+00  0.17505884204E+03  0.17505884204E+03  0.00000000000E+00 0.  1.
         13   -1    0    0    0    0 -0.00000000000E+00 -0.00000000000E+00 -0.10000000000E+04  0.10000000000E+04  0.00000000000E+00 0.  1.
    9000005    2    1    2  501    0  0.13362931190E+03 -0.10595690500E+03 -0.67216826891E+03  0.94609767864E+03  0.64358913687E+03 0.  0.
         13    1    3    3    0    0  0.32778615012E+03 -0.22675417908E+03 -0.57027713326E+03  0.69575658578E+03  0.00000000000E+00 0.  1.
          1    1    3    3  501    0 -0.19415683822E+03  0.12079727407E+03 -0.10189113565E+03  0.25034109286E+03  0.00000000000E+00 0.  1.
         -1    1    1    2    0  502 -0.13362931190E+03  0.10595690500E+03 -0.15277288905E+03  0.22896116340E+03  0.00000000000E+00 0. -1.
<mgrwt>
<rscale>  1 0.66580075E+03</rscale>
<asrwt>0</asrwt>
<pdfrwt beam="1">  1       21 0.26932129E-01 0.66580075E+03</pdfrwt>
<pdfrwt beam="2">0</pdfrwt>
<totfact> 0.12566239E+03</totfact>
</mgrwt>
</event>
<event>
 6    1  0.1364923E-004  0.6600128E+03  0.7818608E-02  0.9788170E-01
         21   -1    0    0  501  502  0.00000000000E+00  0.00000000000E+00  0.22996544390E+03  0.22996544390E+03  0.00000000000E+00 0. -1.
         13   -1    0    0    0    0 -0.00000000000E+00 -0.00000000000E+00 -0.10000000000E+04  0.10000000000E+04  0.00000000000E+00 0.  1.
    9000005    2    1    2  501    0 -0.54933983695E+02  0.17147101959E+03 -0.81067933729E+03  0.10453792815E+04  0.63497779574E+03 0.  0.
         13    1    3    3    0    0  0.22154600537E+03  0.27165047842E+03 -0.32734978440E+03  0.47961911583E+03  0.00000000000E+00 0.  1.
          1    1    3    3  501    0 -0.27647998907E+03 -0.10017945883E+03 -0.48332955289E+03  0.56576016564E+03  0.00000000000E+00 0.  1.
         -3    1    1    2    0  502  0.54933983695E+02 -0.17147101959E+03  0.40644781195E+02  0.18458616243E+03  0.00000000000E+00 0. -1.
<mgrwt>
<rscale>  1 0.66001277E+03</rscale>
<asrwt>0</asrwt>
<pdfrwt beam="1">  1       21 0.35379298E-01 0.66001277E+03</pdfrwt>
<pdfrwt beam="2">0</pdfrwt>
<totfact> 0.72654902E+02</totfact>
</mgrwt>
</event>
<event>
 6    1  0.1364923E-004  0.6566554E+03  0.7818608E-02  0.9794370E-01
         21   -1    0    0  501  502  0.00000000000E+00  0.00000000000E+00  0.17981916158E+03  0.17981916158E+03  0.00000000000E+00 0.  1.
         13   -1    0    0    0    0 -0.00000000000E+00 -0.00000000000E+00 -0.10000000000E+04  0.10000000000E+04  0.00000000000E+00 0.  1.
    9000005    2    1    2  501    0  0.50958315771E+02  0.34991601141E+02 -0.87717849698E+03  0.10957364929E+04  0.65373938549E+03 0.  0.
         13    1    3    3    0    0  0.26907225635E+03 -0.13123983011E+03 -0.18676644063E+03  0.35285333425E+03  0.00000000000E+00 0.  1.
          3    1    3    3  501    0 -0.21811394058E+03  0.16623143125E+03 -0.69041205635E+03  0.74288315862E+03  0.00000000000E+00 0.  1.
         -3    1    1    2    0  502 -0.50958315771E+02 -0.34991601141E+02  0.56997658559E+02  0.84082668713E+02  0.00000000000E+00 0. -1.
<mgrwt>
<rscale>  1 0.65665542E+03</rscale>
<asrwt>0</asrwt>
<pdfrwt beam="1">  1       21 0.27664486E-01 0.65665542E+03</pdfrwt>
<pdfrwt beam="2">0</pdfrwt>
<totfact> 0.11922054E+03</totfact>
</mgrwt>
</event>
<event>
 6    1  0.1364923E-004  0.6502004E+03  0.7818608E-02  0.9806403E-01
         21   -1    0    0  501  502  0.00000000000E+00  0.00000000000E+00  0.30530562353E+03  0.30530562353E+03  0.00000000000E+00 0. -1.
         13   -1    0    0    0    0 -0.00000000000E+00 -0.00000000000E+00 -0.10000000000E+04  0.10000000000E+04  0.00000000000E+00 0.  1.
    9000005    2    1    2  501    0 -0.15592129036E+02  0.15645752453E+02 -0.89363398026E+03  0.11051435142E+04  0.64982504741E+03 0.  0.
         13    1    3    3    0    0 -0.64120941375E+02 -0.23775530724E+03 -0.78933252381E+03  0.82685241391E+03  0.00000000000E+00 0.  1.
          3    1    3    3  501    0  0.48528812339E+02  0.25340105969E+03 -0.10430145644E+03  0.27829110028E+03  0.00000000000E+00 0.  1.
         -1    1    1    2    0  502  0.15592129036E+02 -0.15645752453E+02  0.19893960379E+03  0.20016210934E+03  0.00000000000E+00 0. -1.
<mgrwt>
<rscale>  1 0.65020035E+03</rscale>
<asrwt>0</asrwt>
<pdfrwt beam="1">  1       21 0.46970095E-01 0.65020035E+03</pdfrwt>
<pdfrwt beam="2">0</pdfrwt>
<totfact> 0.40304130E+02</totfact>
</mgrwt>
</event>
<event>
 6    1  0.1364923E-004  0.6400864E+03  0.7818608E-02  0.9825561E-01
         21   -1    0    0  501  502  0.00000000000E+00  0.00000000000E+00  0.11543569757E+03  0.11543569757E+03  0.00000000000E+00 0.  1.
         13   -1    0    0    0    0 -0.00000000000E+00 -0.00000000000E+00 -0.10000000000E+04  0.10000000000E+04  0.00000000000E+00 0.  1.
    9000005    2    1    2  501    0 -0.11009816057E+02  0.30737122876E+02 -0.86893056881E+03  0.10792362445E+04  0.63925311994E+03 0.  0.
         13    1    3    3    0    0 -0.27977273876E+03 -0.11807665305E+03 -0.27103263426E+03  0.40703018338E+03  0.00000000000E+00 0.  1.
          3    1    3    3  501    0  0.26876292270E+03  0.14881377593E+03 -0.59789793455E+03  0.67220606116E+03  0.00000000000E+00 0.  1.
         -1    1    1    2    0  502  0.11009816057E+02 -0.30737122876E+02 -0.15633733624E+02  0.36199453025E+02  0.00000000000E+00 0. -1.
<mgrwt>
<rscale>  1 0.64008635E+03</rscale>
<asrwt>0</asrwt>
<pdfrwt beam="1">  1       21 0.17759338E-01 0.64008635E+03</pdfrwt>
<pdfrwt beam="2">0</pdfrwt>
<totfact> 0.28157098E+03</totfact>
</mgrwt>
</event>
<event>
 6    1  0.1364923E-004  0.7235877E+03  0.7818608E-02  0.9677723E-01
         21   -1    0    0  501  502  0.00000000000E+00  0.00000000000E+00  0.41860571256E+03  0.41860571256E+03  0.00000000000E+00 0. -1.
         13   -1    0    0    0    0 -0.00000000000E+00 -0.00000000000E+00 -0.10000000000E+04  0.10000000000E+04  0.00000000000E+00 0.  1.
    9000005    2    1    2  501    0 -0.43537815396E+02  0.36142361035E+02 -0.86595389026E+03  0.11284747435E+04  0.72137181475E+03 0.  0.
         13    1    3    3    0    0  0.97545056902E+02 -0.12909097824E+03 -0.89478813909E+03  0.90929936360E+03  0.00000000000E+00 0.  1.
          3    1    3    3  501    0 -0.14108287230E+03  0.16523333928E+03  0.28834248831E+02  0.21917537994E+03  0.00000000000E+00 0.  1.
         -1    1    1    2    0  502  0.43537815396E+02 -0.36142361035E+02  0.28455960282E+03  0.29013096903E+03  0.00000000000E+00 0. -1.
<mgrwt>
<rscale>  1 0.72358766E+03</rscale>
<asrwt>0</asrwt>
<pdfrwt beam="1">  1       21 0.64400877E-01 0.72358766E+03</pdfrwt>
<pdfrwt beam="2">0</pdfrwt>
<totfact> 0.20109278E+02</totfact>
</mgrwt>
</event>
<event>
 6    1  0.1364923E-004  0.4681591E+03  0.7818608E-02  0.1022441E+00
         21   -1    0    0  501  502  0.00000000000E+00  0.00000000000E+00  0.40992909992E+03  0.40992909992E+03  0.00000000000E+00 0. -1.
         13   -1    0    0    0    0 -0.00000000000E+00 -0.00000000000E+00 -0.10000000000E+04  0.10000000000E+04  0.00000000000E+00 0.  1.
    9000005    2    1    2  501    0 -0.10321463414E+02  0.71076862840E+02 -0.94137357821E+03  0.10513596859E+04  0.46261703627E+03 0.  0.
         13    1    3    3    0    0  0.21173146729E+03 -0.99269857833E+01 -0.29602834242E+03  0.36409001470E+03  0.00000000000E+00 0.  1.
          1    1    3    3  501    0 -0.22205293071E+03  0.81003848623E+02 -0.64534523580E+03  0.68726967116E+03  0.00000000000E+00 0.  1.
         -1    1    1    2    0  502  0.10321463414E+02 -0.71076862840E+02  0.35130267813E+03  0.35856941406E+03  0.00000000000E+00 0. -1.
<mgrwt>
<rscale>  1 0.46815913E+03</rscale>
<asrwt>0</asrwt>
<pdfrwt beam="1">  1       21 0.63066014E-01 0.46815913E+03</pdfrwt>
<pdfrwt beam="2">0</pdfrwt>
<totfact> 0.21757855E+02</totfact>
</mgrwt>
</event>
<event>
 6    1  0.1364923E-004  0.6495345E+03  0.7818608E-02  0.9807653E-01
         21   -1    0    0  501  502  0.00000000000E+00  0.00000000000E+00  0.15591734673E+03  0.15591734673E+03  0.00000000000E+00 0.  1.
         13   -1    0    0    0    0 -0.00000000000E+00 -0.00000000000E+00 -0.10000000000E+04  0.10000000000E+04  0.00000000000E+00 0.  1.
    9000005    2    1    2  501    0  0.66292659431E+02  0.61664262823E+02 -0.84447350024E+03  0.10653781245E+04  0.64319348374E+03 0.  0.
         13    1    3    3    0    0 -0.22160951409E+03  0.15838294192E+03 -0.64992244736E+03  0.70469505504E+03  0.00000000000E+00 0.  1.
          1    1    3    3  501    0  0.28790217352E+03 -0.96718679098E+02 -0.19455105289E+03  0.36068306944E+03  0.00000000000E+00 0.  1.
         -3    1    1    2    0  502 -0.66292659431E+02 -0.61664262823E+02  0.39084697583E+00  0.90539222248E+02  0.00000000000E+00 0. -1.
<mgrwt>
<rscale>  1 0.64953449E+03</rscale>
<asrwt>0</asrwt>
<pdfrwt beam="1">  1       21 0.23987283E-01 0.64953449E+03</pdfrwt>
<pdfrwt beam="2">0</pdfrwt>
<totfact> 0.15788889E+03</totfact>
</mgrwt>
</event>
<event>
 6    1  0.1364923E-004  0.6624813E+03  0.7818608E-02  0.9783637E-01
         21   -1    0    0  501  502  0.00000000000E+00  0.00000000000E+00  0.16824417362E+03  0.16824417362E+03  0.00000000000E+00 0.  1.
         13   -1    0    0    0    0 -0.00000000000E+00 -0.00000000000E+00 -0.10000000000E+04  0.10000000000E+04  0.00000000000E+00 0.  1.
    9000005    2    1    2  501    0 -0.66680090478E+02  0.85204264932E+02 -0.82743044245E+03  0.10599634728E+04  0.65358658592E+03 0.  0.
         13    1    3    3    0    0 -0.10701467030E+03  0.39624731097E+02  0.87008237552E+02  0.14350154137E+03  0.00000000000E+00 0.  1.
          1    1    3    3  501    0  0.40334579819E+02  0.45579533835E+02 -0.91443868000E+03  0.91646193141E+03  0.00000000000E+00 0.  1.
         -3    1    1    2    0  502  0.66680090478E+02 -0.85204264932E+02 -0.43253839342E+01  0.10828070084E+03  0.00000000000E+00 0. -1.
<mgrwt>
<rscale>  1 0.66248127E+03</rscale>
<asrwt>0</asrwt>
<pdfrwt beam="1">  1       21 0.25883718E-01 0.66248127E+03</pdfrwt>
<pdfrwt beam="2">0</pdfrwt>
<totfact> 0.13592373E+03</totfact>
</mgrwt>
</event>
<event>
 6    1  0.1364923E-004  0.6545382E+03  0.7818608E-02  0.9798301E-01
         21   -1    0    0  501  502  0.00000000000E+00  0.00000000000E+00  0.17712685968E+03  0.17712685968E+03  0.00000000000E+00 0. -1.
         13   -1    0    0    0    0 -0.00000000000E+00 -0.00000000000E+00 -0.10000000000E+04  0.10000000000E+04  0.00000000000E+00 0.  1.
    9000005    2    1    2  501    0 -0.79471392999E+02  0.40322658450E+02 -0.85986162153E+03  0.10806397267E+04  0.64844320617E+03 0.  0.
         13    1    3    3    0    0 -0.88187029043E+02 -0.12484738392E+03 -0.89798668309E+03  0.91090279633E+03  0.00000000000E+00 0.  1.
          1    1    3    3  501    0  0.87156360444E+01  0.16517004237E+03  0.38125061555E+02  0.16973693036E+03  0.00000000000E+00 0.  1.
         -3    1    1    2    0  502  0.79471392999E+02 -0.40322658450E+02  0.36988481217E+02  0.96487132989E+02  0.00000000000E+00 0. -1.
<mgrwt>
<rscale>  1 0.65453817E+03</rscale>
<asrwt>0</asrwt>
<pdfrwt beam="1">  1       21 0.27250285E-01 0.65453817E+03</pdfrwt>
<pdfrwt beam="2">0</pdfrwt>
<totfact> 0.12285430E+03</totfact>
</mgrwt>
</event>
<event>
 6    1  0.1364923E-004  0.6709515E+03  0.7818608E-02  0.9768241E-01
         21   -1    0    0  501  502  0.00000000000E+00  0.00000000000E+00  0.27772201162E+03  0.27772201162E+03  0.00000000000E+00 0. -1.
         13   -1    0    0    0    0 -0.00000000000E+00 -0.00000000000E+00 -0.10000000000E+04  0.10000000000E+04  0.00000000000E+00 0.  1.
    9000005    2    1    2  501    0  0.99505660387E+02 -0.12026766602E+03 -0.84512832674E+03  0.10790819009E+04  0.65254131849E+03 0.  0.
         13    1    3    3    0    0  0.21720592709E+01  0.74595341960E+02 -0.85766133009E+03  0.86090193403E+03  0.00000000000E+00 0.  1.
          1    1    3    3  501    0  0.97333601117E+02 -0.19486300798E+03  0.12533003356E+02  0.21817996691E+03  0.00000000000E+00 0.  1.
         -3    1    1    2    0  502 -0.99505660387E+02  0.12026766602E+03  0.12285033836E+03  0.19864011069E+03  0.00000000000E+00 0. -1.
<mgrwt>
<rscale>  1 0.67095146E+03</rscale>
<asrwt>0</asrwt>
<pdfrwt beam="1">  1       21 0.42726462E-01 0.67095146E+03</pdfrwt>
<pdfrwt beam="2">0</pdfrwt>
<totfact> 0.49131278E+02</totfact>
</mgrwt>
</event>
<event>
 6    1  0.1364923E-004  0.6778786E+03  0.7818608E-02  0.9755829E-01
         21   -1    0    0  501  502  0.00000000000E+00  0.00000000000E+00  0.16322523119E+03  0.16322523119E+03  0.00000000000E+00 0. -1.
         13   -1    0    0    0    0 -0.00000000000E+00 -0.00000000000E+00 -0.10000000000E+04  0.10000000000E+04  0.00000000000E+00 0.  1.
    9000005    2    1    2  501    0  0.38982915342E+02  0.61079980130E+02 -0.85241536961E+03  0.10890965589E+04  0.67399474820E+03 0.  0.
         13    1    3    3    0    0  0.14538634333E+03  0.28722850837E+03 -0.17364096659E+03  0.36577122649E+03  0.00000000000E+00 0.  1.
          3    1    3    3  501    0 -0.10640342799E+03 -0.22614852824E+03 -0.67877440303E+03  0.72332533242E+03  0.00000000000E+00 0.  1.
         -3    1    1    2    0  502 -0.38982915342E+02 -0.61079980130E+02  0.15640600802E+02  0.74128672284E+02  0.00000000000E+00 0. -1.
<mgrwt>
<rscale>  1 0.67787857E+03</rscale>
<asrwt>0</asrwt>
<pdfrwt beam="1">  1       21 0.25111573E-01 0.67787857E+03</pdfrwt>
<pdfrwt beam="2">0</pdfrwt>
<totfact> 0.14414518E+03</totfact>
</mgrwt>
</event>
<event>
 6    1  0.1364923E-004  0.6501964E+03  0.7818608E-02  0.9806411E-01
         21   -1    0    0  501  502  0.00000000000E+00  0.00000000000E+00  0.26419404057E+03  0.26419404057E+03  0.00000000000E+00 0. -1.
         13   -1    0    0    0    0 -0.00000000000E+00 -0.00000000000E+00 -0.10000000000E+04  0.10000000000E+04  0.00000000000E+00 0.  1.
    9000005    2    1    2  501    0  0.41338727736E+02  0.12318919430E+03 -0.86422781343E+03  0.10815012914E+04  0.63707994933E+03 0.  0.
         13    1    3    3    0    0 -0.16662422525E+03  0.27434455485E+03 -0.71620089969E+03  0.78483902549E+03  0.00000000000E+00 0.  1.
          3    1    3    3  501    0  0.20796295299E+03 -0.15115536055E+03 -0.14802691374E+03  0.29666226593E+03  0.00000000000E+00 0.  1.
         -1    1    1    2    0  502 -0.41338727736E+02 -0.12318919430E+03  0.12842185401E+03  0.18269274915E+03  0.00000000000E+00 0. -1.
<mgrwt>
<rscale>  1 0.65019638E+03</rscale>
<asrwt>0</asrwt>
<pdfrwt beam="1">  1       21 0.40645236E-01 0.65019638E+03</pdfrwt>
<pdfrwt beam="2">0</pdfrwt>
<totfact> 0.54626877E+02</totfact>
</mgrwt>
</event>
<event>
 6    1  0.1364923E-004  0.6686752E+03  0.7818608E-02  0.9772354E-01
         21   -1    0    0  501  502  0.00000000000E+00  0.00000000000E+00  0.18476257391E+03  0.18476257391E+03  0.00000000000E+00 0.  1.
         13   -1    0    0    0    0 -0.00000000000E+00 -0.00000000000E+00 -0.10000000000E+04  0.10000000000E+04  0.00000000000E+00 0.  1.
    9000005    2    1    2  501    0 -0.38266823236E+02 -0.14602366386E+03 -0.78432466955E+03  0.10306753951E+04  0.65141332698E+03 0.  0.
         13    1    3    3    0    0 -0.33045841271E+03 -0.66346765524E+02 -0.56067362313E+03  0.65418618718E+03  0.00000000000E+00 0.  1.
          1    1    3    3  501    0  0.29219158948E+03 -0.79676898336E+02 -0.22365104642E+03  0.37648920788E+03  0.00000000000E+00 0.  1.
         -1    1    1    2    0  502  0.38266823236E+02  0.14602366386E+03 -0.30912756543E+02  0.15408717885E+03  0.00000000000E+00 0. -1.
<mgrwt>
<rscale>  1 0.66867524E+03</rscale>
<asrwt>0</asrwt>
<pdfrwt beam="1">  1       21 0.28425011E-01 0.66867524E+03</pdfrwt>
<pdfrwt beam="2">0</pdfrwt>
<totfact> 0.11288656E+03</totfact>
</mgrwt>
</event>
<event>
 6    1  0.1364923E-004  0.6492541E+03  0.7818608E-02  0.9808180E-01
         21   -1    0    0  501  502  0.00000000000E+00  0.00000000000E+00  0.12289613584E+03  0.12289613584E+03  0.00000000000E+00 0.  1.
         13   -1    0    0    0    0 -0.00000000000E+00 -0.00000000000E+00 -0.10000000000E+04  0.10000000000E+04  0.00000000000E+00 0.  1.
    9000005    2    1    2  501    0  0.14963815545E+02  0.23754737750E+02 -0.88117028126E+03  0.10945282122E+04  0.64864685267E+03 0.  0.
         13    1    3    3    0    0  0.37615745012E+02  0.31964018461E+03 -0.29075362517E+03  0.43373086406E+03  0.00000000000E+00 0.  1.
          1    1    3    3  501    0 -0.22651929468E+02 -0.29588544686E+03 -0.59041665609E+03  0.66079734818E+03  0.00000000000E+00 0.  1.
         -3    1    1    2    0  502 -0.14963815545E+02 -0.23754737750E+02  0.40664170929E+01  0.28367923597E+02  0.00000000000E+00 0. -1.
<mgrwt>
<rscale>  1 0.64925414E+03</rscale>
<asrwt>0</asrwt>
<pdfrwt beam="1">  1       21 0.18907097E-01 0.64925414E+03</pdfrwt>
<pdfrwt beam="2">0</pdfrwt>
<totfact> 0.24989644E+03</totfact>
</mgrwt>
</event>
<event>
 6    1  0.1364923E-004  0.6642090E+03  0.7818608E-02  0.9780476E-01
         21   -1    0    0  501  502  0.00000000000E+00  0.00000000000E+00  0.30438658120E+03  0.30438658120E+03  0.00000000000E+00 0.  1.
         13   -1    0    0    0    0 -0.00000000000E+00 -0.00000000000E+00 -0.10000000000E+04  0.10000000000E+04  0.00000000000E+00 0.  1.
    9000005    2    1    2  501    0 -0.76721368447E+02  0.11674739197E+03 -0.86130126227E+03  0.10876642165E+04  0.64935157000E+03 0.  0.
         13    1    3    3    0    0 -0.22871151420E+03  0.17151833728E+03 -0.90129439812E+02  0.29975125133E+03  0.00000000000E+00 0.  1.
          1    1    3    3  501    0  0.15199014576E+03 -0.54770945308E+02 -0.77117182246E+03  0.78791296512E+03  0.00000000000E+00 0.  1.
         -1    1    1    2    0  502  0.76721368447E+02 -0.11674739197E+03  0.16568784347E+03  0.21672236475E+03  0.00000000000E+00 0. -1.
<mgrwt>
<rscale>  1 0.66420899E+03</rscale>
<asrwt>0</asrwt>
<pdfrwt beam="1">  1       21 0.46828703E-01 0.66420899E+03</pdfrwt>
<pdfrwt beam="2">0</pdfrwt>
<totfact> 0.40511762E+02</totfact>
</mgrwt>
</event>
<event>
 6    1  0.1364923E-004  0.6504990E+03  0.7818608E-02  0.9805843E-01
         21   -1    0    0  501  502  0.00000000000E+00  0.00000000000E+00  0.13957476187E+03  0.13957476187E+03  0.00000000000E+00 0.  1.
         13   -1    0    0    0    0 -0.00000000000E+00 -0.00000000000E+00 -0.10000000000E+04  0.10000000000E+04  0.00000000000E+00 0.  1.
    9000005    2    1    2  501    0  0.22371761493E+02  0.23486427847E+02 -0.88537510745E+03  0.10986528364E+04  0.64968982294E+03 0.  0.
         13    1    3    3    0    0 -0.26008489524E+03  0.16454316492E+01 -0.12770500397E+03  0.28975063109E+03  0.00000000000E+00 0.  1.
          3    1    3    3  501    0  0.28245665674E+03  0.21840996198E+02 -0.75767010347E+03  0.80890220531E+03  0.00000000000E+00 0.  1.
         -3    1    1    2    0  502 -0.22371761493E+02 -0.23486427847E+02  0.24949869321E+02  0.40921925473E+02  0.00000000000E+00 0. -1.
<mgrwt>
<rscale>  1 0.65049902E+03</rscale>
<asrwt>0</asrwt>
<pdfrwt beam="1">  1       21 0.21473040E-01 0.65049902E+03</pdfrwt>
<pdfrwt beam="2">0</pdfrwt>
<totfact> 0.19573939E+03</totfact>
</mgrwt>
</event>
<event>
 6    1  0.1364923E-004  0.7491166E+03  0.7818608E-02  0.9636737E-01
         21   -1    0    0  501  502  0.00000000000E+00  0.00000000000E+00  0.21137081595E+03  0.21137081595E+03  0.00000000000E+00 0.  1.
         13   -1    0    0    0    0 -0.00000000000E+00 -0.00000000000E+00 -0.10000000000E+04  0.10000000000E+04  0.00000000000E+00 0.  1.
    9000005    2    1    2  501    0 -0.12858103223E+03  0.66896189683E+02 -0.75290115532E+03  0.10620902945E+04  0.73496085744E+03 0.  0.
         13    1    3    3    0    0 -0.82912481501E+02 -0.33329782917E+02 -0.88533971443E+03  0.88983805491E+03  0.00000000000E+00 0.  1.
          3    1    3    3  501    0 -0.45668550733E+02  0.10022597260E+03  0.13243855911E+03  0.17225223961E+03  0.00000000000E+00 0.  1.
         -1    1    1    2    0  502  0.12858103223E+03 -0.66896189683E+02 -0.35728028733E+02  0.14928052144E+03  0.00000000000E+00 0. -1.
<mgrwt>
<rscale>  1 0.74911658E+03</rscale>
<asrwt>0</asrwt>
<pdfrwt beam="1">  1       21 0.32518586E-01 0.74911658E+03</pdfrwt>
<pdfrwt beam="2">0</pdfrwt>
<totfact> 0.85750887E+02</totfact>
</mgrwt>
</event>
<event>
 6    1  0.1364923E-004  0.6520925E+03  0.7818608E-02  0.9802861E-01
         21   -1    0    0  501  502  0.00000000000E+00  0.00000000000E+00  0.21226191870E+03  0.21226191870E+03  0.00000000000E+00 0. -1.
         13   -1    0    0    0    0 -0.00000000000E+00 -0.00000000000E+00 -0.10000000000E+04  0.10000000000E+04  0.00000000000E+00 0.  1.
    9000005    2    1    2  501    0  0.35991471677E+02 -0.40135234286E+02 -0.88604933313E+03  0.11001399971E+04  0.64986026915E+03 0.  0.
         13    1    3    3    0    0 -0.53351467799E+02  0.19834306212E+03 -0.80812826090E+03  0.83382110520E+03  0.00000000000E+00 0.  1.
          1    1    3    3  501    0  0.89342939476E+02 -0.23847829640E+03 -0.77921072236E+02  0.26631889191E+03  0.00000000000E+00 0.  1.
         -1    1    1    2    0  502 -0.35991471677E+02  0.40135234286E+02  0.98311251835E+02  0.11212192159E+03  0.00000000000E+00 0. -1.
<mgrwt>
<rscale>  1 0.65209247E+03</rscale>
<asrwt>0</asrwt>
<pdfrwt beam="1">  1       21 0.32655679E-01 0.65209247E+03</pdfrwt>
<pdfrwt beam="2">0</pdfrwt>
<totfact> 0.85547034E+02</totfact>
</mgrwt>
</event>
<event>
 6    1  0.1364923E-004  0.6496153E+03  0.7818608E-02  0.9807501E-01
         21   -1    0    0  501  502  0.00000000000E+00  0.00000000000E+00  0.12437072597E+03  0.12437072597E+03  0.00000000000E+00 0.  1.
         13   -1    0    0    0    0 -0.00000000000E+00 -0.00000000000E+00 -0.10000000000E+04  0.10000000000E+04  0.00000000000E+00 0.  1.
    9000005    2    1    2  501    0  0.27256105182E+02 -0.14420348211E+02 -0.87938620559E+03  0.10933069811E+04  0.64888305153E+03 0.  0.
         13    1    3    3    0    0  0.68155307967E+02  0.27350557210E+03 -0.69237283933E+03  0.74754972585E+03  0.00000000000E+00 0.  1.
          1    1    3    3  501    0 -0.40899202785E+02 -0.28792592031E+03 -0.18701336627E+03  0.34575725522E+03  0.00000000000E+00 0.  1.
         -1    1    1    2    0  502 -0.27256105182E+02  0.14420348211E+02  0.37569315630E+01  0.31063744896E+02  0.00000000000E+00 0. -1.
<mgrwt>
<rscale>  1 0.64961531E+03</rscale>
<asrwt>0</asrwt>
<pdfrwt beam="1">  1       21 0.19133957E-01 0.64961531E+03</pdfrwt>
<pdfrwt beam="2">0</pdfrwt>
<totfact> 0.24426876E+03</totfact>
</mgrwt>
</event>
<event>
 6    1  0.1364923E-004  0.6826002E+03  0.7818608E-02  0.9747460E-01
         21   -1    0    0  501  502  0.00000000000E+00  0.00000000000E+00  0.65668435885E+03  0.65668435885E+03  0.00000000000E+00 0. -1.
         13   -1    0    0    0    0 -0.00000000000E+00 -0.00000000000E+00 -0.10000000000E+04  0.10000000000E+04  0.00000000000E+00 0.  1.
    9000005    2    1    2  501    0  0.17628976305E+03  0.15862557662E+03 -0.85420345449E+03  0.10934379546E+04  0.64008035802E+03 0.  0.
         13    1    3    3    0    0  0.39665227447E+03  0.20508705302E+03 -0.47150579529E+03  0.64939313297E+03  0.00000000000E+00 0.  1.
          1    1    3    3  501    0 -0.22036251143E+03 -0.46461476399E+02 -0.38269765920E+03  0.44404482160E+03  0.00000000000E+00 0.  1.
         -1    1    1    2    0  502 -0.17628976305E+03 -0.15862557662E+03  0.51088781334E+03  0.56324640428E+03  0.00000000000E+00 0. -1.
<mgrwt>
<rscale>  1 0.68260019E+03</rscale>
<asrwt>0</asrwt>
<pdfrwt beam="1">  1       21 0.10102836E+00 0.68260019E+03</pdfrwt>
<pdfrwt beam="2">0</pdfrwt>
<totfact> 0.70381368E+01</totfact>
</mgrwt>
</event>
<event>
 6    1  0.1364923E-004  0.6278753E+03  0.7818608E-02  0.9849204E-01
         21   -1    0    0  501  502  0.00000000000E+00  0.00000000000E+00  0.12707870727E+03  0.12707870727E+03  0.00000000000E+00 0.  1.
         13   -1    0    0    0    0 -0.00000000000E+00 -0.00000000000E+00 -0.10000000000E+04  0.10000000000E+04  0.00000000000E+00 0.  1.
    9000005    2    1    2  501    0  0.11475708428E+02 -0.36588736268E+02 -0.88656158243E+03  0.10863787686E+04  0.62670324867E+03 0.  0.
         13    1    3    3    0    0  0.75526985087E+02 -0.32415140624E+03 -0.49034950326E+03  0.59263909337E+03  0.00000000000E+00 0.  1.
          3    1    3    3  501    0 -0.64051276659E+02  0.28756266997E+03 -0.39621207917E+03  0.49373967522E+03  0.00000000000E+00 0.  1.
         -1    1    1    2    0  502 -0.11475708428E+02  0.36588736268E+02  0.13640289695E+02  0.40699938681E+02  0.00000000000E+00 0. -1.
<mgrwt>
<rscale>  1 0.62787530E+03</rscale>
<asrwt>0</asrwt>
<pdfrwt beam="1">  1       21 0.19550570E-01 0.62787530E+03</pdfrwt>
<pdfrwt beam="2">0</pdfrwt>
<totfact> 0.23461185E+03</totfact>
</mgrwt>
</event>
<event>
 6    1  0.1364923E-004  0.6524939E+03  0.7818608E-02  0.9802111E-01
         21   -1    0    0  501  502  0.00000000000E+00  0.00000000000E+00  0.28177500917E+03  0.28177500917E+03  0.00000000000E+00 0.  1.
         13   -1    0    0    0    0 -0.00000000000E+00 -0.00000000000E+00 -0.10000000000E+04  0.10000000000E+04  0.00000000000E+00 0.  1.
    9000005    2    1    2  501    0  0.49233903902E+02 -0.10100978045E+02 -0.88956777112E+03  0.11032131000E+04  0.65055539159E+03 0.  0.
         13    1    3    3    0    0  0.20459671741E+03  0.26574654903E+03 -0.43554050659E+03  0.54970590135E+03  0.00000000000E+00 0.  1.
          1    1    3    3  501    0 -0.15536281351E+03 -0.27584752707E+03 -0.45402726453E+03  0.55350719864E+03  0.00000000000E+00 0.  1.
         -3    1    1    2    0  502 -0.49233903902E+02  0.10100978045E+02  0.17134278029E+03  0.17856190918E+03  0.00000000000E+00 0. -1.
<mgrwt>
<rscale>  1 0.65249393E+03</rscale>
<asrwt>0</asrwt>
<pdfrwt beam="1">  1       21 0.43350000E-01 0.65249393E+03</pdfrwt>
<pdfrwt beam="2">0</pdfrwt>
<totfact> 0.47734047E+02</totfact>
</mgrwt>
</event>
<event>
 6    1  0.1364923E-004  0.6665657E+03  0.7818608E-02  0.9776182E-01
         21   -1    0    0  501  502  0.00000000000E+00  0.00000000000E+00  0.35554146122E+03  0.35554146122E+03  0.00000000000E+00 0. -1.
         13   -1    0    0    0    0 -0.00000000000E+00 -0.00000000000E+00 -0.10000000000E+04  0.10000000000E+04  0.00000000000E+00 0.  1.
    9000005    2    1    2  501    0  0.64594912725E+02  0.82018517952E+01 -0.88409345752E+03  0.11072177463E+04  0.66337781312E+03 0.  0.
         13    1    3    3    0    0 -0.25067204455E+03  0.25796587484E+02 -0.69475442805E+03  0.73904374237E+03  0.00000000000E+00 0.  1.
          3    1    3    3  501    0  0.31526695728E+03 -0.17594735689E+02 -0.18933902947E+03  0.36817400391E+03  0.00000000000E+00 0.  1.
         -1    1    1    2    0  502 -0.64594912725E+02 -0.82018517952E+01  0.23963491874E+03  0.24832371494E+03  0.00000000000E+00 0. -1.
<mgrwt>
<rscale>  1 0.66656575E+03</rscale>
<asrwt>0</asrwt>
<pdfrwt beam="1">  1       21 0.54698685E-01 0.66656575E+03</pdfrwt>
<pdfrwt beam="2">0</pdfrwt>
<totfact> 0.29006572E+02</totfact>
</mgrwt>
</event>
<event>
 6    1  0.1364923E-004  0.6551647E+03  0.7818608E-02  0.9797136E-01
         21   -1    0    0  501  502  0.00000000000E+00  0.00000000000E+00  0.17015798189E+03  0.17015798189E+03  0.00000000000E+00 0.  1.
         13   -1    0    0    0    0 -0.00000000000E+00 -0.00000000000E+00 -0.10000000000E+04  0.10000000000E+04  0.00000000000E+00 0.  1.
    9000005    2    1    2  501    0  0.83314687908E+01  0.22234682366E+02 -0.89019628176E+03  0.11053009729E+04  0.65473431725E+03 0.  0.
         13    1    3    3    0    0 -0.18359502391E+03 -0.35774947571E+02 -0.88519028494E+03  0.90473687900E+03  0.00000000000E+00 0.  1.
          1    1    3    3  501    0  0.19192649270E+03  0.58009629937E+02 -0.50059968273E+01  0.20056409392E+03  0.00000000000E+00 0.  1.
         -1    1    1    2    0  502 -0.83314687908E+01 -0.22234682366E+02  0.60354263657E+02  0.64857008979E+02  0.00000000000E+00 0. -1.
<mgrwt>
<rscale>  1 0.65516473E+03</rscale>
<asrwt>0</asrwt>
<pdfrwt beam="1">  1       21 0.26178150E-01 0.65516473E+03</pdfrwt>
<pdfrwt beam="2">0</pdfrwt>
<totfact> 0.13298216E+03</totfact>
</mgrwt>
</event>
<event>
 6    1  0.1364923E-004  0.6504871E+03  0.7818608E-02  0.9805866E-01
         21   -1    0    0  501  502  0.00000000000E+00  0.00000000000E+00  0.12492866311E+03  0.12492866311E+03  0.00000000000E+00 0.  1.
         13   -1    0    0    0    0 -0.00000000000E+00 -0.00000000000E+00 -0.10000000000E+04  0.10000000000E+04  0.00000000000E+00 0.  1.
    9000005    2    1    2  501    0  0.15417418469E+02  0.23366677814E+02 -0.88215436069E+03  0.10960518965E+04  0.64988440918E+03 0.  0.
         13    1    3    3    0    0 -0.19666385240E+03 -0.57983908257E+01 -0.85840167078E+03  0.88066095666E+03  0.00000000000E+00 0.  1.
          1    1    3    3  501    0  0.21208127087E+03  0.29165068640E+02 -0.23752689904E+02  0.21539093983E+03  0.00000000000E+00 0.  1.
         -3    1    1    2    0  502 -0.15417418469E+02 -0.23366677814E+02  0.70830237956E+01  0.28876766620E+02  0.00000000000E+00 0. -1.
<mgrwt>
<rscale>  1 0.65048708E+03</rscale>
<asrwt>0</asrwt>
<pdfrwt beam="1">  1       21 0.19219794E-01 0.65048708E+03</pdfrwt>
<pdfrwt beam="2">0</pdfrwt>
<totfact> 0.24218147E+03</totfact>
</mgrwt>
</event>
<event>
 6    1  0.1364923E-004  0.6382812E+03  0.7818608E-02  0.9829021E-01
         21   -1    0    0  501  502  0.00000000000E+00  0.00000000000E+00  0.17327781810E+03  0.17327781810E+03  0.00000000000E+00 0. -1.
         13   -1    0    0    0    0 -0.00000000000E+00 -0.00000000000E+00 -0.10000000000E+04  0.10000000000E+04  0.00000000000E+00 0.  1.
    9000005    2    1    2  501    0 -0.97882739564E+02  0.35309562623E+02 -0.85355817907E+03  0.10658163522E+04  0.62974211831E+03 0.  0.
         13    1    3    3    0    0  0.26368179056E+03  0.44318406896E+02 -0.45392115252E+03  0.52681744520E+03  0.00000000000E+00 0.  1.
          3    1    3    3  501    0 -0.36156453013E+03 -0.90088442730E+01 -0.39963702654E+03  0.53899890696E+03  0.00000000000E+00 0.  1.
         -3    1    1    2    0  502  0.97882739564E+02 -0.35309562623E+02  0.26835997166E+02  0.10746146594E+03  0.00000000000E+00 0. -1.
<mgrwt>
<rscale>  1 0.63828123E+03</rscale>
<asrwt>0</asrwt>
<pdfrwt beam="1">  1       21 0.26658125E-01 0.63828123E+03</pdfrwt>
<pdfrwt beam="2">0</pdfrwt>
<totfact> 0.12842361E+03</totfact>
</mgrwt>
</event>
<event>
 6    1  0.1364923E-004  0.6539284E+03  0.7818608E-02  0.9799436E-01
         21   -1    0    0  501  502  0.00000000000E+00  0.00000000000E+00  0.14991562361E+03  0.14991562361E+03  0.00000000000E+00 0.  1.
         13   -1    0    0    0    0 -0.00000000000E+00 -0.00000000000E+00 -0.10000000000E+04  0.10000000000E+04  0.00000000000E+00 0.  1.
    9000005    2    1    2  501    0  0.10102657135E+03  0.64841328475E+02 -0.73140348541E+03  0.98110827815E+03  0.64281539262E+03 0.  0.
         13    1    3    3    0    0  0.18147934246E+03 -0.26084754718E+03 -0.37820264045E+03  0.49397715721E+03  0.00000000000E+00 0.  1.
          1    1    3    3  501    0 -0.80452771108E+02  0.32568887565E+03 -0.35320084496E+03  0.48713112093E+03  0.00000000000E+00 0.  1.
         -3    1    1    2    0  502 -0.10102657135E+03 -0.64841328475E+02 -0.11868089098E+03  0.16880734546E+03  0.00000000000E+00 0. -1.
<mgrwt>
<rscale>  1 0.65392843E+03</rscale>
<asrwt>0</asrwt>
<pdfrwt beam="1">  1       21 0.23063941E-01 0.65392843E+03</pdfrwt>
<pdfrwt beam="2">0</pdfrwt>
<totfact> 0.17040032E+03</totfact>
</mgrwt>
</event>
<event>
 6    1  0.1364923E-004  0.6427585E+03  0.7818608E-02  0.9820463E-01
         21   -1    0    0  501  502  0.00000000000E+00  0.00000000000E+00  0.13085711995E+03  0.13085711995E+03  0.00000000000E+00 0. -1.
         13   -1    0    0    0    0 -0.00000000000E+00 -0.00000000000E+00 -0.10000000000E+04  0.10000000000E+04  0.00000000000E+00 0.  1.
    9000005    2    1    2  501    0 -0.49785857698E+02  0.30612974865E+01 -0.86912209735E+03  0.10809772282E+04  0.64082021240E+03 0.  0.
         13    1    3    3    0    0 -0.15728608860E+03  0.23508218850E+03 -0.74468697148E+03  0.79659351899E+03  0.00000000000E+00 0.  1.
          1    1    3    3  501    0  0.10750023090E+03 -0.23202089102E+03 -0.12443512588E+03  0.28438370921E+03  0.00000000000E+00 0.  1.
         -1    1    1    2    0  502  0.49785857698E+02 -0.30612974865E+01 -0.20782694383E-01  0.49879891749E+02  0.00000000000E+00 0. -1.
<mgrwt>
<rscale>  1 0.64275855E+03</rscale>
<asrwt>0</asrwt>
<pdfrwt beam="1">  1       21 0.20131864E-01 0.64275855E+03</pdfrwt>
<pdfrwt beam="2">0</pdfrwt>
<totfact> 0.22167790E+03</totfact>
</mgrwt>
</event>
<event>
 6    1  0.1364923E-004  0.6721707E+03  0.7818608E-02  0.9766044E-01
         21   -1    0    0  501  502  0.00000000000E+00  0.00000000000E+00  0.13275092329E+03  0.13275092329E+03  0.00000000000E+00 0.  1.
         13   -1    0    0    0    0 -0.00000000000E+00 -0.00000000000E+00 -0.10000000000E+04  0.10000000000E+04  0.00000000000E+00 0.  1.
    9000005    2    1    2  501    0 -0.52596348514E+02 -0.20721107848E-01 -0.83125513874E+03  0.10690175735E+04  0.67010976000E+03 0.  0.
         13    1    3    3    0    0 -0.17665256222E+03 -0.26847329233E+03 -0.64190471806E+03  0.71786189724E+03  0.00000000000E+00 0.  1.
          3    1    3    3  501    0  0.12405621370E+03  0.26845257123E+03 -0.18935042068E+03  0.35115567626E+03  0.00000000000E+00 0.  1.
         -3    1    1    2    0  502  0.52596348514E+02  0.20721107848E-01 -0.35993937966E+02  0.63733349800E+02  0.00000000000E+00 0. -1.
<mgrwt>
<rscale>  1 0.67217071E+03</rscale>
<asrwt>0</asrwt>
<pdfrwt beam="1">  1       21 0.20423218E-01 0.67217071E+03</pdfrwt>
<pdfrwt beam="2">0</pdfrwt>
<totfact> 0.21539360E+03</totfact>
</mgrwt>
</event>
<event>
 6    1  0.1364923E-004  0.7737087E+03  0.7818608E-02  0.9598872E-01
         21   -1    0    0  501  502  0.00000000000E+00  0.00000000000E+00  0.91861985450E+03  0.91861985450E+03  0.00000000000E+00 0. -1.
         13   -1    0    0    0    0 -0.00000000000E+00 -0.00000000000E+00 -0.10000000000E+04  0.10000000000E+04  0.00000000000E+00 0.  1.
    9000005    2    1    2  501    0  0.32527887891E+03 -0.25787804832E+03 -0.78466889006E+03  0.11019666263E+04  0.65293012001E+03 0.  0.
         13    1    3    3    0    0  0.27761615509E+03  0.12601144828E+03 -0.60064125168E+03  0.67358706036E+03  0.00000000000E+00 0.  1.
          3    1    3    3  501    0  0.47662723823E+02 -0.38388949660E+03 -0.18402763838E+03  0.42837956596E+03  0.00000000000E+00 0.  1.
         -1    1    1    2    0  502 -0.32527887891E+03  0.25787804832E+03  0.70328874457E+03  0.81665322819E+03  0.00000000000E+00 0. -1.
<mgrwt>
<rscale>  1 0.77370872E+03</rscale>
<asrwt>0</asrwt>
<pdfrwt beam="1">  1       21 0.14132613E+00 0.77370872E+03</pdfrwt>
<pdfrwt beam="2">0</pdfrwt>
<totfact> 0.29248897E+01</totfact>
</mgrwt>
</event>
<event>
 6    1  0.1364923E-004  0.7165621E+03  0.7818608E-02  0.9689321E-01
         21   -1    0    0  501  502  0.00000000000E+00  0.00000000000E+00  0.31346280443E+03  0.31346280443E+03  0.00000000000E+00 0.  1.
         13   -1    0    0    0    0 -0.00000000000E+00 -0.00000000000E+00 -0.10000000000E+04  0.10000000000E+04  0.00000000000E+00 0.  1.
    9000005    2    1    2  501    0 -0.13252834296E+02 -0.31078168157E+03 -0.70050927422E+03  0.10020850432E+04  0.64552327555E+03 0.  0.
         13    1    3    3    0    0 -0.19175174749E+03 -0.20554721491E+03 -0.73960106488E+03  0.79121939144E+03  0.00000000000E+00 0.  1.
          3    1    3    3  501    0  0.17849891320E+03 -0.10523446666E+03  0.39091790659E+02  0.21086565174E+03  0.00000000000E+00 0.  1.
         -1    1    1    2    0  502  0.13252834296E+02  0.31078168157E+03  0.13972078646E+02  0.31137776125E+03  0.00000000000E+00 0. -1.
<mgrwt>
<rscale>  1 0.71656206E+03</rscale>
<asrwt>0</asrwt>
<pdfrwt beam="1">  1       21 0.48225045E-01 0.71656206E+03</pdfrwt>
<pdfrwt beam="2">0</pdfrwt>
<totfact> 0.37880488E+02</totfact>
</mgrwt>
</event>
<event>
 6    1  0.1364923E-004  0.6384057E+03  0.7818608E-02  0.9828782E-01
         21   -1    0    0  501  502  0.00000000000E+00  0.00000000000E+00  0.21250492121E+03  0.21250492121E+03  0.00000000000E+00 0.  1.
         13   -1    0    0    0    0 -0.00000000000E+00 -0.00000000000E+00 -0.10000000000E+04  0.10000000000E+04  0.00000000000E+00 0.  1.
    9000005    2    1    2  501    0 -0.49504085554E+01  0.21472560168E+02 -0.89689891217E+03  0.11009039528E+04  0.63802529520E+03 0.  0.
         13    1    3    3    0    0  0.14477819727E+03 -0.21332626016E+03 -0.13778777757E+03  0.29232565971E+03  0.00000000000E+00 0.  1.
          1    1    3    3  501    0 -0.14972860582E+03  0.23479882033E+03 -0.75911113460E+03  0.80857829312E+03  0.00000000000E+00 0.  1.
         -1    1    1    2    0  502  0.49504085554E+01 -0.21472560168E+02  0.10940383338E+03  0.11160096838E+03  0.00000000000E+00 0. -1.
<mgrwt>
<rscale>  1 0.63840571E+03</rscale>
<asrwt>0</asrwt>
<pdfrwt beam="1">  1       21 0.32693064E-01 0.63840571E+03</pdfrwt>
<pdfrwt beam="2">0</pdfrwt>
<totfact> 0.85429609E+02</totfact>
</mgrwt>
</event>
<event>
 6    1  0.1364923E-004  0.6643762E+03  0.7818608E-02  0.9780171E-01
         21   -1    0    0  501  502  0.00000000000E+00  0.00000000000E+00  0.13724693582E+03  0.13724693582E+03  0.00000000000E+00 0. -1.
         13   -1    0    0    0    0 -0.00000000000E+00 -0.00000000000E+00 -0.10000000000E+04  0.10000000000E+04  0.00000000000E+00 0.  1.
    9000005    2    1    2  501    0  0.10135475455E+02  0.30377704308E+02 -0.87860186487E+03  0.11015157552E+04  0.66360394010E+03 0.  0.
         13    1    3    3    0    0  0.42959309945E+02  0.19940628237E+03 -0.90465769390E+03  0.92736934977E+03  0.00000000000E+00 0.  1.
          1    1    3    3  501    0 -0.32823834490E+02 -0.16902857806E+03  0.26055829029E+02  0.17414640547E+03  0.00000000000E+00 0.  1.
         -1    1    1    2    0  502 -0.10135475455E+02 -0.30377704308E+02  0.15848800694E+02  0.35731180573E+02  0.00000000000E+00 0. -1.
<mgrwt>
<rscale>  1 0.66437619E+03</rscale>
<asrwt>0</asrwt>
<pdfrwt beam="1">  1       21 0.21114913E-01 0.66437619E+03</pdfrwt>
<pdfrwt beam="2">0</pdfrwt>
<totfact> 0.20207692E+03</totfact>
</mgrwt>
</event>
<event>
 6    1  0.1364923E-004  0.6741887E+03  0.7818608E-02  0.9762420E-01
         21   -1    0    0  501  502  0.00000000000E+00  0.00000000000E+00  0.50784587631E+03  0.50784587631E+03  0.00000000000E+00 0. -1.
         13   -1    0    0    0    0 -0.00000000000E+00 -0.00000000000E+00 -0.10000000000E+04  0.10000000000E+04  0.00000000000E+00 0.  1.
    9000005    2    1    2  501    0  0.19774814282E+03  0.22141584383E+02 -0.85811881396E+03  0.10912828771E+04  0.64415513762E+03 0.  0.
         13    1    3    3    0    0  0.36284999625E+03  0.20498105904E+03 -0.44034936553E+03  0.60628781784E+03  0.00000000000E+00 0.  1.
          3    1    3    3  501    0 -0.16510185344E+03 -0.18283947466E+03 -0.41776944844E+03  0.48499505930E+03  0.00000000000E+00 0.  1.
         -3    1    1    2    0  502 -0.19774814282E+03 -0.22141584383E+02  0.36596469027E+03  0.41656299916E+03  0.00000000000E+00 0. -1.
<mgrwt>
<rscale>  1 0.67418871E+03</rscale>
<asrwt>0</asrwt>
<pdfrwt beam="1">  1       21 0.78130133E-01 0.67418871E+03</pdfrwt>
<pdfrwt beam="2">0</pdfrwt>
<totfact> 0.13014545E+02</totfact>
</mgrwt>
</event>
<event>
 6    1  0.1364923E-004  0.6524737E+03  0.7818608E-02  0.9802148E-01
         21   -1    0    0  501  502  0.00000000000E+00  0.00000000000E+00  0.12709504468E+03  0.12709504468E+03  0.00000000000E+00 0.  1.
         13   -1    0    0    0    0 -0.00000000000E+00 -0.00000000000E+00 -0.10000000000E+04  0.10000000000E+04  0.00000000000E+00 0.  1.
    9000005    2    1    2  501    0  0.54839879836E+02 -0.32667013615E+01 -0.83780000142E+03  0.10618996342E+04  0.65015683261E+03 0.  0.
         13    1    3    3    0    0 -0.20543285278E+03  0.22011339514E+03 -0.30759494836E+03  0.43042678353E+03  0.00000000000E+00 0.  1.
          1    1    3    3  501    0  0.26027273262E+03 -0.22338009650E+03 -0.53020505305E+03  0.63147285067E+03  0.00000000000E+00 0.  1.
         -3    1    1    2    0  502 -0.54839879836E+02  0.32667013615E+01 -0.35104953904E+02  0.65195410474E+02  0.00000000000E+00 0. -1.
<mgrwt>
<rscale>  1 0.65247375E+03</rscale>
<asrwt>0</asrwt>
<pdfrwt beam="1">  1       21 0.19553083E-01 0.65247375E+03</pdfrwt>
<pdfrwt beam="2">0</pdfrwt>
<totfact> 0.23433220E+03</totfact>
</mgrwt>
</event>
<event>
 6    1  0.1364923E-004  0.6947700E+03  0.7818608E-02  0.9726218E-01
         21   -1    0    0  501  502  0.00000000000E+00  0.00000000000E+00  0.22405961727E+03  0.22405961727E+03  0.00000000000E+00 0.  1.
         13   -1    0    0    0    0 -0.00000000000E+00 -0.00000000000E+00 -0.10000000000E+04  0.10000000000E+04  0.00000000000E+00 0.  1.
    9000005    2    1    2  501    0  0.17829988519E+03 -0.15766019076E+03 -0.66400092433E+03  0.96104245594E+03  0.65273102408E+03 0.  0.
         13    1    3    3    0    0  0.20307703423E+03  0.22945910676E+03 -0.27608317848E+03  0.41244840277E+03  0.00000000000E+00 0.  1.
          3    1    3    3  501    0 -0.24777149043E+02 -0.38711929753E+03 -0.38791774585E+03  0.54859405317E+03  0.00000000000E+00 0.  1.
         -3    1    1    2    0  502 -0.17829988519E+03  0.15766019076E+03 -0.11193945840E+03  0.26301716133E+03  0.00000000000E+00 0. -1.
<mgrwt>
<rscale>  1 0.69477002E+03</rscale>
<asrwt>0</asrwt>
<pdfrwt beam="1">  1       21 0.34470709E-01 0.69477002E+03</pdfrwt>
<pdfrwt beam="2">0</pdfrwt>
<totfact> 0.76430589E+02</totfact>
</mgrwt>
</event>
<event>
 6    1  0.1364923E-004  0.6632963E+03  0.7818608E-02  0.9782145E-01
         21   -1    0    0  501  502  0.00000000000E+00  0.00000000000E+00  0.18693568599E+03  0.18693568599E+03  0.00000000000E+00 0.  1.
         13   -1    0    0    0    0 -0.00000000000E+00 -0.00000000000E+00 -0.10000000000E+04  0.10000000000E+04  0.00000000000E+00 0.  1.
    9000005    2    1    2  501    0 -0.28940178650E+02 -0.11941168102E+03 -0.83046349061E+03  0.10628413072E+04  0.65181696168E+03 0.  0.
         13    1    3    3    0    0 -0.15150230834E+03  0.10749828100E+03  0.76739819089E+01  0.18592396255E+03  0.00000000000E+00 0.  1.
          1    1    3    3  501    0  0.12256212969E+03 -0.22690996202E+03 -0.83813747252E+03  0.87691734464E+03  0.00000000000E+00 0.  1.
         -3    1    1    2    0  502  0.28940178650E+02  0.11941168102E+03  0.17399176600E+02  0.12409437880E+03  0.00000000000E+00 0. -1.
<mgrwt>
<rscale>  1 0.66329634E+03</rscale>
<asrwt>0</asrwt>
<pdfrwt beam="1">  1       21 0.28759335E-01 0.66329634E+03</pdfrwt>
<pdfrwt beam="2">0</pdfrwt>
<totfact> 0.11032246E+03</totfact>
</mgrwt>
</event>
<event>
 6    1  0.1364923E-004  0.6554711E+03  0.7818608E-02  0.9796567E-01
         21   -1    0    0  501  502  0.00000000000E+00  0.00000000000E+00  0.12989343489E+03  0.12989343489E+03  0.00000000000E+00 0.  1.
         13   -1    0    0    0    0 -0.00000000000E+00 -0.00000000000E+00 -0.10000000000E+04  0.10000000000E+04  0.00000000000E+00 0.  1.
    9000005    2    1    2  501    0  0.36685382459E+02  0.52143594428E+02 -0.81280432741E+03  0.10441711031E+04  0.65236312443E+03 0.  0.
         13    1    3    3    0    0 -0.14103086977E+03 -0.25173414005E+03 -0.47807999127E+03  0.55840868684E+03  0.00000000000E+00 0.  1.
          3    1    3    3  501    0  0.17771625223E+03  0.30387773447E+03 -0.33472433614E+03  0.48576241623E+03  0.00000000000E+00 0.  1.
         -3    1    1    2    0  502 -0.36685382459E+02 -0.52143594428E+02 -0.57302237702E+02  0.85722331814E+02  0.00000000000E+00 0. -1.
<mgrwt>
<rscale>  1 0.65547114E+03</rscale>
<asrwt>0</asrwt>
<pdfrwt beam="1">  1       21 0.19983605E-01 0.65547114E+03</pdfrwt>
<pdfrwt beam="2">0</pdfrwt>
<totfact> 0.22473052E+03</totfact>
</mgrwt>
</event>
<event>
 6    1  0.1364923E-004  0.6384332E+03  0.7818608E-02  0.9828729E-01
         21   -1    0    0  501  502  0.00000000000E+00  0.00000000000E+00  0.11961127771E+03  0.11961127771E+03  0.00000000000E+00 0.  1.
         13   -1    0    0    0    0 -0.00000000000E+00 -0.00000000000E+00 -0.10000000000E+04  0.10000000000E+04  0.00000000000E+00 0.  1.
    9000005    2    1    2  501    0  0.23972491687E+02  0.12362475874E+02 -0.88600230159E+03  0.10920608977E+04  0.63786316296E+03 0.  0.
         13    1    3    3    0    0  0.25364793855E+03 -0.65089726930E+01 -0.81091995805E+03  0.84968866170E+03  0.00000000000E+00 0.  1.
          3    1    3    3  501    0 -0.22967544686E+03  0.18871448567E+02 -0.75082343535E+02  0.24237223598E+03  0.00000000000E+00 0.  1.
         -1    1    1    2    0  502 -0.23972491687E+02 -0.12362475874E+02  0.56135793015E+01  0.27550380033E+02  0.00000000000E+00 0. -1.
<mgrwt>
<rscale>  1 0.63843318E+03</rscale>
<asrwt>0</asrwt>
<pdfrwt beam="1">  1       21 0.18401735E-01 0.63843318E+03</pdfrwt>
<pdfrwt beam="2">0</pdfrwt>
<totfact> 0.26322524E+03</totfact>
</mgrwt>
</event>
<event>
 6    1  0.1364923E-004  0.6790341E+03  0.7818608E-02  0.9753774E-01
         21   -1    0    0  501  502  0.00000000000E+00  0.00000000000E+00  0.47552861436E+03  0.47552861436E+03  0.00000000000E+00 0. -1.
         13   -1    0    0    0    0 -0.00000000000E+00 -0.00000000000E+00 -0.10000000000E+04  0.10000000000E+04  0.00000000000E+00 0.  1.
    9000005    2    1    2  501    0 -0.70892102734E+02 -0.16218897519E+03 -0.86024832058E+03  0.10959537154E+04  0.65555809755E+03 0.  0.
         13    1    3    3    0    0 -0.84065384934E+02 -0.37269945538E+03 -0.26642430888E+03  0.46578298095E+03  0.00000000000E+00 0.  1.
          1    1    3    3  501    0  0.13173282200E+02  0.21051048019E+03 -0.59382401171E+03  0.63017073442E+03  0.00000000000E+00 0.  1.
         -1    1    1    2    0  502  0.70892102734E+02  0.16218897519E+03  0.33577693495E+03  0.37957489899E+03  0.00000000000E+00 0. -1.
<mgrwt>
<rscale>  1 0.67903415E+03</rscale>
<asrwt>0</asrwt>
<pdfrwt beam="1">  1       21 0.73158246E-01 0.67903415E+03</pdfrwt>
<pdfrwt beam="2">0</pdfrwt>
<totfact> 0.15136609E+02</totfact>
</mgrwt>
</event>
<event>
 6    1  0.1364923E-004  0.6564643E+03  0.7818608E-02  0.9794725E-01
         21   -1    0    0  501  502  0.00000000000E+00  0.00000000000E+00  0.13371547436E+03  0.13371547436E+03  0.00000000000E+00 0.  1.
         13   -1    0    0    0    0 -0.00000000000E+00 -0.00000000000E+00 -0.10000000000E+04  0.10000000000E+04  0.00000000000E+00 0.  1.
    9000005    2    1    2  501    0 -0.27204508835E+02 -0.42408781172E+02 -0.86149180142E+03  0.10831036158E+04  0.65452786696E+03 0.  0.
         13    1    3    3    0    0 -0.26966757265E+03 -0.21929754839E+03 -0.54938113762E+03  0.65010126045E+03  0.00000000000E+00 0.  1.
          3    1    3    3  501    0  0.24246306381E+03  0.17688876722E+03 -0.31211066380E+03  0.43300235535E+03  0.00000000000E+00 0.  1.
         -3    1    1    2    0  502  0.27204508835E+02  0.42408781172E+02 -0.47927242198E+01  0.50611858560E+02  0.00000000000E+00 0. -1.
<mgrwt>
<rscale>  1 0.65646426E+03</rscale>
<asrwt>0</asrwt>
<pdfrwt beam="1">  1       21 0.20571611E-01 0.65646426E+03</pdfrwt>
<pdfrwt beam="2">0</pdfrwt>
<totfact> 0.21254860E+03</totfact>
</mgrwt>
</event>
<event>
 6    1  0.1364923E-004  0.6549509E+03  0.7818608E-02  0.9797533E-01
         21   -1    0    0  501  502  0.00000000000E+00  0.00000000000E+00  0.17910741841E+03  0.17910741841E+03  0.00000000000E+00 0.  1.
         13   -1    0    0    0    0 -0.00000000000E+00 -0.00000000000E+00 -0.10000000000E+04  0.10000000000E+04  0.00000000000E+00 0.  1.
    9000005    2    1    2  501    0  0.51074859641E+02  0.38422444857E+02 -0.87664904797E+03  0.10942916823E+04  0.65182498188E+03 0.  0.
         13    1    3    3    0    0 -0.64795216620E+02 -0.28742904937E+03 -0.29079387720E+03  0.41397458562E+03  0.00000000000E+00 0.  1.
          3    1    3    3  501    0  0.11587007626E+03  0.32585149423E+03 -0.58585517077E+03  0.68031709664E+03  0.00000000000E+00 0.  1.
         -1    1    1    2    0  502 -0.51074859641E+02 -0.38422444857E+02  0.55756466383E+02  0.84815736156E+02  0.00000000000E+00 0. -1.
<mgrwt>
<rscale>  1 0.65495094E+03</rscale>
<asrwt>0</asrwt>
<pdfrwt beam="1">  1       21 0.27554987E-01 0.65495094E+03</pdfrwt>
<pdfrwt beam="2">0</pdfrwt>
<totfact> 0.12017384E+03</totfact>
</mgrwt>
</event>
<event>
 6    1  0.1364923E-004  0.6599978E+03  0.7818608E-02  0.9788198E-01
         21   -1    0    0  501  502  0.00000000000E+00  0.00000000000E+00  0.14170618105E+03  0.14170618105E+03  0.00000000000E+00 0.  1.
         13   -1    0    0    0    0 -0.00000000000E+00 -0.00000000000E+00 -0.10000000000E+04  0.10000000000E+04  0.00000000000E+00 0.  1.
    9000005    2    1    2  501    0 -0.65667674922E+02 -0.10206764477E+02 -0.84782246658E+03  0.10744301022E+04  0.65664350146E+03 0.  0.
         13    1    3    3    0    0 -0.96247798477E+02  0.22667457474E+03 -0.79164723120E+03  0.82906594443E+03  0.00000000000E+00 0.  1.
          3    1    3    3  501    0  0.30580123556E+02 -0.23688133922E+03 -0.56175235378E+02  0.24536415772E+03  0.00000000000E+00 0.  1.
         -3    1    1    2    0  502  0.65667674922E+02  0.10206764477E+02 -0.10471352374E+02  0.67276078893E+02  0.00000000000E+00 0. -1.
<mgrwt>
<rscale>  1 0.65999781E+03</rscale>
<asrwt>0</asrwt>
<pdfrwt beam="1">  1       21 0.21800950E-01 0.65999781E+03</pdfrwt>
<pdfrwt beam="2">0</pdfrwt>
<totfact> 0.19001187E+03</totfact>
</mgrwt>
</event>
<event>
 6    1  0.1364923E-004  0.6432799E+03  0.7818608E-02  0.9819471E-01
         21   -1    0    0  501  502  0.00000000000E+00  0.00000000000E+00  0.15025473180E+03  0.15025473180E+03  0.00000000000E+00 0.  1.
         13   -1    0    0    0    0 -0.00000000000E+00 -0.00000000000E+00 -0.10000000000E+04  0.10000000000E+04  0.00000000000E+00 0.  1.
    9000005    2    1    2  501    0  0.57990068703E+02  0.77634319740E+02 -0.83209909998E+03  0.10517594379E+04  0.63593951548E+03 0.  0.
         13    1    3    3    0    0 -0.15915751969E+03  0.25001144602E+03 -0.18917127318E+03  0.35160007083E+03  0.00000000000E+00 0.  1.
          1    1    3    3  501    0  0.21714758840E+03 -0.17237712628E+03 -0.64292782680E+03  0.70015936706E+03  0.00000000000E+00 0.  1.
         -1    1    1    2    0  502 -0.57990068703E+02 -0.77634319740E+02 -0.17646168217E+02  0.98495293910E+02  0.00000000000E+00 0. -1.
<mgrwt>
<rscale>  1 0.64327988E+03</rscale>
<asrwt>0</asrwt>
<pdfrwt beam="1">  1       21 0.23116112E-01 0.64327988E+03</pdfrwt>
<pdfrwt beam="2">0</pdfrwt>
<totfact> 0.16973931E+03</totfact>
</mgrwt>
</event>
<event>
 6    1  0.1364923E-004  0.6438196E+03  0.7818608E-02  0.9818446E-01
         21   -1    0    0  501  502  0.00000000000E+00  0.00000000000E+00  0.14064006973E+03  0.14064006973E+03  0.00000000000E+00 0.  1.
         13   -1    0    0    0    0 -0.00000000000E+00 -0.00000000000E+00 -0.10000000000E+04  0.10000000000E+04  0.00000000000E+00 0.  1.
    9000005    2    1    2  501    0  0.23387796196E+02  0.44936142016E+02 -0.87615735809E+03  0.10872696711E+04  0.64182347704E+03 0.  0.
         13    1    3    3    0    0  0.30877340123E+03  0.13241381713E+03 -0.37100281508E+03  0.50051725352E+03  0.00000000000E+00 0.  1.
          3    1    3    3  501    0 -0.28538560503E+03 -0.87477675117E+02 -0.50515454301E+03  0.58675241757E+03  0.00000000000E+00 0.  1.
         -1    1    1    2    0  502 -0.23387796196E+02 -0.44936142016E+02  0.16797427820E+02  0.53370398645E+02  0.00000000000E+00 0. -1.
<mgrwt>
<rscale>  1 0.64381956E+03</rscale>
<asrwt>0</asrwt>
<pdfrwt beam="1">  1       21 0.21636933E-01 0.64381956E+03</pdfrwt>
<pdfrwt beam="2">0</pdfrwt>
<totfact> 0.19294245E+03</totfact>
</mgrwt>
</event>
<event>
 6    1  0.1364923E-004  0.6696497E+03  0.7818608E-02  0.9770591E-01
         21   -1    0    0  501  502  0.00000000000E+00  0.00000000000E+00  0.36654574298E+03  0.36654574298E+03  0.00000000000E+00 0. -1.
         13   -1    0    0    0    0 -0.00000000000E+00 -0.00000000000E+00 -0.10000000000E+04  0.10000000000E+04  0.00000000000E+00 0.  1.
    9000005    2    1    2  501    0 -0.63556698028E+02 -0.11514473128E+03 -0.86881117090E+03  0.10969337256E+04  0.65660717684E+03 0.  0.
         13    1    3    3    0    0  0.28242208765E+02 -0.58338908449E+02  0.10161221266E+03  0.12052423970E+03  0.00000000000E+00 0.  1.
          1    1    3    3  501    0 -0.91798906792E+02 -0.56805822827E+02 -0.97042338356E+03  0.97640948590E+03  0.00000000000E+00 0.  1.
         -3    1    1    2    0  502  0.63556698028E+02  0.11514473128E+03  0.23535691388E+03  0.26961201738E+03  0.00000000000E+00 0. -1.
<mgrwt>
<rscale>  1 0.66964972E+03</rscale>
<asrwt>0</asrwt>
<pdfrwt beam="1">  1       21 0.56391651E-01 0.66964972E+03</pdfrwt>
<pdfrwt beam="2">0</pdfrwt>
<totfact> 0.27133038E+02</totfact>
</mgrwt>
</event>
<event>
 6    1  0.1364923E-004  0.6539291E+03  0.7818608E-02  0.9799434E-01
         21   -1    0    0  501  502  0.00000000000E+00  0.00000000000E+00  0.16077692268E+03  0.16077692268E+03  0.00000000000E+00 0. -1.
         13   -1    0    0    0    0 -0.00000000000E+00 -0.00000000000E+00 -0.10000000000E+04  0.10000000000E+04  0.00000000000E+00 0.  1.
    9000005    2    1    2  501    0 -0.10832856694E+03 -0.97498158627E+01 -0.82243133127E+03  0.10507219362E+04  0.64482025027E+03 0.  0.
         13    1    3    3    0    0  0.11663172431E+03 -0.19924720267E+02  0.65113628309E+02  0.13505457484E+03  0.00000000000E+00 0.  1.
          3    1    3    3  501    0 -0.22496029125E+03  0.10174904405E+02 -0.88754495958E+03  0.91566736132E+03  0.00000000000E+00 0.  1.
         -1    1    1    2    0  502  0.10832856694E+03  0.97498158627E+01 -0.16791746050E+02  0.11005498653E+03  0.00000000000E+00 0. -1.
<mgrwt>
<rscale>  1 0.65392912E+03</rscale>
<asrwt>0</asrwt>
<pdfrwt beam="1">  1       21 0.24734910E-01 0.65392912E+03</pdfrwt>
<pdfrwt beam="2">0</pdfrwt>
<totfact> 0.14866048E+03</totfact>
</mgrwt>
</event>
<event>
 6    1  0.1364923E-004  0.6771695E+03  0.7818608E-02  0.9757092E-01
         21   -1    0    0  501  502  0.00000000000E+00  0.00000000000E+00  0.12738551259E+04  0.12738551259E+04  0.00000000000E+00 0. -1.
         13   -1    0    0    0    0 -0.00000000000E+00 -0.00000000000E+00 -0.10000000000E+04  0.10000000000E+04  0.00000000000E+00 0.  1.
    9000005    2    1    2  501    0  0.59755295964E+02  0.31564779602E+02 -0.88426229398E+03  0.11137676340E+04  0.67378891889E+03 0.  0.
         13    1    3    3    0    0 -0.56967827147E+02 -0.58916035711E+02 -0.94898858829E+03  0.95252074692E+03  0.00000000000E+00 0.  1.
          1    1    3    3  501    0  0.11672312311E+03  0.90480815313E+02  0.64726294313E+02  0.16124688705E+03  0.00000000000E+00 0.  1.
         -1    1    1    2    0  502 -0.59755295964E+02 -0.31564779602E+02  0.11581174199E+04  0.11600874919E+04  0.00000000000E+00 0. -1.
<mgrwt>
<rscale>  1 0.67716950E+03</rscale>
<asrwt>0</asrwt>
<pdfrwt beam="1">  1       21 0.19597771E+00 0.67716950E+03</pdfrwt>
<pdfrwt beam="2">0</pdfrwt>
<totfact> 0.11607789E+01</totfact>
</mgrwt>
</event>
<event>
 6    1  0.1364923E-004  0.6600371E+03  0.7818608E-02  0.9788125E-01
         21   -1    0    0  501  502  0.00000000000E+00  0.00000000000E+00  0.12086059019E+03  0.12086059019E+03  0.00000000000E+00 0.  1.
         13   -1    0    0    0    0 -0.00000000000E+00 -0.00000000000E+00 -0.10000000000E+04  0.10000000000E+04  0.00000000000E+00 0.  1.
    9000005    2    1    2  501    0 -0.16016131175E+02  0.19834342639E+02 -0.87336445939E+03  0.10947212012E+04  0.65954462454E+03 0.  0.
         13    1    3    3    0    0  0.19360578417E+03  0.71266250015E+02 -0.11921504109E+02  0.20664994632E+03  0.00000000000E+00 0.  1.
          1    1    3    3  501    0 -0.20962191534E+03 -0.51431907376E+02 -0.86144295528E+03  0.88807125485E+03  0.00000000000E+00 0.  1.
         -3    1    1    2    0  502  0.16016131175E+02 -0.19834342639E+02 -0.57749504256E+01  0.26139389016E+02  0.00000000000E+00 0. -1.
<mgrwt>
<rscale>  1 0.66003714E+03</rscale>
<asrwt>0</asrwt>
<pdfrwt beam="1">  1       21 0.18593936E-01 0.66003714E+03</pdfrwt>
<pdfrwt beam="2">0</pdfrwt>
<totfact> 0.25787977E+03</totfact>
</mgrwt>
</event>
<event>
 6    1  0.1364923E-004  0.6604234E+03  0.7818608E-02  0.9787415E-01
         21   -1    0    0  501  502  0.00000000000E+00  0.00000000000E+00  0.23470875259E+03  0.23470875259E+03  0.00000000000E+00 0. -1.
         13   -1    0    0    0    0 -0.00000000000E+00 -0.00000000000E+00 -0.10000000000E+04  0.10000000000E+04  0.00000000000E+00 0.  1.
    9000005    2    1    2  501    0  0.21397134518E+02 -0.18294944037E+02 -0.88920899132E+03  0.11076333828E+04  0.65982311128E+03 0.  0.
         13    1    3    3    0    0  0.14954700463E+03 -0.29337172754E+03 -0.61977282361E+03  0.70181880140E+03  0.00000000000E+00 0.  1.
          1    1    3    3  501    0 -0.12814987011E+03  0.27507678350E+03 -0.26943616771E+03  0.40581458143E+03  0.00000000000E+00 0.  1.
         -1    1    1    2    0  502 -0.21397134518E+02  0.18294944037E+02  0.12391774391E+03  0.12707536976E+03  0.00000000000E+00 0. -1.
<mgrwt>
<rscale>  1 0.66042341E+03</rscale>
<asrwt>0</asrwt>
<pdfrwt beam="1">  1       21 0.36109038E-01 0.66042341E+03</pdfrwt>
<pdfrwt beam="2">0</pdfrwt>
<totfact> 0.69681811E+02</totfact>
</mgrwt>
</event>
<event>
 6    1  0.1364923E-004  0.6417995E+03  0.7818608E-02  0.9822290E-01
         21   -1    0    0  501  502  0.00000000000E+00  0.00000000000E+00  0.14353295991E+03  0.14353295991E+03  0.00000000000E+00 0.  1.
         13   -1    0    0    0    0 -0.00000000000E+00 -0.00000000000E+00 -0.10000000000E+04  0.10000000000E+04  0.00000000000E+00 0.  1.
    9000005    2    1    2  501    0 -0.35084209502E+02  0.28353857020E+02 -0.88269300521E+03  0.10913539966E+04  0.64021227847E+03 0.  0.
         13    1    3    3    0    0  0.39414780823E+02  0.32876471838E+03 -0.48909414235E+03  0.59063765972E+03  0.00000000000E+00 0.  1.
          3    1    3    3  501    0 -0.74498990326E+02 -0.30041086136E+03 -0.39359886286E+03  0.50071633689E+03  0.00000000000E+00 0.  1.
         -1    1    1    2    0  502  0.35084209502E+02 -0.28353857020E+02  0.26225965122E+02  0.52178963298E+02  0.00000000000E+00 0. -1.
<mgrwt>
<rscale>  1 0.64179950E+03</rscale>
<asrwt>0</asrwt>
<pdfrwt beam="1">  1       21 0.22081993E-01 0.64179950E+03</pdfrwt>
<pdfrwt beam="2">0</pdfrwt>
<totfact> 0.18551090E+03</totfact>
</mgrwt>
</event>
<event>
 6    1  0.1364923E-004  0.6603365E+03  0.7818608E-02  0.9787575E-01
         21   -1    0    0  501  502  0.00000000000E+00  0.00000000000E+00  0.12720403790E+03  0.12720403790E+03  0.00000000000E+00 0.  1.
         13   -1    0    0    0    0 -0.00000000000E+00 -0.00000000000E+00 -0.10000000000E+04  0.10000000000E+04  0.00000000000E+00 0.  1.
    9000005    2    1    2  501    0  0.25784599005E+02  0.34065300227E+02 -0.85645609451E+03  0.10814625742E+04  0.65895293262E+03 0.  0.
         13    1    3    3    0    0 -0.22631684458E+03  0.23850328988E+03 -0.50928429879E+03  0.60619603300E+03  0.00000000000E+00 0.  1.
          1    1    3    3  501    0  0.25210144359E+03 -0.20443798965E+03 -0.34717179572E+03  0.47526654123E+03  0.00000000000E+00 0.  1.
         -1    1    1    2    0  502 -0.25784599005E+02 -0.34065300227E+02 -0.16339867593E+02  0.45741463667E+02  0.00000000000E+00 0. -1.
<mgrwt>
<rscale>  1 0.66033647E+03</rscale>
<asrwt>0</asrwt>
<pdfrwt beam="1">  1       21 0.19569851E-01 0.66033647E+03</pdfrwt>
<pdfrwt beam="2">0</pdfrwt>
<totfact> 0.23387893E+03</totfact>
</mgrwt>
</event>
<event>
 6    1  0.1364923E-004  0.6461370E+03  0.7818608E-02  0.9814055E-01
         21   -1    0    0  501  502  0.00000000000E+00  0.00000000000E+00  0.14321081495E+03  0.14321081495E+03  0.00000000000E+00 0.  1.
         13   -1    0    0    0    0 -0.00000000000E+00 -0.00000000000E+00 -0.10000000000E+04  0.10000000000E+04  0.00000000000E+00 0.  1.
    9000005    2    1    2  501    0 -0.21554523484E+02 -0.19375571166E+02 -0.88956211436E+03  0.10994606705E+04  0.64548663852E+03 0.  0.
         13    1    3    3    0    0  0.11441626023E+02 -0.19754411561E+03 -0.89655117113E+03  0.91812776391E+03  0.00000000000E+00 0.  1.
          1    1    3    3  501    0 -0.32996149506E+02  0.17816854444E+03  0.69890567653E+01  0.18133290662E+03  0.00000000000E+00 0.  1.
         -3    1    1    2    0  502  0.21554523484E+02  0.19375571166E+02  0.32772929307E+02  0.43750144411E+02  0.00000000000E+00 0. -1.
<mgrwt>
<rscale>  1 0.64613699E+03</rscale>
<asrwt>0</asrwt>
<pdfrwt beam="1">  1       21 0.22032432E-01 0.64613699E+03</pdfrwt>
<pdfrwt beam="2">0</pdfrwt>
<totfact> 0.18628282E+03</totfact>
</mgrwt>
</event>
<event>
 6    1  0.1364923E-004  0.6589504E+03  0.7818608E-02  0.9790128E-01
         21   -1    0    0  501  502  0.00000000000E+00  0.00000000000E+00  0.14224995781E+03  0.14224995781E+03  0.00000000000E+00 0.  1.
         13   -1    0    0    0    0 -0.00000000000E+00 -0.00000000000E+00 -0.10000000000E+04  0.10000000000E+04  0.00000000000E+00 0.  1.
    9000005    2    1    2  501    0 -0.31389347508E+02 -0.74852764320E+02 -0.82210615166E+03  0.10536005675E+04  0.65393226245E+03 0.  0.
         13    1    3    3    0    0 -0.65219697652E+01  0.14967321040E+03 -0.81387808569E+03  0.82755189829E+03  0.00000000000E+00 0.  1.
          1    1    3    3  501    0 -0.24867377743E+02 -0.22452597472E+03 -0.82280659699E+01  0.22604866925E+03  0.00000000000E+00 0.  1.
         -3    1    1    2    0  502  0.31389347508E+02  0.74852764320E+02 -0.35643890525E+02  0.88649390269E+02  0.00000000000E+00 0. -1.
<mgrwt>
<rscale>  1 0.65895040E+03</rscale>
<asrwt>0</asrwt>
<pdfrwt beam="1">  1       21 0.21884608E-01 0.65895040E+03</pdfrwt>
<pdfrwt beam="2">0</pdfrwt>
<totfact> 0.18861795E+03</totfact>
</mgrwt>
</event>
<event>
 6    1  0.1364923E-004  0.6698799E+03  0.7818608E-02  0.9770175E-01
         21   -1    0    0  501  502  0.00000000000E+00  0.00000000000E+00  0.20128838508E+03  0.20128838508E+03  0.00000000000E+00 0.  1.
         13   -1    0    0    0    0 -0.00000000000E+00 -0.00000000000E+00 -0.10000000000E+04  0.10000000000E+04  0.00000000000E+00 0.  1.
    9000005    2    1    2  501    0 -0.32139781386E+02 -0.86295909778E+01 -0.88434472674E+03  0.11094163805E+04  0.66905281867E+03 0.  0.
         13    1    3    3    0    0 -0.51287780580E+02 -0.10033459981E+03 -0.97355401462E+03  0.98005351270E+03  0.00000000000E+00 0.  1.
          1    1    3    3  501    0  0.19147999194E+02  0.91705008834E+02  0.89209287880E+02  0.12936286779E+03  0.00000000000E+00 0.  1.
         -1    1    1    2    0  502  0.32139781386E+02  0.86295909778E+01  0.85633111826E+02  0.91872004599E+02  0.00000000000E+00 0. -1.
<mgrwt>
<rscale>  1 0.66987992E+03</rscale>
<asrwt>0</asrwt>
<pdfrwt beam="1">  1       21 0.30967443E-01 0.66987992E+03</pdfrwt>
<pdfrwt beam="2">0</pdfrwt>
<totfact> 0.95100025E+02</totfact>
</mgrwt>
</event>
<event>
 6    1  0.1364923E-004  0.6732673E+03  0.7818608E-02  0.9764073E-01
         21   -1    0    0  501  502  0.00000000000E+00  0.00000000000E+00  0.33998566712E+03  0.33998566712E+03  0.00000000000E+00 0.  1.
         13   -1    0    0    0    0 -0.00000000000E+00 -0.00000000000E+00 -0.10000000000E+04  0.10000000000E+04  0.00000000000E+00 0.  1.
    9000005    2    1    2  501    0 -0.25974001927E+02  0.11919436633E+02 -0.88567435487E+03  0.11125232147E+04  0.67266047794E+03 0.  0.
         13    1    3    3    0    0  0.24716402384E+02 -0.17019490856E+03 -0.90619973043E+03  0.92237473886E+03  0.00000000000E+00 0.  1.
          3    1    3    3  501    0 -0.50690404311E+02  0.18211434520E+03  0.20525375562E+02  0.19014847582E+03  0.00000000000E+00 0.  1.
         -1    1    1    2    0  502  0.25974001927E+02 -0.11919436633E+02  0.22566002199E+03  0.22746245244E+03  0.00000000000E+00 0. -1.
<mgrwt>
<rscale>  1 0.67326729E+03</rscale>
<asrwt>0</asrwt>
<pdfrwt beam="1">  1       21 0.52305486E-01 0.67326729E+03</pdfrwt>
<pdfrwt beam="2">0</pdfrwt>
<totfact> 0.31939486E+02</totfact>
</mgrwt>
</event>
<event>
 6    1  0.1364923E-004  0.6581589E+03  0.7818608E-02  0.9791589E-01
         21   -1    0    0  501  502  0.00000000000E+00  0.00000000000E+00  0.15180433903E+03  0.15180433903E+03  0.00000000000E+00 0.  1.
         13   -1    0    0    0    0 -0.00000000000E+00 -0.00000000000E+00 -0.10000000000E+04  0.10000000000E+04  0.00000000000E+00 0.  1.
    9000005    2    1    2  501    0 -0.53659539107E+02 -0.18412078429E+02 -0.87010639167E+03  0.10909896131E+04  0.65570942673E+03 0.  0.
         13    1    3    3    0    0 -0.10591827548E+03  0.19019047371E+03 -0.25204144395E+02  0.21914914160E+03  0.00000000000E+00 0.  1.
          1    1    3    3  501    0  0.52258736370E+02 -0.20860255214E+03 -0.84490224728E+03  0.87184047150E+03  0.00000000000E+00 0.  1.
         -1    1    1    2    0  502  0.53659539107E+02  0.18412078429E+02  0.21910730699E+02  0.60814725922E+02  0.00000000000E+00 0. -1.
<mgrwt>
<rscale>  1 0.65815895E+03</rscale>
<asrwt>0</asrwt>
<pdfrwt beam="1">  1       21 0.23354513E-01 0.65815895E+03</pdfrwt>
<pdfrwt beam="2">0</pdfrwt>
<totfact> 0.16626608E+03</totfact>
</mgrwt>
</event>
<event>
 6    1  0.1364923E-004  0.6933099E+03  0.7818608E-02  0.9728742E-01
         21   -1    0    0  501  502  0.00000000000E+00  0.00000000000E+00  0.12032099276E+04  0.12032099276E+04  0.00000000000E+00 0. -1.
         13   -1    0    0    0    0 -0.00000000000E+00 -0.00000000000E+00 -0.10000000000E+04  0.10000000000E+04  0.00000000000E+00 0.  1.
    9000005    2    1    2  501    0 -0.11782531728E+03  0.12016670475E+03 -0.87249636972E+03  0.11144184506E+04  0.67257395542E+03 0.  0.
         13    1    3    3    0    0 -0.36280192214E+03  0.48003209351E+02 -0.74264111086E+03  0.82791627738E+03  0.00000000000E+00 0.  1.
          1    1    3    3  501    0  0.24497660486E+03  0.72163495396E+02 -0.12985525886E+03  0.28650217320E+03  0.00000000000E+00 0.  1.
         -1    1    1    2    0  502  0.11782531728E+03 -0.12016670475E+03  0.10757062973E+04  0.10887914770E+04  0.00000000000E+00 0. -1.
<mgrwt>
<rscale>  1 0.69330986E+03</rscale>
<asrwt>0</asrwt>
<pdfrwt beam="1">  1       21 0.18510921E+00 0.69330986E+03</pdfrwt>
<pdfrwt beam="2">0</pdfrwt>
<totfact> 0.13761965E+01</totfact>
</mgrwt>
</event>
<event>
 6    1  0.1364923E-004  0.6494147E+03  0.7818608E-02  0.9807878E-01
         21   -1    0    0  501  502  0.00000000000E+00  0.00000000000E+00  0.15463730666E+03  0.15463730666E+03  0.00000000000E+00 0.  1.
         13   -1    0    0    0    0 -0.00000000000E+00 -0.00000000000E+00 -0.10000000000E+04  0.10000000000E+04  0.00000000000E+00 0.  1.
    9000005    2    1    2  501    0 -0.58193939145E+02  0.12137765481E+02 -0.87383253739E+03  0.10887253053E+04  0.64668819928E+03 0.  0.
         13    1    3    3    0    0 -0.29026423234E+03  0.12818815378E+03 -0.22231068958E+03  0.38743718206E+03  0.00000000000E+00 0.  1.
          1    1    3    3  501    0  0.23207029319E+03 -0.11605038830E+03 -0.65152184781E+03  0.70128812323E+03  0.00000000000E+00 0.  1.
         -3    1    1    2    0  502  0.58193939145E+02 -0.12137765481E+02  0.28469844044E+02  0.65912001365E+02  0.00000000000E+00 0. -1.
<mgrwt>
<rscale>  1 0.64941473E+03</rscale>
<asrwt>0</asrwt>
<pdfrwt beam="1">  1       21 0.23790354E-01 0.64941473E+03</pdfrwt>
<pdfrwt beam="2">0</pdfrwt>
<totfact> 0.16044983E+03</totfact>
</mgrwt>
</event>
<event>
 6    1  0.1364923E-004  0.7612896E+03  0.7818608E-02  0.9617803E-01
         21   -1    0    0  501  502  0.00000000000E+00  0.00000000000E+00  0.60636364660E+03  0.60636364660E+03  0.00000000000E+00 0. -1.
         13   -1    0    0    0    0 -0.00000000000E+00 -0.00000000000E+00 -0.10000000000E+04  0.10000000000E+04  0.00000000000E+00 0.  1.
    9000005    2    1    2  501    0  0.32102961478E+03  0.21753043646E+03 -0.75796532129E+03  0.10742780321E+04  0.65512010924E+03 0.  0.
         13    1    3    3    0    0  0.48821932136E+03  0.62818594465E+02 -0.66705915401E+03  0.82901881553E+03  0.00000000000E+00 0.  1.
          3    1    3    3  501    0 -0.16718970658E+03  0.15471184200E+03 -0.90906167284E+02  0.24525921653E+03  0.00000000000E+00 0.  1.
         -3    1    1    2    0  502 -0.32102961478E+03 -0.21753043646E+03  0.36432896789E+03  0.53208561454E+03  0.00000000000E+00 0. -1.
<mgrwt>
<rscale>  1 0.76128960E+03</rscale>
<asrwt>0</asrwt>
<pdfrwt beam="1">  1       21 0.93286712E-01 0.76128960E+03</pdfrwt>
<pdfrwt beam="2">0</pdfrwt>
<totfact> 0.84607737E+01</totfact>
</mgrwt>
</event>
<event>
 6    1  0.1364923E-004  0.6997655E+03  0.7818608E-02  0.9717633E-01
         21   -1    0    0  501  502  0.00000000000E+00  0.00000000000E+00  0.24775933654E+03  0.24775933654E+03  0.00000000000E+00 0.  1.
         13   -1    0    0    0    0 -0.00000000000E+00 -0.00000000000E+00 -0.10000000000E+04  0.10000000000E+04  0.00000000000E+00 0.  1.
    9000005    2    1    2  501    0 -0.24976021373E+02  0.30861495623E+02 -0.87404116508E+03  0.11196515860E+04  0.69863830570E+03 0.  0.
         13    1    3    3    0    0  0.20980780298E+03  0.25856835836E+03 -0.62641383464E+03  0.70941609959E+03  0.00000000000E+00 0.  1.
          1    1    3    3  501    0 -0.23478382435E+03 -0.22770686274E+03 -0.24762733044E+03  0.41023548639E+03  0.00000000000E+00 0.  1.
         -1    1    1    2    0  502  0.24976021373E+02 -0.30861495623E+02  0.12180050162E+03  0.12810775055E+03  0.00000000000E+00 0. -1.
<mgrwt>
<rscale>  1 0.69976547E+03</rscale>
<asrwt>0</asrwt>
<pdfrwt beam="1">  1       21 0.38116820E-01 0.69976547E+03</pdfrwt>
<pdfrwt beam="2">0</pdfrwt>
<totfact> 0.62166863E+02</totfact>
</mgrwt>
</event>
<event>
 6    1  0.1364923E-004  0.6481789E+03  0.7818608E-02  0.9810202E-01
         21   -1    0    0  501  502  0.00000000000E+00  0.00000000000E+00  0.13321156401E+03  0.13321156401E+03  0.00000000000E+00 0.  1.
         13   -1    0    0    0    0 -0.00000000000E+00 -0.00000000000E+00 -0.10000000000E+04  0.10000000000E+04  0.00000000000E+00 0.  1.
    9000005    2    1    2  501    0  0.54974476771E+02 -0.32326224495E+01 -0.86118625824E+03  0.10778579070E+04  0.64583531449E+03 0.  0.
         13    1    3    3    0    0  0.28749202251E+03  0.11400461161E+03 -0.71548421203E+03  0.77946543999E+03  0.00000000000E+00 0.  1.
          1    1    3    3  501    0 -0.23251754573E+03 -0.11723723406E+03 -0.14570204621E+03  0.29839246705E+03  0.00000000000E+00 0.  1.
         -3    1    1    2    0  502 -0.54974476771E+02  0.32326224495E+01 -0.56021777474E+01  0.55353656968E+02  0.00000000000E+00 0. -1.
<mgrwt>
<rscale>  1 0.64817891E+03</rscale>
<asrwt>0</asrwt>
<pdfrwt beam="1">  1       21 0.20494086E-01 0.64817891E+03</pdfrwt>
<pdfrwt beam="2">0</pdfrwt>
<totfact> 0.21416901E+03</totfact>
</mgrwt>
</event>
<event>
 6    1  0.1364923E-004  0.6594644E+03  0.7818608E-02  0.9789180E-01
         21   -1    0    0  501  502  0.00000000000E+00  0.00000000000E+00  0.32401207369E+03  0.32401207369E+03  0.00000000000E+00 0. -1.
         13   -1    0    0    0    0 -0.00000000000E+00 -0.00000000000E+00 -0.10000000000E+04  0.10000000000E+04  0.00000000000E+00 0.  1.
    9000005    2    1    2  501    0  0.26783960361E+02 -0.21848686786E+02 -0.88973716521E+03  0.11074861335E+04  0.65855794513E+03 0.  0.
         13    1    3    3    0    0  0.80984476790E+02 -0.31561631895E+03 -0.63978961555E+03  0.71798530517E+03  0.00000000000E+00 0.  1.
          3    1    3    3  501    0 -0.54200516429E+02  0.29376763217E+03 -0.24994754966E+03  0.38950082833E+03  0.00000000000E+00 0.  1.
         -1    1    1    2    0  502 -0.26783960361E+02  0.21848686786E+02  0.21374923890E+03  0.21652594020E+03  0.00000000000E+00 0. -1.
<mgrwt>
<rscale>  1 0.65946441E+03</rscale>
<asrwt>0</asrwt>
<pdfrwt beam="1">  1       21 0.49848010E-01 0.65946441E+03</pdfrwt>
<pdfrwt beam="2">0</pdfrwt>
<totfact> 0.35470585E+02</totfact>
</mgrwt>
</event>
<event>
 6    1  0.1364923E-004  0.6739239E+03  0.7818608E-02  0.9762895E-01
         21   -1    0    0  501  502  0.00000000000E+00  0.00000000000E+00  0.18866571413E+03  0.18866571413E+03  0.00000000000E+00 0. -1.
         13   -1    0    0    0    0 -0.00000000000E+00 -0.00000000000E+00 -0.10000000000E+04  0.10000000000E+04  0.00000000000E+00 0.  1.
    9000005    2    1    2  501    0  0.74633116445E+01 -0.25691031041E+02 -0.88379403946E+03  0.11114248830E+04  0.67339263166E+03 0.  0.
         13    1    3    3    0    0 -0.21758600232E+03 -0.25731055848E+03 -0.56356821245E+03  0.65662890737E+03  0.00000000000E+00 0.  1.
          1    1    3    3  501    0  0.22504931396E+03  0.23161952744E+03 -0.32022582701E+03  0.45479597567E+03  0.00000000000E+00 0.  1.
         -1    1    1    2    0  502 -0.74633116445E+01  0.25691031041E+02  0.72459753594E+02  0.77240831090E+02  0.00000000000E+00 0. -1.
<mgrwt>
<rscale>  1 0.67392386E+03</rscale>
<asrwt>0</asrwt>
<pdfrwt beam="1">  1       21 0.29025494E-01 0.67392386E+03</pdfrwt>
<pdfrwt beam="2">0</pdfrwt>
<totfact> 0.10824607E+03</totfact>
</mgrwt>
</event>
<event>
 6    1  0.1364923E-004  0.4732792E+03  0.7818608E-02  0.1020999E+00
         21   -1    0    0  501  502  0.00000000000E+00  0.00000000000E+00  0.80616919790E+02  0.80616919790E+02  0.00000000000E+00 0.  1.
         13   -1    0    0    0    0 -0.00000000000E+00 -0.00000000000E+00 -0.10000000000E+04  0.10000000000E+04  0.00000000000E+00 0.  1.
    9000005    2    1    2  501    0  0.22893299057E+02  0.75810269088E+01 -0.93767647804E+03  0.10503477355E+04  0.47266437667E+03 0.  0.
         13    1    3    3    0    0 -0.20878223858E+03  0.78700093751E+02 -0.35517016065E+03  0.41943959151E+03  0.00000000000E+00 0.  1.
          3    1    3    3  501    0  0.23167553764E+03 -0.71119066842E+02 -0.58250631739E+03  0.63090814404E+03  0.00000000000E+00 0.  1.
         -3    1    1    2    0  502 -0.22893299057E+02 -0.75810269088E+01  0.18293397834E+02  0.30269184248E+02  0.00000000000E+00 0. -1.
<mgrwt>
<rscale>  1 0.47327919E+03</rscale>
<asrwt>0</asrwt>
<pdfrwt beam="1">  1       21 0.12402603E-01 0.47327919E+03</pdfrwt>
<pdfrwt beam="2">0</pdfrwt>
<totfact> 0.55156970E+03</totfact>
</mgrwt>
</event>
<event>
 6    1  0.1364923E-004  0.6655957E+03  0.7818608E-02  0.9777947E-01
         21   -1    0    0  501  502  0.00000000000E+00  0.00000000000E+00  0.15991941721E+03  0.15991941721E+03  0.00000000000E+00 0.  1.
         13   -1    0    0    0    0 -0.00000000000E+00 -0.00000000000E+00 -0.10000000000E+04  0.10000000000E+04  0.00000000000E+00 0.  1.
    9000005    2    1    2  501    0  0.61143038873E+02 -0.10422647627E+03 -0.77866212624E+03  0.10243692185E+04  0.65453491844E+03 0.  0.
         13    1    3    3    0    0  0.96202638305E+02 -0.25830255424E+03 -0.51713326639E+02  0.28044504862E+03  0.00000000000E+00 0.  1.
          3    1    3    3  501    0 -0.35059599432E+02  0.15407607797E+03 -0.72694879960E+03  0.74392416990E+03  0.00000000000E+00 0.  1.
         -3    1    1    2    0  502 -0.61143038873E+02  0.10422647627E+03 -0.61418456553E+02  0.13555019868E+03  0.00000000000E+00 0. -1.
<mgrwt>
<rscale>  1 0.66559566E+03</rscale>
<asrwt>0</asrwt>
<pdfrwt beam="1">  1       21 0.24602987E-01 0.66559566E+03</pdfrwt>
<pdfrwt beam="2">0</pdfrwt>
<totfact> 0.15013673E+03</totfact>
</mgrwt>
</event>
<event>
 6    1  0.1364923E-004  0.6539017E+03  0.7818608E-02  0.9799485E-01
         21   -1    0    0  501  502  0.00000000000E+00  0.00000000000E+00  0.21937753416E+03  0.21937753416E+03  0.00000000000E+00 0. -1.
         13   -1    0    0    0    0 -0.00000000000E+00 -0.00000000000E+00 -0.10000000000E+04  0.10000000000E+04  0.00000000000E+00 0.  1.
    9000005    2    1    2  501    0 -0.25308254524E+02 -0.10536597255E+02 -0.89125100165E+03  0.11054029731E+04  0.65332676160E+03 0.  0.
         13    1    3    3    0    0  0.18208093817E+03  0.25534074905E+03 -0.37596162718E+03  0.48959116749E+03  0.00000000000E+00 0.  1.
          1    1    3    3  501    0 -0.20738919269E+03 -0.26587734630E+03 -0.51528937446E+03  0.61581180563E+03  0.00000000000E+00 0.  1.
         -1    1    1    2    0  502  0.25308254524E+02  0.10536597255E+02  0.11062853581E+03  0.11397456104E+03  0.00000000000E+00 0. -1.
<mgrwt>
<rscale>  1 0.65390166E+03</rscale>
<asrwt>0</asrwt>
<pdfrwt beam="1">  1       21 0.33750389E-01 0.65390166E+03</pdfrwt>
<pdfrwt beam="2">0</pdfrwt>
<totfact> 0.80008582E+02</totfact>
</mgrwt>
</event>
<event>
 6    1  0.1364923E-004  0.6671995E+03  0.7818608E-02  0.9775030E-01
         21   -1    0    0  501  502  0.00000000000E+00  0.00000000000E+00  0.42185118866E+03  0.42185118866E+03  0.00000000000E+00 0. -1.
         13   -1    0    0    0    0 -0.00000000000E+00 -0.00000000000E+00 -0.10000000000E+04  0.10000000000E+04  0.00000000000E+00 0.  1.
    9000005    2    1    2  501    0 -0.20682244526E+02 -0.75517895155E+02 -0.88321428044E+03  0.11068977823E+04  0.66258926010E+03 0.  0.
         13    1    3    3    0    0 -0.21646663728E+03 -0.21867972875E+03 -0.78868904852E+03  0.84658670205E+03  0.00000000000E+00 0.  1.
          3    1    3    3  501    0  0.19578439275E+03  0.14316183360E+03 -0.94525231919E+02  0.26031108027E+03  0.00000000000E+00 0.  1.
         -3    1    1    2    0  502  0.20682244526E+02  0.75517895155E+02  0.30506546910E+03  0.31495340634E+03  0.00000000000E+00 0. -1.
<mgrwt>
<rscale>  1 0.66719955E+03</rscale>
<asrwt>0</asrwt>
<pdfrwt beam="1">  1       21 0.64900181E-01 0.66719955E+03</pdfrwt>
<pdfrwt beam="2">0</pdfrwt>
<totfact> 0.19883417E+02</totfact>
</mgrwt>
</event>
<event>
 6    1  0.1364923E-004  0.6999307E+03  0.7818608E-02  0.9717351E-01
         21   -1    0    0  501  502  0.00000000000E+00  0.00000000000E+00  0.27349286281E+03  0.27349286281E+03  0.00000000000E+00 0. -1.
         13   -1    0    0    0    0 -0.00000000000E+00 -0.00000000000E+00 -0.10000000000E+04  0.10000000000E+04  0.00000000000E+00 0.  1.
    9000005    2    1    2  501    0  0.12787113498E+03  0.22518759320E+03 -0.73425998420E+03  0.10144164534E+04  0.65026343674E+03 0.  0.
         13    1    3    3    0    0  0.15679725876E+03  0.43995171891E+03 -0.59663502628E+03  0.75770459277E+03  0.00000000000E+00 0.  1.
          1    1    3    3  501    0 -0.28926123775E+02 -0.21476412570E+03 -0.13762495792E+03  0.25671186059E+03  0.00000000000E+00 0.  1.
         -1    1    1    2    0  502 -0.12787113498E+03 -0.22518759320E+03  0.77528470054E+01  0.25907640945E+03  0.00000000000E+00 0. -1.
<mgrwt>
<rscale>  1 0.69993072E+03</rscale>
<asrwt>0</asrwt>
<pdfrwt beam="1">  1       21 0.42075824E-01 0.69993072E+03</pdfrwt>
<pdfrwt beam="2">0</pdfrwt>
<totfact> 0.50618744E+02</totfact>
</mgrwt>
</event>
<event>
 6    1  0.1364923E-004  0.6546945E+03  0.7818608E-02  0.9798010E-01
         21   -1    0    0  501  502  0.00000000000E+00  0.00000000000E+00  0.53887505654E+03  0.53887505654E+03  0.00000000000E+00 0. -1.
         13   -1    0    0    0    0 -0.00000000000E+00 -0.00000000000E+00 -0.10000000000E+04  0.10000000000E+04  0.00000000000E+00 0.  1.
    9000005    2    1    2  501    0  0.18444397713E+02  0.80161171731E+01 -0.89258445556E+03  0.11069470943E+04  0.65438551743E+03 0.  0.
         13    1    3    3    0    0  0.22716026171E+03 -0.19040860851E+03 -0.70091231575E+03  0.76100939355E+03  0.00000000000E+00 0.  1.
          3    1    3    3  501    0 -0.20871586400E+03  0.19842472569E+03 -0.19167213981E+03  0.34593770079E+03  0.00000000000E+00 0.  1.
         -3    1    1    2    0  502 -0.18444397713E+02 -0.80161171731E+01  0.43145951210E+03  0.43192796219E+03  0.00000000000E+00 0. -1.
<mgrwt>
<rscale>  1 0.65469448E+03</rscale>
<asrwt>0</asrwt>
<pdfrwt beam="1">  1       21 0.82903852E-01 0.65469448E+03</pdfrwt>
<pdfrwt beam="2">0</pdfrwt>
<totfact> 0.11360395E+02</totfact>
</mgrwt>
</event>
<event>
 6    1  0.1364923E-004  0.6555004E+03  0.7818608E-02  0.9796513E-01
         21   -1    0    0  501  502  0.00000000000E+00  0.00000000000E+00  0.14987445218E+03  0.14987445218E+03  0.00000000000E+00 0.  1.
         13   -1    0    0    0    0 -0.00000000000E+00 -0.00000000000E+00 -0.10000000000E+04  0.10000000000E+04  0.00000000000E+00 0.  1.
    9000005    2    1    2  501    0 -0.11418355510E+03  0.59877218816E+01 -0.67651919208E+03  0.94199731581E+03  0.64545099634E+03 0.  0.
         13    1    3    3    0    0 -0.77944366619E+02 -0.98693007901E+02  0.98100301579E+02  0.15949703215E+03  0.00000000000E+00 0.  1.
          1    1    3    3  501    0 -0.36239188485E+02  0.10468072978E+03 -0.77461949366E+03  0.78250028366E+03  0.00000000000E+00 0.  1.
         -1    1    1    2    0  502  0.11418355510E+03 -0.59877218816E+01 -0.17360635574E+03  0.20787713636E+03  0.00000000000E+00 0. -1.
<mgrwt>
<rscale>  1 0.65550036E+03</rscale>
<asrwt>0</asrwt>
<pdfrwt beam="1">  1       21 0.23057607E-01 0.65550036E+03</pdfrwt>
<pdfrwt beam="2">0</pdfrwt>
<totfact> 0.17047874E+03</totfact>
</mgrwt>
</event>
<event>
 6    1  0.1364923E-004  0.6566292E+03  0.7818608E-02  0.9794419E-01
         21   -1    0    0  501  502  0.00000000000E+00  0.00000000000E+00  0.12873230627E+03  0.12873230627E+03  0.00000000000E+00 0.  1.
         13   -1    0    0    0    0 -0.00000000000E+00 -0.00000000000E+00 -0.10000000000E+04  0.10000000000E+04  0.00000000000E+00 0.  1.
    9000005    2    1    2  501    0  0.60289174901E+02  0.56312818863E+01 -0.78674428852E+03  0.10247577807E+04  0.65383135256E+03 0.  0.
         13    1    3    3    0    0  0.15295835466E+03  0.19137500289E+01 -0.88002323240E+03  0.89321935171E+03  0.00000000000E+00 0.  1.
          1    1    3    3  501    0 -0.92669179762E+02  0.37175318574E+01  0.93278943886E+02  0.13153842896E+03  0.00000000000E+00 0.  1.
         -3    1    1    2    0  502 -0.60289174901E+02 -0.56312818863E+01 -0.84523405209E+02  0.10397452560E+03  0.00000000000E+00 0. -1.
<mgrwt>
<rscale>  1 0.65662922E+03</rscale>
<asrwt>0</asrwt>
<pdfrwt beam="1">  1       21 0.19804970E-01 0.65662922E+03</pdfrwt>
<pdfrwt beam="2">0</pdfrwt>
<totfact> 0.22862213E+03</totfact>
</mgrwt>
</event>
<event>
 6    1  0.1364923E-004  0.6573936E+03  0.7818608E-02  0.9793004E-01
         21   -1    0    0  501  502  0.00000000000E+00  0.00000000000E+00  0.27296940461E+03  0.27296940461E+03  0.00000000000E+00 0. -1.
         13   -1    0    0    0    0 -0.00000000000E+00 -0.00000000000E+00 -0.10000000000E+04  0.10000000000E+04  0.00000000000E+00 0.  1.
    9000005    2    1    2  501    0 -0.12402263817E+03 -0.89100581240E+02 -0.85165304601E+03  0.10758621152E+04  0.63941055020E+03 0.  0.
         13    1    3    3    0    0  0.13100071540E+03  0.20873245666E+03 -0.45892527521E+03  0.52090578238E+03  0.00000000000E+00 0.  1.
          3    1    3    3  501    0 -0.25502335357E+03 -0.29783303790E+03 -0.39272777080E+03  0.55495633277E+03  0.00000000000E+00 0.  1.
         -3    1    1    2    0  502  0.12402263817E+03  0.89100581240E+02  0.12462245061E+03  0.19710728945E+03  0.00000000000E+00 0. -1.
<mgrwt>
<rscale>  1 0.65739363E+03</rscale>
<asrwt>0</asrwt>
<pdfrwt beam="1">  1       21 0.41995292E-01 0.65739363E+03</pdfrwt>
<pdfrwt beam="2">0</pdfrwt>
<totfact> 0.50996890E+02</totfact>
</mgrwt>
</event>
<event>
 6    1  0.1364923E-004  0.6678256E+03  0.7818608E-02  0.9773894E-01
         21   -1    0    0  501  502  0.00000000000E+00  0.00000000000E+00  0.16575517956E+03  0.16575517956E+03  0.00000000000E+00 0.  1.
         13   -1    0    0    0    0 -0.00000000000E+00 -0.00000000000E+00 -0.10000000000E+04  0.10000000000E+04  0.00000000000E+00 0.  1.
    9000005    2    1    2  501    0  0.15006706571E+02  0.22020207245E+02 -0.88483949289E+03  0.11085720383E+04  0.66729374720E+03 0.  0.
         13    1    3    3    0    0 -0.45683163988E+02  0.79507426950E+02 -0.97864047744E+03  0.98292704027E+03  0.00000000000E+00 0.  1.
          3    1    3    3  501    0  0.60689870559E+02 -0.57487219705E+02  0.93800984543E+02  0.12564499799E+03  0.00000000000E+00 0.  1.
         -3    1    1    2    0  502 -0.15006706571E+02 -0.22020207245E+02  0.50594672456E+02  0.57183141311E+02  0.00000000000E+00 0. -1.
<mgrwt>
<rscale>  1 0.66782560E+03</rscale>
<asrwt>0</asrwt>
<pdfrwt beam="1">  1       21 0.25500796E-01 0.66782560E+03</pdfrwt>
<pdfrwt beam="2">0</pdfrwt>
<totfact> 0.13992773E+03</totfact>
</mgrwt>
</event>
<event>
 6    1  0.1364923E-004  0.6595001E+03  0.7818608E-02  0.9789114E-01
         21   -1    0    0  501  502  0.00000000000E+00  0.00000000000E+00  0.39942223018E+03  0.39942223018E+03  0.00000000000E+00 0. -1.
         13   -1    0    0    0    0 -0.00000000000E+00 -0.00000000000E+00 -0.10000000000E+04  0.10000000000E+04  0.00000000000E+00 0.  1.
    9000005    2    1    2  501    0  0.45434925393E+02  0.39759034912E+02 -0.88778394312E+03  0.11059388418E+04  0.65673075057E+03 0.  0.
         13    1    3    3    0    0 -0.15376114051E+03  0.46016506217E+02  0.32980875511E+02  0.16385281604E+03  0.00000000000E+00 0.  1.
          3    1    3    3  501    0  0.19919606590E+03 -0.62574713056E+01 -0.92076481863E+03  0.94208602571E+03  0.00000000000E+00 0.  1.
         -1    1    1    2    0  502 -0.45434925393E+02 -0.39759034912E+02  0.28720617330E+03  0.29348338843E+03  0.00000000000E+00 0. -1.
<mgrwt>
<rscale>  1 0.65950011E+03</rscale>
<asrwt>0</asrwt>
<pdfrwt beam="1">  1       21 0.61449572E-01 0.65950011E+03</pdfrwt>
<pdfrwt beam="2">0</pdfrwt>
<totfact> 0.22478783E+02</totfact>
</mgrwt>
</event>
<event>
 6    1  0.1364923E-004  0.7241502E+03  0.7818608E-02  0.9676801E-01
         21   -1    0    0  501  502  0.00000000000E+00  0.00000000000E+00  0.14467487322E+04  0.14467487322E+04  0.00000000000E+00 0. -1.
         13   -1    0    0    0    0 -0.00000000000E+00 -0.00000000000E+00 -0.10000000000E+04  0.10000000000E+04  0.00000000000E+00 0.  1.
    9000005    2    1    2  501    0  0.65210839312E+01 -0.32239261856E+03 -0.84645567336E+03  0.11139482372E+04  0.64839335519E+03 0.  0.
         13    1    3    3    0    0 -0.33240734683E+02 -0.49474306764E+03 -0.78146837346E+03  0.92550984227E+03  0.00000000000E+00 0.  1.
          1    1    3    3  501    0  0.39761818614E+02  0.17235044908E+03 -0.64987299904E+02  0.18843839488E+03  0.00000000000E+00 0.  1.
         -3    1    1    2    0  502 -0.65210839312E+01  0.32239261856E+03  0.12932044055E+04  0.13328004950E+04  0.00000000000E+00 0. -1.
<mgrwt>
<rscale>  1 0.72415017E+03</rscale>
<asrwt>0</asrwt>
<pdfrwt beam="1">  1       21 0.22257672E+00 0.72415017E+03</pdfrwt>
<pdfrwt beam="2">0</pdfrwt>
<totfact> 0.76367156E+00</totfact>
</mgrwt>
</event>
<event>
 6    1  0.1364923E-004  0.6455030E+03  0.7818608E-02  0.9815254E-01
         21   -1    0    0  501  502  0.00000000000E+00  0.00000000000E+00  0.12149755419E+03  0.12149755419E+03  0.00000000000E+00 0.  1.
         13   -1    0    0    0    0 -0.00000000000E+00 -0.00000000000E+00 -0.10000000000E+04  0.10000000000E+04  0.00000000000E+00 0.  1.
    9000005    2    1    2  501    0  0.20295918766E+02  0.67533605257E+01 -0.88822119130E+03  0.10980031674E+04  0.64514846256E+03 0.  0.
         13    1    3    3    0    0 -0.30170360249E+03  0.15476599130E+02 -0.29104082194E+03  0.41948700684E+03  0.00000000000E+00 0.  1.
          3    1    3    3  501    0  0.32199952126E+03 -0.87232386046E+01 -0.59718036936E+03  0.67851616055E+03  0.00000000000E+00 0.  1.
         -1    1    1    2    0  502 -0.20295918766E+02 -0.67533605257E+01  0.97187454865E+01  0.23494386793E+02  0.00000000000E+00 0. -1.
<mgrwt>
<rscale>  1 0.64550296E+03</rscale>
<asrwt>0</asrwt>
<pdfrwt beam="1">  1       21 0.18691931E-01 0.64550296E+03</pdfrwt>
<pdfrwt beam="2">0</pdfrwt>
<totfact> 0.25544239E+03</totfact>
</mgrwt>
</event>
<event>
 6    1  0.1364923E-004  0.6529461E+03  0.7818608E-02  0.9801267E-01
         21   -1    0    0  501  502  0.00000000000E+00  0.00000000000E+00  0.30824305583E+03  0.30824305583E+03  0.00000000000E+00 0. -1.
         13   -1    0    0    0    0 -0.00000000000E+00 -0.00000000000E+00 -0.10000000000E+04  0.10000000000E+04  0.00000000000E+00 0.  1.
    9000005    2    1    2  501    0 -0.37693676691E+02  0.45478200446E+02 -0.88861576438E+03  0.11027133133E+04  0.65026886332E+03 0.  0.
         13    1    3    3    0    0  0.34171741546E+02  0.30511511025E+03 -0.20834172154E+03  0.37103801875E+03  0.00000000000E+00 0.  1.
          1    1    3    3  501    0 -0.71865418237E+02 -0.25963690980E+03 -0.68027404284E+03  0.73167529453E+03  0.00000000000E+00 0.  1.
         -1    1    1    2    0  502  0.37693676691E+02 -0.45478200446E+02  0.19685882021E+03  0.20552974255E+03  0.00000000000E+00 0. -1.
<mgrwt>
<rscale>  1 0.65294615E+03</rscale>
<asrwt>0</asrwt>
<pdfrwt beam="1">  1       21 0.47422007E-01 0.65294615E+03</pdfrwt>
<pdfrwt beam="2">0</pdfrwt>
<totfact> 0.39482130E+02</totfact>
</mgrwt>
</event>
<event>
 6    1  0.1364923E-004  0.6639232E+03  0.7818608E-02  0.9780998E-01
         21   -1    0    0  501  502  0.00000000000E+00  0.00000000000E+00  0.27037999884E+03  0.27037999884E+03  0.00000000000E+00 0. -1.
         13   -1    0    0    0    0 -0.00000000000E+00 -0.00000000000E+00 -0.10000000000E+04  0.10000000000E+04  0.00000000000E+00 0.  1.
    9000005    2    1    2  501    0 -0.60437819464E+02 -0.14461509934E+03 -0.84581858336E+03  0.10752688319E+04  0.64515713421E+03 0.  0.
         13    1    3    3    0    0  0.60030918349E+02 -0.37914341553E+03 -0.61437541175E+03  0.72443811831E+03  0.00000000000E+00 0.  1.
          3    1    3    3  501    0 -0.12046873781E+03  0.23452831619E+03 -0.23144317160E+03  0.35083071354E+03  0.00000000000E+00 0.  1.
         -3    1    1    2    0  502  0.60437819464E+02  0.14461509934E+03  0.11619858220E+03  0.19511116699E+03  0.00000000000E+00 0. -1.
<mgrwt>
<rscale>  1 0.66392318E+03</rscale>
<asrwt>0</asrwt>
<pdfrwt beam="1">  1       21 0.41596922E-01 0.66392318E+03</pdfrwt>
<pdfrwt beam="2">0</pdfrwt>
<totfact> 0.51994953E+02</totfact>
</mgrwt>
</event>
<event>
 6    1  0.1364923E-004  0.6649916E+03  0.7818608E-02  0.9779048E-01
         21   -1    0    0  501  502  0.00000000000E+00  0.00000000000E+00  0.22167425503E+03  0.22167425503E+03  0.00000000000E+00 0. -1.
         13   -1    0    0    0    0 -0.00000000000E+00 -0.00000000000E+00 -0.10000000000E+04  0.10000000000E+04  0.00000000000E+00 0.  1.
    9000005    2    1    2  501    0  0.34383592249E+02  0.57983365377E+01 -0.88639953159E+03  0.11081145990E+04  0.66407678984E+03 0.  0.
         13    1    3    3    0    0 -0.80581741114E+02 -0.27567466970E+03 -0.68672071877E+03  0.74436233522E+03  0.00000000000E+00 0.  1.
          3    1    3    3  501    0  0.11496533336E+03  0.28147300624E+03 -0.19967881282E+03  0.36375226378E+03  0.00000000000E+00 0.  1.
         -3    1    1    2    0  502 -0.34383592249E+02 -0.57983365377E+01  0.10807378662E+03  0.11355965603E+03  0.00000000000E+00 0. -1.
<mgrwt>
<rscale>  1 0.66499161E+03</rscale>
<asrwt>0</asrwt>
<pdfrwt beam="1">  1       21 0.34103731E-01 0.66499161E+03</pdfrwt>
<pdfrwt beam="2">0</pdfrwt>
<totfact> 0.78272902E+02</totfact>
</mgrwt>
</event>
<event>
 6    1  0.1364923E-004  0.6576773E+03  0.7818608E-02  0.9792479E-01
         21   -1    0    0  501  502  0.00000000000E+00  0.00000000000E+00  0.15264425937E+03  0.15264425937E+03  0.00000000000E+00 0.  1.
         13   -1    0    0    0    0 -0.00000000000E+00 -0.00000000000E+00 -0.10000000000E+04  0.10000000000E+04  0.00000000000E+00 0.  1.
    9000005    2    1    2  501    0 -0.44545108390E+02 -0.66589092452E+01 -0.87884872062E+03  0.10976859521E+04  0.65613319368E+03 0.  0.
         13    1    3    3    0    0 -0.17936110420E+02 -0.30710777535E+03 -0.64982850420E+03  0.71896729732E+03  0.00000000000E+00 0.  1.
          1    1    3    3  501    0 -0.26608997970E+02  0.30044886610E+03 -0.22902021642E+03  0.37871865474E+03  0.00000000000E+00 0.  1.
         -3    1    1    2    0  502  0.44545108390E+02  0.66589092452E+01  0.31492979989E+02  0.54958307310E+02  0.00000000000E+00 0. -1.
<mgrwt>
<rscale>  1 0.65767726E+03</rscale>
<asrwt>0</asrwt>
<pdfrwt beam="1">  1       21 0.23483732E-01 0.65767726E+03</pdfrwt>
<pdfrwt beam="2">0</pdfrwt>
<totfact> 0.16449265E+03</totfact>
</mgrwt>
</event>
<event>
 6    1  0.1364923E-004  0.6513587E+03  0.7818608E-02  0.9804233E-01
         21   -1    0    0  501  502  0.00000000000E+00  0.00000000000E+00  0.18360297727E+03  0.18360297727E+03  0.00000000000E+00 0. -1.
         13   -1    0    0    0    0 -0.00000000000E+00 -0.00000000000E+00 -0.10000000000E+04  0.10000000000E+04  0.00000000000E+00 0.  1.
    9000005    2    1    2  501    0  0.52958698727E+02 -0.34418921697E+01 -0.88375030964E+03  0.10978537169E+04  0.64919311733E+03 0.  0.
         13    1    3    3    0    0 -0.80875764956E+02  0.24491244065E+03 -0.73495916989E+03  0.77890177452E+03  0.00000000000E+00 0.  1.
          1    1    3    3  501    0  0.13383446368E+03 -0.24835433282E+03 -0.14879113975E+03  0.31895194241E+03  0.00000000000E+00 0.  1.
         -1    1    1    2    0  502 -0.52958698727E+02  0.34418921697E+01  0.67353286912E+02  0.85749260350E+02  0.00000000000E+00 0. -1.
<mgrwt>
<rscale>  1 0.65135871E+03</rscale>
<asrwt>0</asrwt>
<pdfrwt beam="1">  1       21 0.28246611E-01 0.65135871E+03</pdfrwt>
<pdfrwt beam="2">0</pdfrwt>
<totfact> 0.11442559E+03</totfact>
</mgrwt>
</event>
<event>
 6    1  0.1364923E-004  0.6502914E+03  0.7818608E-02  0.9806233E-01
         21   -1    0    0  501  502  0.00000000000E+00  0.00000000000E+00  0.35096895313E+03  0.35096895313E+03  0.00000000000E+00 0. -1.
         13   -1    0    0    0    0 -0.00000000000E+00 -0.00000000000E+00 -0.10000000000E+04  0.10000000000E+04  0.00000000000E+00 0.  1.
    9000005    2    1    2  501    0  0.52279997287E+01  0.26364630921E+02 -0.89346567617E+03  0.11050610156E+04  0.64973572161E+03 0.  0.
         13    1    3    3    0    0  0.10168422572E+03 -0.29608744207E+03 -0.40572242074E+03  0.51246281602E+03  0.00000000000E+00 0.  1.
          3    1    3    3  501    0 -0.96456225989E+02  0.32245207300E+03 -0.48774325543E+03  0.59259819957E+03  0.00000000000E+00 0.  1.
         -1    1    1    2    0  502 -0.52279997287E+01 -0.26364630921E+02  0.24443462930E+03  0.24590793754E+03  0.00000000000E+00 0. -1.
<mgrwt>
<rscale>  1 0.65029142E+03</rscale>
<asrwt>0</asrwt>
<pdfrwt beam="1">  1       21 0.53995222E-01 0.65029142E+03</pdfrwt>
<pdfrwt beam="2">0</pdfrwt>
<totfact> 0.29882352E+02</totfact>
</mgrwt>
</event>
<event>
 6    1  0.1364923E-004  0.6690329E+03  0.7818608E-02  0.9771706E-01
         21   -1    0    0  501  502  0.00000000000E+00  0.00000000000E+00  0.16026619378E+03  0.16026619378E+03  0.00000000000E+00 0.  1.
         13   -1    0    0    0    0 -0.00000000000E+00 -0.00000000000E+00 -0.10000000000E+04  0.10000000000E+04  0.00000000000E+00 0.  1.
    9000005    2    1    2  501    0 -0.11136388118E+03  0.30282158059E+02 -0.78824614277E+03  0.10338941137E+04  0.65900389505E+03 0.  0.
         13    1    3    3    0    0  0.11973600558E+03  0.26920791932E+03 -0.55324498461E+03  0.62680908405E+03  0.00000000000E+00 0.  1.
          1    1    3    3  501    0 -0.23109988675E+03 -0.23892576126E+03 -0.23500115816E+03  0.40708502968E+03  0.00000000000E+00 0.  1.
         -3    1    1    2    0  502  0.11136388118E+03 -0.30282158059E+02 -0.51487663450E+02  0.12637208005E+03  0.00000000000E+00 0. -1.
<mgrwt>
<rscale>  1 0.66903293E+03</rscale>
<asrwt>0</asrwt>
<pdfrwt beam="1">  1       21 0.24656337E-01 0.66903293E+03</pdfrwt>
<pdfrwt beam="2">0</pdfrwt>
<totfact> 0.14947560E+03</totfact>
</mgrwt>
</event>
<event>
 6    1  0.1364923E-004  0.6031892E+03  0.7818608E-02  0.9898812E-01
         21   -1    0    0  501  502  0.00000000000E+00  0.00000000000E+00  0.40814397566E+03  0.40814397566E+03  0.00000000000E+00 0. -1.
         13   -1    0    0    0    0 -0.00000000000E+00 -0.00000000000E+00 -0.10000000000E+04  0.10000000000E+04  0.00000000000E+00 0.  1.
    9000005    2    1    2  501    0  0.14391236611E+02 -0.19975952885E+02 -0.90851940176E+03  0.10905249570E+04  0.60268651236E+03 0.  0.
         13    1    3    3    0    0 -0.42687307994E+02 -0.13185753779E+03 -0.94861024602E+03  0.95868139410E+03  0.00000000000E+00 0.  1.
          3    1    3    3  501    0  0.57078544605E+02  0.11188158491E+03  0.40090844261E+02  0.13184356294E+03  0.00000000000E+00 0.  1.
         -3    1    1    2    0  502 -0.14391236611E+02  0.19975952885E+02  0.31666337742E+03  0.31761901861E+03  0.00000000000E+00 0. -1.
<mgrwt>
<rscale>  1 0.60318917E+03</rscale>
<asrwt>0</asrwt>
<pdfrwt beam="1">  1       21 0.62791379E-01 0.60318917E+03</pdfrwt>
<pdfrwt beam="2">0</pdfrwt>
<totfact> 0.21563491E+02</totfact>
</mgrwt>
</event>
<event>
 6    1  0.1364923E-004  0.6189379E+03  0.7818608E-02  0.9866877E-01
         21   -1    0    0  501  502  0.00000000000E+00  0.00000000000E+00  0.15197756297E+03  0.15197756297E+03  0.00000000000E+00 0.  1.
         13   -1    0    0    0    0 -0.00000000000E+00 -0.00000000000E+00 -0.10000000000E+04  0.10000000000E+04  0.00000000000E+00 0.  1.
    9000005    2    1    2  501    0  0.21149648836E+02 -0.26622413056E+01 -0.90200623230E+03  0.10939375309E+04  0.61857067758E+03 0.  0.
         13    1    3    3    0    0 -0.23962993047E+03 -0.15678941716E+03 -0.27231132595E+03  0.39516943601E+03  0.00000000000E+00 0.  1.
          3    1    3    3  501    0  0.26077957931E+03  0.15412717585E+03 -0.62969490635E+03  0.69876809486E+03  0.00000000000E+00 0.  1.
         -1    1    1    2    0  502 -0.21149648836E+02  0.26622413056E+01  0.53983795270E+02  0.58040032102E+02  0.00000000000E+00 0. -1.
<mgrwt>
<rscale>  1 0.61893786E+03</rscale>
<asrwt>0</asrwt>
<pdfrwt beam="1">  1       21 0.23381163E-01 0.61893786E+03</pdfrwt>
<pdfrwt beam="2">0</pdfrwt>
<totfact> 0.16621663E+03</totfact>
</mgrwt>
</event>
<event>
 6    1  0.1364923E-004  0.6696029E+03  0.7818608E-02  0.9770676E-01
         21   -1    0    0  501  502  0.00000000000E+00  0.00000000000E+00  0.20227362390E+03  0.20227362390E+03  0.00000000000E+00 0.  1.
         13   -1    0    0    0    0 -0.00000000000E+00 -0.00000000000E+00 -0.10000000000E+04  0.10000000000E+04  0.00000000000E+00 0.  1.
    9000005    2    1    2  501    0 -0.12172842726E+03  0.13531637818E+03 -0.76618373383E+03  0.10175487731E+04  0.64439092136E+03 0.  0.
         13    1    3    3    0    0  0.12495599314E+03  0.88396905337E+02  0.52035028309E+02  0.16166526301E+03  0.00000000000E+00 0.  1.
          1    1    3    3  501    0 -0.24668442039E+03  0.46919472848E+02 -0.81821876214E+03  0.85588351013E+03  0.00000000000E+00 0.  1.
         -1    1    1    2    0  502  0.12172842726E+03 -0.13531637818E+03 -0.31542642265E+02  0.18472485076E+03  0.00000000000E+00 0. -1.
<mgrwt>
<rscale>  1 0.66960286E+03</rscale>
<asrwt>0</asrwt>
<pdfrwt beam="1">  1       21 0.31119018E-01 0.66960286E+03</pdfrwt>
<pdfrwt beam="2">0</pdfrwt>
<totfact> 0.94172414E+02</totfact>
</mgrwt>
</event>
<event>
 6    1  0.1364923E-004  0.6998039E+03  0.7818608E-02  0.9717568E-01
         21   -1    0    0  501  502  0.00000000000E+00  0.00000000000E+00  0.21053110908E+03  0.21053110908E+03  0.00000000000E+00 0.  1.
         13   -1    0    0    0    0 -0.00000000000E+00 -0.00000000000E+00 -0.10000000000E+04  0.10000000000E+04  0.00000000000E+00 0.  1.
    9000005    2    1    2  501    0 -0.50868943981E+01 -0.12600369594E+03 -0.82274459228E+03  0.10801084110E+04  0.68834780990E+03 0.  0.
         13    1    3    3    0    0  0.99991327278E+02 -0.26332284383E+03 -0.47291051164E+02  0.28561097516E+03  0.00000000000E+00 0.  1.
          1    1    3    3  501    0 -0.10507822168E+03  0.13731914788E+03 -0.77545354112E+03  0.79449743579E+03  0.00000000000E+00 0.  1.
         -3    1    1    2    0  502  0.50868943981E+01  0.12600369594E+03  0.33275701360E+02  0.13042269813E+03  0.00000000000E+00 0. -1.
<mgrwt>
<rscale>  1 0.69980391E+03</rscale>
<asrwt>0</asrwt>
<pdfrwt beam="1">  1       21 0.32389400E-01 0.69980391E+03</pdfrwt>
<pdfrwt beam="2">0</pdfrwt>
<totfact> 0.86704372E+02</totfact>
</mgrwt>
</event>
<event>
 6    1  0.1364923E-004  0.6890932E+03  0.7818608E-02  0.9736068E-01
         21   -1    0    0  501  502  0.00000000000E+00  0.00000000000E+00  0.41499464131E+03  0.41499464131E+03  0.00000000000E+00 0. -1.
         13   -1    0    0    0    0 -0.00000000000E+00 -0.00000000000E+00 -0.10000000000E+04  0.10000000000E+04  0.00000000000E+00 0.  1.
    9000005    2    1    2  501    0  0.76560490086E+02 -0.20903630870E+03 -0.83343387595E+03  0.10814164418E+04  0.65214400868E+03 0.  0.
         13    1    3    3    0    0  0.13847610993E+03  0.17313607941E+03 -0.57412498722E+03  0.61544393406E+03  0.00000000000E+00 0.  1.
          1    1    3    3  501    0 -0.61915619849E+02 -0.38217238811E+03 -0.25930888872E+03  0.46597250775E+03  0.00000000000E+00 0.  1.
         -3    1    1    2    0  502 -0.76560490086E+02  0.20903630870E+03  0.24842851726E+03  0.33357819950E+03  0.00000000000E+00 0. -1.
<mgrwt>
<rscale>  1 0.68909324E+03</rscale>
<asrwt>0</asrwt>
<pdfrwt beam="1">  1       21 0.63845328E-01 0.68909324E+03</pdfrwt>
<pdfrwt beam="2">0</pdfrwt>
<totfact> 0.20577199E+02</totfact>
</mgrwt>
</event>
<event>
 6    1  0.1364923E-004  0.6688954E+03  0.7818608E-02  0.9771955E-01
         21   -1    0    0  501  502  0.00000000000E+00  0.00000000000E+00  0.28808733602E+03  0.28808733602E+03  0.00000000000E+00 0. -1.
         13   -1    0    0    0    0 -0.00000000000E+00 -0.00000000000E+00 -0.10000000000E+04  0.10000000000E+04  0.00000000000E+00 0.  1.
    9000005    2    1    2  501    0  0.37971973791E+01  0.21456312196E+02 -0.88739549400E+03  0.11112568645E+04  0.66854039817E+03 0.  0.
         13    1    3    3    0    0 -0.22054272835E+03 -0.94127782071E+02 -0.81378144132E+03  0.84837454501E+03  0.00000000000E+00 0.  1.
          3    1    3    3  501    0  0.22433992573E+03  0.11558409427E+03 -0.73614052684E+02  0.26288231945E+03  0.00000000000E+00 0.  1.
         -1    1    1    2    0  502 -0.37971973791E+01 -0.21456312196E+02  0.17548283002E+03  0.17683047156E+03  0.00000000000E+00 0. -1.
<mgrwt>
<rscale>  1 0.66889540E+03</rscale>
<asrwt>0</asrwt>
<pdfrwt beam="1">  1       21 0.44321127E-01 0.66889540E+03</pdfrwt>
<pdfrwt beam="2">0</pdfrwt>
<totfact> 0.45496327E+02</totfact>
</mgrwt>
</event>
<event>
 6    1  0.1364923E-004  0.6749279E+03  0.7818608E-02  0.9761096E-01
         21   -1    0    0  501  502  0.00000000000E+00  0.00000000000E+00  0.17941382204E+03  0.17941382204E+03  0.00000000000E+00 0. -1.
         13   -1    0    0    0    0 -0.00000000000E+00 -0.00000000000E+00 -0.10000000000E+04  0.10000000000E+04  0.00000000000E+00 0.  1.
    9000005    2    1    2  501    0  0.22985968448E+02 -0.11610853999E+02 -0.88328677705E+03  0.11116308463E+04  0.67443638781E+03 0.  0.
         13    1    3    3    0    0 -0.22010115214E+03  0.19469979611E+03 -0.65977056332E+03  0.72225322706E+03  0.00000000000E+00 0.  1.
          1    1    3    3  501    0  0.24308712059E+03 -0.20631065011E+03 -0.22351621373E+03  0.38937761922E+03  0.00000000000E+00 0.  1.
         -3    1    1    2    0  502 -0.22985968448E+02  0.11610853999E+02  0.62700599099E+02  0.67782975764E+02  0.00000000000E+00 0. -1.
<mgrwt>
<rscale>  1 0.67492785E+03</rscale>
<asrwt>0</asrwt>
<pdfrwt beam="1">  1       21 0.27602126E-01 0.67492785E+03</pdfrwt>
<pdfrwt beam="2">0</pdfrwt>
<totfact> 0.11963164E+03</totfact>
</mgrwt>
</event>
<event>
 6    1  0.1364923E-004  0.6536982E+03  0.7818608E-02  0.9799864E-01
         21   -1    0    0  501  502  0.00000000000E+00  0.00000000000E+00  0.13370671968E+03  0.13370671968E+03  0.00000000000E+00 0.  1.
         13   -1    0    0    0    0 -0.00000000000E+00 -0.00000000000E+00 -0.10000000000E+04  0.10000000000E+04  0.00000000000E+00 0.  1.
    9000005    2    1    2  501    0 -0.58689484425E+01  0.23356438948E+02 -0.88706067442E+03  0.11019065239E+04  0.65325445229E+03 0.  0.
         13    1    3    3    0    0 -0.19008991185E+03  0.23894434337E+03 -0.21782143300E+03  0.37506632813E+03  0.00000000000E+00 0.  1.
          3    1    3    3  501    0  0.18422096341E+03 -0.21558790442E+03 -0.66923924142E+03  0.72684019574E+03  0.00000000000E+00 0.  1.
         -1    1    1    2    0  502  0.58689484425E+01 -0.23356438948E+02  0.20767394104E+02  0.31800195818E+02  0.00000000000E+00 0. -1.
<mgrwt>
<rscale>  1 0.65369821E+03</rscale>
<asrwt>0</asrwt>
<pdfrwt beam="1">  1       21 0.20570264E-01 0.65369821E+03</pdfrwt>
<pdfrwt beam="2">0</pdfrwt>
<totfact> 0.21259918E+03</totfact>
</mgrwt>
</event>
<event>
 6    1  0.1364923E-004  0.6672226E+03  0.7818608E-02  0.9774988E-01
         21   -1    0    0  501  502  0.00000000000E+00  0.00000000000E+00  0.15787892792E+03  0.15787892792E+03  0.00000000000E+00 0.  1.
         13   -1    0    0    0    0 -0.00000000000E+00 -0.00000000000E+00 -0.10000000000E+04  0.10000000000E+04  0.00000000000E+00 0.  1.
    9000005    2    1    2  501    0  0.85337259505E+02  0.43775912964E+02 -0.82401137942E+03  0.10602739107E+04  0.66029329385E+03 0.  0.
         13    1    3    3    0    0 -0.25001746535E+03  0.12299824500E+03 -0.18556157096E+03  0.33476917103E+03  0.00000000000E+00 0.  1.
          3    1    3    3  501    0  0.33535472486E+03 -0.79222332039E+02 -0.63844980846E+03  0.72550473968E+03  0.00000000000E+00 0.  1.
         -1    1    1    2    0  502 -0.85337259505E+02 -0.43775912964E+02 -0.18109692662E+02  0.97605017207E+02  0.00000000000E+00 0. -1.
<mgrwt>
<rscale>  1 0.66722261E+03</rscale>
<asrwt>0</asrwt>
<pdfrwt beam="1">  1       21 0.24289065E-01 0.66722261E+03</pdfrwt>
<pdfrwt beam="2">0</pdfrwt>
<totfact> 0.15394449E+03</totfact>
</mgrwt>
</event>
<event>
 6    1  0.1364923E-004  0.6517122E+03  0.7818608E-02  0.9803572E-01
         21   -1    0    0  501  502  0.00000000000E+00  0.00000000000E+00  0.14911117681E+03  0.14911117681E+03  0.00000000000E+00 0.  1.
         13   -1    0    0    0    0 -0.00000000000E+00 -0.00000000000E+00 -0.10000000000E+04  0.10000000000E+04  0.00000000000E+00 0.  1.
    9000005    2    1    2  501    0 -0.10546907186E+03  0.30334064905E+02 -0.78815703962E+03  0.10227024853E+04  0.64240561469E+03 0.  0.
         13    1    3    3    0    0 -0.35761704222E+03 -0.77113898472E+02 -0.35269888285E+03  0.50816631548E+03  0.00000000000E+00 0.  1.
          1    1    3    3  501    0  0.25214797036E+03  0.10744796338E+03 -0.43545815677E+03  0.51453616985E+03  0.00000000000E+00 0.  1.
         -3    1    1    2    0  502  0.10546907186E+03 -0.30334064905E+02 -0.62731783572E+02  0.12640869148E+03  0.00000000000E+00 0. -1.
<mgrwt>
<rscale>  1 0.65171225E+03</rscale>
<asrwt>0</asrwt>
<pdfrwt beam="1">  1       21 0.22940180E-01 0.65171225E+03</pdfrwt>
<pdfrwt beam="2">0</pdfrwt>
<totfact> 0.17220982E+03</totfact>
</mgrwt>
</event>
<event>
 6    1  0.1364923E-004  0.6424630E+03  0.7818608E-02  0.9821026E-01
         21   -1    0    0  501  502  0.00000000000E+00  0.00000000000E+00  0.13614956268E+03  0.13614956268E+03  0.00000000000E+00 0.  1.
         13   -1    0    0    0    0 -0.00000000000E+00 -0.00000000000E+00 -0.10000000000E+04  0.10000000000E+04  0.00000000000E+00 0.  1.
    9000005    2    1    2  501    0 -0.32041007955E+02 -0.60838979100E+01 -0.88766398841E+03  0.10957673238E+04  0.64163465577E+03 0.  0.
         13    1    3    3    0    0 -0.56049005197E+02 -0.25848657760E+03 -0.12592289530E+03  0.29293920418E+03  0.00000000000E+00 0.  1.
          3    1    3    3  501    0  0.24007997242E+02  0.25240267969E+03 -0.76174109311E+03  0.80282811958E+03  0.00000000000E+00 0.  1.
         -1    1    1    2    0  502  0.32041007955E+02  0.60838979100E+01  0.23813551090E+02  0.40382238919E+02  0.00000000000E+00 0. -1.
<mgrwt>
<rscale>  1 0.64246297E+03</rscale>
<asrwt>0</asrwt>
<pdfrwt beam="1">  1       21 0.20946086E-01 0.64246297E+03</pdfrwt>
<pdfrwt beam="2">0</pdfrwt>
<totfact> 0.20541555E+03</totfact>
</mgrwt>
</event>
<event>
 6    1  0.1364923E-004  0.7485941E+03  0.7818608E-02  0.9637559E-01
         21   -1    0    0  501  502  0.00000000000E+00  0.00000000000E+00  0.17494445612E+03  0.17494445612E+03  0.00000000000E+00 0.  1.
         13   -1    0    0    0    0 -0.00000000000E+00 -0.00000000000E+00 -0.10000000000E+04  0.10000000000E+04  0.00000000000E+00 0.  1.
    9000005    2    1    2  501    0  0.32597069339E+02  0.68276113908E+01 -0.85050630994E+03  0.11330287467E+04  0.74785290819E+03 0.  0.
         13    1    3    3    0    0 -0.12967257499E+03 -0.23563176175E+03 -0.40380723889E+02  0.27197041514E+03  0.00000000000E+00 0.  1.
          3    1    3    3  501    0  0.16226964433E+03  0.24245937314E+03 -0.81012558605E+03  0.86105833152E+03  0.00000000000E+00 0.  1.
         -1    1    1    2    0  502 -0.32597069339E+02 -0.68276113908E+01  0.25450766067E+02  0.41915709468E+02  0.00000000000E+00 0. -1.
<mgrwt>
<rscale>  1 0.74859412E+03</rscale>
<asrwt>0</asrwt>
<pdfrwt beam="1">  1       21 0.26914531E-01 0.74859412E+03</pdfrwt>
<pdfrwt beam="2">0</pdfrwt>
<totfact> 0.12528381E+03</totfact>
</mgrwt>
</event>
<event>
 6    1  0.1364923E-004  0.7965380E+03  0.7818608E-02  0.9565042E-01
         21   -1    0    0  501  502  0.00000000000E+00  0.00000000000E+00  0.14923919158E+04  0.14923919158E+04  0.00000000000E+00 0. -1.
         13   -1    0    0    0    0 -0.00000000000E+00 -0.00000000000E+00 -0.10000000000E+04  0.10000000000E+04  0.00000000000E+00 0.  1.
    9000005    2    1    2  501    0 -0.38212322821E+03  0.22438393380E+03 -0.79831631334E+03  0.11277329679E+04  0.66189606396E+03 0.  0.
         13    1    3    3    0    0  0.10832254397E+03 -0.14705680525E+02 -0.48789000616E+03  0.49998668850E+03  0.00000000000E+00 0.  1.
          1    1    3    3  501    0 -0.49044577218E+03  0.23908961433E+03 -0.31042630718E+03  0.62774627941E+03  0.00000000000E+00 0.  1.
         -1    1    1    2    0  502  0.38212322821E+03 -0.22438393380E+03  0.12907082291E+04  0.13646589479E+04  0.00000000000E+00 0. -1.
<mgrwt>
<rscale>  1 0.79653795E+03</rscale>
<asrwt>0</asrwt>
<pdfrwt beam="1">  1       21 0.22959875E+00 0.79653795E+03</pdfrwt>
<pdfrwt beam="2">0</pdfrwt>
<totfact> 0.67690451E+00</totfact>
</mgrwt>
</event>
<event>
 6    1  0.1364923E-004  0.5962940E+03  0.7818608E-02  0.9913125E-01
         21   -1    0    0  501  502  0.00000000000E+00  0.00000000000E+00  0.12864707536E+03  0.12864707536E+03  0.00000000000E+00 0.  1.
         13   -1    0    0    0    0 -0.00000000000E+00 -0.00000000000E+00 -0.10000000000E+04  0.10000000000E+04  0.00000000000E+00 0.  1.
    9000005    2    1    2  501    0  0.47056260377E+01  0.49456854854E+02 -0.89354232324E+03  0.10742366644E+04  0.59422083803E+03 0.  0.
         13    1    3    3    0    0  0.38424827344E+01 -0.70364306015E+02  0.72316726223E+02  0.10097330898E+03  0.00000000000E+00 0.  1.
          3    1    3    3  501    0  0.86314330331E+00  0.11982116087E+03 -0.96585904947E+03  0.97326335544E+03  0.00000000000E+00 0.  1.
         -3    1    1    2    0  502 -0.47056260377E+01 -0.49456854854E+02  0.22189398605E+02  0.54410410942E+02  0.00000000000E+00 0. -1.
<mgrwt>
<rscale>  1 0.59629399E+03</rscale>
<asrwt>0</asrwt>
<pdfrwt beam="1">  1       21 0.19791857E-01 0.59629399E+03</pdfrwt>
<pdfrwt beam="2">0</pdfrwt>
<totfact> 0.22946630E+03</totfact>
</mgrwt>
</event>
<event>
 6    1  0.1364923E-004  0.6367990E+03  0.7818608E-02  0.9831870E-01
         21   -1    0    0  501  502  0.00000000000E+00  0.00000000000E+00  0.17180175030E+03  0.17180175030E+03  0.00000000000E+00 0.  1.
         13   -1    0    0    0    0 -0.00000000000E+00 -0.00000000000E+00 -0.10000000000E+04  0.10000000000E+04  0.00000000000E+00 0.  1.
    9000005    2    1    2  501    0 -0.18953974041E+01 -0.51575045205E+02 -0.88805099884E+03  0.10927705577E+04  0.63470413381E+03 0.  0.
         13    1    3    3    0    0  0.15134028694E+03  0.23624866431E+03 -0.24806345316E+03  0.37450339201E+03  0.00000000000E+00 0.  1.
          3    1    3    3  501    0 -0.15323568434E+03 -0.28782370951E+03 -0.63998754569E+03  0.71826716572E+03  0.00000000000E+00 0.  1.
         -1    1    1    2    0  502  0.18953974041E+01  0.51575045205E+02  0.59852749142E+02  0.79031192570E+02  0.00000000000E+00 0. -1.
<mgrwt>
<rscale>  1 0.63679896E+03</rscale>
<asrwt>0</asrwt>
<pdfrwt beam="1">  1       21 0.26431038E-01 0.63679896E+03</pdfrwt>
<pdfrwt beam="2">0</pdfrwt>
<totfact> 0.13061946E+03</totfact>
</mgrwt>
</event>
<event>
 6    1  0.1364923E-004  0.6516212E+03  0.7818608E-02  0.9803742E-01
         21   -1    0    0  501  502  0.00000000000E+00  0.00000000000E+00  0.20883761857E+03  0.20883761857E+03  0.00000000000E+00 0. -1.
         13   -1    0    0    0    0 -0.00000000000E+00 -0.00000000000E+00 -0.10000000000E+04  0.10000000000E+04  0.00000000000E+00 0.  1.
    9000005    2    1    2  501    0  0.29287657796E+02  0.91969471226E+01 -0.89130300306E+03  0.11040974886E+04  0.65089774177E+03 0.  0.
         13    1    3    3    0    0  0.18205784198E+03 -0.24007160510E+03 -0.22362554904E+03  0.37521702997E+03  0.00000000000E+00 0.  1.
          3    1    3    3  501    0 -0.15277018418E+03  0.24926855222E+03 -0.66767745402E+03  0.72888045858E+03  0.00000000000E+00 0.  1.
         -3    1    1    2    0  502 -0.29287657796E+02 -0.91969471226E+01  0.10014062163E+03  0.10474013002E+03  0.00000000000E+00 0. -1.
<mgrwt>
<rscale>  1 0.65162123E+03</rscale>
<asrwt>0</asrwt>
<pdfrwt beam="1">  1       21 0.32128863E-01 0.65162123E+03</pdfrwt>
<pdfrwt beam="2">0</pdfrwt>
<totfact> 0.88407144E+02</totfact>
</mgrwt>
</event>
<event>
 6    1  0.1364923E-004  0.6442715E+03  0.7818608E-02  0.9817588E-01
         21   -1    0    0  501  502  0.00000000000E+00  0.00000000000E+00  0.15883480545E+03  0.15883480545E+03  0.00000000000E+00 0.  1.
         13   -1    0    0    0    0 -0.00000000000E+00 -0.00000000000E+00 -0.10000000000E+04  0.10000000000E+04  0.00000000000E+00 0.  1.
    9000005    2    1    2  501    0  0.70424517371E+02 -0.22579980767E+02 -0.86728473079E+03  0.10804020422E+04  0.64001273452E+03 0.  0.
         13    1    3    3    0    0  0.72761020613E+01  0.28312113632E+03 -0.62187444593E+03  0.68332887103E+03  0.00000000000E+00 0.  1.
          3    1    3    3  501    0  0.63148415310E+02 -0.30570111708E+03 -0.24541028486E+03  0.39707317117E+03  0.00000000000E+00 0.  1.
         -3    1    1    2    0  502 -0.70424517371E+02  0.22579980767E+02  0.26119536243E+02  0.78432763255E+02  0.00000000000E+00 0. -1.
<mgrwt>
<rscale>  1 0.64427150E+03</rscale>
<asrwt>0</asrwt>
<pdfrwt beam="1">  1       21 0.24436123E-01 0.64427150E+03</pdfrwt>
<pdfrwt beam="2">0</pdfrwt>
<totfact> 0.15231341E+03</totfact>
</mgrwt>
</event>
<event>
 6    1  0.1364923E-004  0.6483594E+03  0.7818608E-02  0.9809862E-01
         21   -1    0    0  501  502  0.00000000000E+00  0.00000000000E+00  0.26392816627E+03  0.26392816627E+03  0.00000000000E+00 0. -1.
         13   -1    0    0    0    0 -0.00000000000E+00 -0.00000000000E+00 -0.10000000000E+04  0.10000000000E+04  0.00000000000E+00 0.  1.
    9000005    2    1    2  501    0  0.19814348323E+02 -0.48439310231E+01 -0.89418344935E+03  0.11045062259E+04  0.64803849421E+03 0.  0.
         13    1    3    3    0    0  0.60723821733E+02 -0.25884067634E+03 -0.77808289432E+03  0.82225231450E+03  0.00000000000E+00 0.  1.
          1    1    3    3  501    0 -0.40909473410E+02  0.25399674532E+03 -0.11610055502E+03  0.28225391144E+03  0.00000000000E+00 0.  1.
         -1    1    1    2    0  502 -0.19814348323E+02  0.48439310231E+01  0.15811161562E+03  0.15942194034E+03  0.00000000000E+00 0. -1.
<mgrwt>
<rscale>  1 0.64835944E+03</rscale>
<asrwt>0</asrwt>
<pdfrwt beam="1">  1       21 0.40604332E-01 0.64835944E+03</pdfrwt>
<pdfrwt beam="2">0</pdfrwt>
<totfact> 0.54749698E+02</totfact>
</mgrwt>
</event>
<event>
 6    1  0.1364923E-004  0.6633593E+03  0.7818608E-02  0.9782029E-01
         21   -1    0    0  501  502  0.00000000000E+00  0.00000000000E+00  0.27332822644E+03  0.27332822644E+03  0.00000000000E+00 0.  1.
         13   -1    0    0    0    0 -0.00000000000E+00 -0.00000000000E+00 -0.10000000000E+04  0.10000000000E+04  0.00000000000E+00 0.  1.
    9000005    2    1    2  501    0 -0.13805551356E+03 -0.44321977696E+02 -0.85330344443E+03  0.10808201939E+04  0.64731890186E+03 0.  0.
         13    1    3    3    0    0  0.21625867156E+03  0.13828813970E+02 -0.60933911507E+03  0.64672498504E+03  0.00000000000E+00 0.  1.
          1    1    3    3  501    0 -0.35431418511E+03 -0.58150791666E+02 -0.24396432936E+03  0.43409520884E+03  0.00000000000E+00 0.  1.
         -3    1    1    2    0  502  0.13805551356E+03  0.44321977696E+02  0.12663167087E+03  0.19250803256E+03  0.00000000000E+00 0. -1.
<mgrwt>
<rscale>  1 0.66335927E+03</rscale>
<asrwt>0</asrwt>
<pdfrwt beam="1">  1       21 0.42050495E-01 0.66335927E+03</pdfrwt>
<pdfrwt beam="2">0</pdfrwt>
<totfact> 0.50831858E+02</totfact>
</mgrwt>
</event>
<event>
 6    1  0.1364923E-004  0.6584959E+03  0.7818608E-02  0.9790966E-01
         21   -1    0    0  501  502  0.00000000000E+00  0.00000000000E+00  0.12948975987E+03  0.12948975987E+03  0.00000000000E+00 0.  1.
         13   -1    0    0    0    0 -0.00000000000E+00 -0.00000000000E+00 -0.10000000000E+04  0.10000000000E+04  0.00000000000E+00 0.  1.
    9000005    2    1    2  501    0 -0.32061072915E+02 -0.51830855337E+02 -0.80484757763E+03  0.10399021759E+04  0.65566955259E+03 0.  0.
         13    1    3    3    0    0 -0.65578795952E+02  0.29379221548E+03 -0.28354946987E+03  0.41353929223E+03  0.00000000000E+00 0.  1.
          1    1    3    3  501    0  0.33517723037E+02 -0.34562307082E+03 -0.52129810776E+03  0.62636288363E+03  0.00000000000E+00 0.  1.
         -3    1    1    2    0  502  0.32061072915E+02  0.51830855337E+02 -0.65662662502E+02  0.89587584008E+02  0.00000000000E+00 0. -1.
<mgrwt>
<rscale>  1 0.65849595E+03</rscale>
<asrwt>0</asrwt>
<pdfrwt beam="1">  1       21 0.19921501E-01 0.65849595E+03</pdfrwt>
<pdfrwt beam="2">0</pdfrwt>
<totfact> 0.22604942E+03</totfact>
</mgrwt>
</event>
<event>
 6    1  0.1364923E-004  0.6705234E+03  0.7818608E-02  0.9769013E-01
         21   -1    0    0  501  502  0.00000000000E+00  0.00000000000E+00  0.20942879887E+03  0.20942879887E+03  0.00000000000E+00 0.  1.
         13   -1    0    0    0    0 -0.00000000000E+00 -0.00000000000E+00 -0.10000000000E+04  0.10000000000E+04  0.00000000000E+00 0.  1.
    9000005    2    1    2  501    0 -0.11359931319E+03 -0.38989212349E+02 -0.84403767164E+03  0.10779615934E+04  0.65967919714E+03 0.  0.
         13    1    3    3    0    0  0.25372557049E+02  0.22442863464E+03 -0.51983941939E+02  0.23176347623E+03  0.00000000000E+00 0.  1.
          3    1    3    3  501    0 -0.13897187024E+03 -0.26341784699E+03 -0.79205372970E+03  0.84619811720E+03  0.00000000000E+00 0.  1.
         -1    1    1    2    0  502  0.11359931319E+03  0.38989212349E+02  0.53466470509E+02  0.13146720543E+03  0.00000000000E+00 0. -1.
<mgrwt>
<rscale>  1 0.67052338E+03</rscale>
<asrwt>0</asrwt>
<pdfrwt beam="1">  1       21 0.32219814E-01 0.67052338E+03</pdfrwt>
<pdfrwt beam="2">0</pdfrwt>
<totfact> 0.87794154E+02</totfact>
</mgrwt>
</event>
<event>
 6    1  0.1364923E-004  0.6336609E+03  0.7818608E-02  0.9837931E-01
         21   -1    0    0  501  502  0.00000000000E+00  0.00000000000E+00  0.11232947108E+03  0.11232947108E+03  0.00000000000E+00 0.  1.
         13   -1    0    0    0    0 -0.00000000000E+00 -0.00000000000E+00 -0.10000000000E+04  0.10000000000E+04  0.00000000000E+00 0.  1.
    9000005    2    1    2  501    0 -0.14195879224E+01 -0.20006150822E+02 -0.88957168614E+03  0.10921831141E+04  0.63334343656E+03 0.  0.
         13    1    3    3    0    0 -0.17413570377E+02  0.30599394565E+03 -0.40376383327E+03  0.50691297110E+03  0.00000000000E+00 0.  1.
          3    1    3    3  501    0  0.15993982455E+02 -0.32600009648E+03 -0.48580785287E+03  0.58527014300E+03  0.00000000000E+00 0.  1.
         -3    1    1    2    0  502  0.14195879224E+01  0.20006150822E+02  0.19011572218E+01  0.20146356975E+02  0.00000000000E+00 0. -1.
<mgrwt>
<rscale>  1 0.63366093E+03</rscale>
<asrwt>0</asrwt>
<pdfrwt beam="1">  1       21 0.17281457E-01 0.63366093E+03</pdfrwt>
<pdfrwt beam="2">0</pdfrwt>
<totfact> 0.29654820E+03</totfact>
</mgrwt>
</event>
<event>
 6    1  0.1364923E-004  0.6572649E+03  0.7818608E-02  0.9793242E-01
         21   -1    0    0  501  502  0.00000000000E+00  0.00000000000E+00  0.26152504661E+03  0.26152504661E+03  0.00000000000E+00 0. -1.
         13   -1    0    0    0    0 -0.00000000000E+00 -0.00000000000E+00 -0.10000000000E+04  0.10000000000E+04  0.00000000000E+00 0.  1.
    9000005    2    1    2  501    0  0.53495724810E+02 -0.36512804381E+01 -0.88679358218E+03  0.11038115720E+04  0.65507404519E+03 0.  0.
         13    1    3    3    0    0  0.73033105286E+02 -0.87297261905E+02  0.76215147517E+02  0.13697954269E+03  0.00000000000E+00 0.  1.
          1    1    3    3  501    0 -0.19537380476E+02  0.83645981467E+02 -0.96300872970E+03  0.96683202933E+03  0.00000000000E+00 0.  1.
         -1    1    1    2    0  502 -0.53495724810E+02  0.36512804381E+01  0.14831862879E+03  0.15771347459E+03  0.00000000000E+00 0. -1.
<mgrwt>
<rscale>  1 0.65726489E+03</rscale>
<asrwt>0</asrwt>
<pdfrwt beam="1">  1       21 0.40234621E-01 0.65726489E+03</pdfrwt>
<pdfrwt beam="2">0</pdfrwt>
<totfact> 0.55760912E+02</totfact>
</mgrwt>
</event>
<event>
 6    1  0.1364923E-004  0.6470983E+03  0.7818608E-02  0.9812239E-01
         21   -1    0    0  501  502  0.00000000000E+00  0.00000000000E+00  0.14047446082E+03  0.14047446082E+03  0.00000000000E+00 0.  1.
         13   -1    0    0    0    0 -0.00000000000E+00 -0.00000000000E+00 -0.10000000000E+04  0.10000000000E+04  0.00000000000E+00 0.  1.
    9000005    2    1    2  501    0 -0.94398964661E+02  0.42387591353E+01 -0.79936202278E+03  0.10284531222E+04  0.64016173692E+03 0.  0.
         13    1    3    3    0    0  0.82444729474E+02  0.26350363475E+02 -0.84099255570E+03  0.84543477207E+03  0.00000000000E+00 0.  1.
          3    1    3    3  501    0 -0.17684369414E+03 -0.22111604340E+02  0.41630532916E+02  0.18301835010E+03  0.00000000000E+00 0.  1.
         -1    1    1    2    0  502  0.94398964661E+02 -0.42387591353E+01 -0.60163516398E+02  0.11202133865E+03  0.00000000000E+00 0. -1.
<mgrwt>
<rscale>  1 0.64709828E+03</rscale>
<asrwt>0</asrwt>
<pdfrwt beam="1">  1       21 0.21611455E-01 0.64709828E+03</pdfrwt>
<pdfrwt beam="2">0</pdfrwt>
<totfact> 0.19335421E+03</totfact>
</mgrwt>
</event>
<event>
 6    1  0.1364923E-004  0.6232675E+03  0.7818608E-02  0.9858276E-01
         21   -1    0    0  501  502  0.00000000000E+00  0.00000000000E+00  0.10997614682E+03  0.10997614682E+03  0.00000000000E+00 0.  1.
         13   -1    0    0    0    0 -0.00000000000E+00 -0.00000000000E+00 -0.10000000000E+04  0.10000000000E+04  0.00000000000E+00 0.  1.
    9000005    2    1    2  501    0 -0.21047553140E+02  0.49348842086E+01 -0.89210074466E+03  0.10882582728E+04  0.62289242814E+03 0.  0.
         13    1    3    3    0    0 -0.55926597041E+02 -0.22825214276E+03 -0.89050851185E+02  0.25131032416E+03  0.00000000000E+00 0.  1.
          1    1    3    3  501    0  0.34879043901E+02  0.23318702697E+03 -0.80304989348E+03  0.83694794860E+03  0.00000000000E+00 0.  1.
         -1    1    1    2    0  502  0.21047553140E+02 -0.49348842086E+01  0.20768914816E+01  0.21717874057E+02  0.00000000000E+00 0. -1.
<mgrwt>
<rscale>  1 0.62326746E+03</rscale>
<asrwt>0</asrwt>
<pdfrwt beam="1">  1       21 0.16919407E-01 0.62326746E+03</pdfrwt>
<pdfrwt beam="2">0</pdfrwt>
<totfact> 0.30874255E+03</totfact>
</mgrwt>
</event>
<event>
 6    1  0.1364923E-004  0.6484197E+03  0.7818608E-02  0.9809749E-01
         21   -1    0    0  501  502  0.00000000000E+00  0.00000000000E+00  0.58289329726E+03  0.58289329726E+03  0.00000000000E+00 0. -1.
         13   -1    0    0    0    0 -0.00000000000E+00 -0.00000000000E+00 -0.10000000000E+04  0.10000000000E+04  0.00000000000E+00 0.  1.
    9000005    2    1    2  501    0  0.19855914436E+01 -0.22344890640E+02 -0.89459695828E+03  0.11048763720E+04  0.64803151383E+03 0.  0.
         13    1    3    3    0    0  0.14469152659E+03 -0.45118364671E+01 -0.94230055495E+03  0.95335530124E+03  0.00000000000E+00 0.  1.
          1    1    3    3  501    0 -0.14270593514E+03 -0.17833054172E+02  0.47703596676E+02  0.15152107075E+03  0.00000000000E+00 0.  1.
         -3    1    1    2    0  502 -0.19855914436E+01  0.22344890640E+02  0.47749025554E+03  0.47801692527E+03  0.00000000000E+00 0. -1.
<mgrwt>
<rscale>  1 0.64841968E+03</rscale>
<asrwt>0</asrwt>
<pdfrwt beam="1">  1       21 0.89675889E-01 0.64841968E+03</pdfrwt>
<pdfrwt beam="2">0</pdfrwt>
<totfact> 0.94406801E+01</totfact>
</mgrwt>
</event>
<event>
 6    1  0.1364923E-004  0.6579499E+03  0.7818608E-02  0.9791975E-01
         21   -1    0    0  501  502  0.00000000000E+00  0.00000000000E+00  0.13265933697E+03  0.13265933697E+03  0.00000000000E+00 0.  1.
         13   -1    0    0    0    0 -0.00000000000E+00 -0.00000000000E+00 -0.10000000000E+04  0.10000000000E+04  0.00000000000E+00 0.  1.
    9000005    2    1    2  501    0 -0.42935844100E+02 -0.55414544179E+02 -0.79448457715E+03  0.10315541063E+04  0.65420476345E+03 0.  0.
         13    1    3    3    0    0 -0.10263505120E+03 -0.34567856156E+03 -0.46450336714E+03  0.58803996441E+03  0.00000000000E+00 0.  1.
          3    1    3    3  501    0  0.59699207105E+02  0.29026401738E+03 -0.32998121001E+03  0.44351414191E+03  0.00000000000E+00 0.  1.
         -1    1    1    2    0  502  0.42935844100E+02  0.55414544179E+02 -0.72856085878E+02  0.10110523065E+03  0.00000000000E+00 0. -1.
<mgrwt>
<rscale>  1 0.65794995E+03</rscale>
<asrwt>0</asrwt>
<pdfrwt beam="1">  1       21 0.20409128E-01 0.65794995E+03</pdfrwt>
<pdfrwt beam="2">0</pdfrwt>
<totfact> 0.21580069E+03</totfact>
</mgrwt>
</event>
<event>
 6    1  0.1364923E-004  0.6665003E+03  0.7818608E-02  0.9776301E-01
         21   -1    0    0  501  502  0.00000000000E+00  0.00000000000E+00  0.38036915485E+03  0.38036915485E+03  0.00000000000E+00 0. -1.
         13   -1    0    0    0    0 -0.00000000000E+00 -0.00000000000E+00 -0.10000000000E+04  0.10000000000E+04  0.00000000000E+00 0.  1.
    9000005    2    1    2  501    0  0.56023096247E+02 -0.82813432075E+02 -0.87858414227E+03  0.11027841013E+04  0.65895828947E+03 0.  0.
         13    1    3    3    0    0  0.22683299178E+03  0.83999814152E+02 -0.82277703320E+03  0.85759618778E+03  0.00000000000E+00 0.  1.
          1    1    3    3  501    0 -0.17080989553E+03 -0.16681324623E+03 -0.55807109070E+02  0.24518791355E+03  0.00000000000E+00 0.  1.
         -1    1    1    2    0  502 -0.56023096247E+02  0.82813432075E+02  0.25895329712E+03  0.27758505352E+03  0.00000000000E+00 0. -1.
<mgrwt>
<rscale>  1 0.66650032E+03</rscale>
<asrwt>0</asrwt>
<pdfrwt beam="1">  1       21 0.58518330E-01 0.66650032E+03</pdfrwt>
<pdfrwt beam="2">0</pdfrwt>
<totfact> 0.25024654E+02</totfact>
</mgrwt>
</event>
<event>
 6    1  0.1364923E-004  0.6238477E+03  0.7818608E-02  0.9857129E-01
         21   -1    0    0  501  502  0.00000000000E+00  0.00000000000E+00  0.14373149491E+03  0.14373149491E+03  0.00000000000E+00 0. -1.
         13   -1    0    0    0    0 -0.00000000000E+00 -0.00000000000E+00 -0.10000000000E+04  0.10000000000E+04  0.00000000000E+00 0.  1.
    9000005    2    1    2  501    0 -0.10765957096E+03  0.61125660031E+02 -0.77813124810E+03  0.99733354251E+03  0.61144012481E+03 0.  0.
         13    1    3    3    0    0  0.46794110401E+02 -0.24456100912E+03 -0.17705510594E+03  0.30552951820E+03  0.00000000000E+00 0.  1.
          3    1    3    3  501    0 -0.15445368136E+03  0.30568666916E+03 -0.60107614215E+03  0.69180402431E+03  0.00000000000E+00 0.  1.
         -1    1    1    2    0  502  0.10765957096E+03 -0.61125660031E+02 -0.78137256998E+02  0.14639795239E+03  0.00000000000E+00 0. -1.
<mgrwt>
<rscale>  1 0.62384770E+03</rscale>
<asrwt>0</asrwt>
<pdfrwt beam="1">  1       21 0.22112537E-01 0.62384770E+03</pdfrwt>
<pdfrwt beam="2">0</pdfrwt>
<totfact> 0.18516858E+03</totfact>
</mgrwt>
</event>
<event>
 6    1  0.1364923E-004  0.6558323E+03  0.7818608E-02  0.9795896E-01
         21   -1    0    0  501  502  0.00000000000E+00  0.00000000000E+00  0.29050883289E+03  0.29050883289E+03  0.00000000000E+00 0. -1.
         13   -1    0    0    0    0 -0.00000000000E+00 -0.00000000000E+00 -0.10000000000E+04  0.10000000000E+04  0.00000000000E+00 0.  1.
    9000005    2    1    2  501    0  0.80453203157E+02 -0.40109483497E+02 -0.88014747145E+03  0.10976226935E+04  0.64964183763E+03 0.  0.
         13    1    3    3    0    0 -0.27729170357E+03 -0.89557458533E+02 -0.33890614136E+03  0.44695480745E+03  0.00000000000E+00 0.  1.
          3    1    3    3  501    0  0.35774490673E+03  0.49447975036E+02 -0.54124133008E+03  0.65066788603E+03  0.00000000000E+00 0.  1.
         -3    1    1    2    0  502 -0.80453203157E+02  0.40109483497E+02  0.17065630433E+03  0.19288613940E+03  0.00000000000E+00 0. -1.
<mgrwt>
<rscale>  1 0.65583230E+03</rscale>
<asrwt>0</asrwt>
<pdfrwt beam="1">  1       21 0.44693665E-01 0.65583230E+03</pdfrwt>
<pdfrwt beam="2">0</pdfrwt>
<totfact> 0.44750788E+02</totfact>
</mgrwt>
</event>
<event>
 6    1  0.1364923E-004  0.6366811E+03  0.7818608E-02  0.9832097E-01
         21   -1    0    0  501  502  0.00000000000E+00  0.00000000000E+00  0.12570687662E+03  0.12570687662E+03  0.00000000000E+00 0.  1.
         13   -1    0    0    0    0 -0.00000000000E+00 -0.00000000000E+00 -0.10000000000E+04  0.10000000000E+04  0.00000000000E+00 0.  1.
    9000005    2    1    2  501    0  0.14967205591E+02 -0.27314373231E+02 -0.88718476680E+03  0.10919980247E+04  0.63591884959E+03 0.  0.
         13    1    3    3    0    0  0.24150543075E+03 -0.20220612356E+03 -0.28292283744E+03  0.42338814512E+03  0.00000000000E+00 0.  1.
          1    1    3    3  501    0 -0.22653822515E+03  0.17489175033E+03 -0.60426192936E+03  0.66860987958E+03  0.00000000000E+00 0.  1.
         -3    1    1    2    0  502 -0.14967205591E+02  0.27314373231E+02  0.12891643421E+02  0.33708851928E+02  0.00000000000E+00 0. -1.
<mgrwt>
<rscale>  1 0.63668114E+03</rscale>
<asrwt>0</asrwt>
<pdfrwt beam="1">  1       21 0.19339519E-01 0.63668114E+03</pdfrwt>
<pdfrwt beam="2">0</pdfrwt>
<totfact> 0.23944882E+03</totfact>
</mgrwt>
</event>
<event>
 6    1  0.1364923E-004  0.6619138E+03  0.7818608E-02  0.9784677E-01
         21   -1    0    0  501  502  0.00000000000E+00  0.00000000000E+00  0.96182619076E+03  0.96182619076E+03  0.00000000000E+00 0. -1.
         13   -1    0    0    0    0 -0.00000000000E+00 -0.00000000000E+00 -0.10000000000E+04  0.10000000000E+04  0.00000000000E+00 0.  1.
    9000005    2    1    2  501    0  0.12662931502E+03  0.98633354805E+01 -0.88521153407E+03  0.11053186449E+04  0.64961340651E+03 0.  0.
         13    1    3    3    0    0  0.16879656288E+03  0.30431484646E+03 -0.59769862529E+03  0.69162377930E+03  0.00000000000E+00 0.  1.
          3    1    3    3  501    0 -0.42167247870E+02 -0.29445151098E+03 -0.28751290878E+03  0.41369486561E+03  0.00000000000E+00 0.  1.
         -1    1    1    2    0  502 -0.12662931502E+03 -0.98633354805E+01  0.84703772483E+03  0.85650754585E+03  0.00000000000E+00 0. -1.
<mgrwt>
<rscale>  1 0.66191378E+03</rscale>
<asrwt>0</asrwt>
<pdfrwt beam="1">  1       21 0.14797326E+00 0.66191378E+03</pdfrwt>
<pdfrwt beam="2">0</pdfrwt>
<totfact> 0.26303300E+01</totfact>
</mgrwt>
</event>
<event>
 6    1  0.1364923E-004  0.6572856E+03  0.7818608E-02  0.9793204E-01
         21   -1    0    0  501  502  0.00000000000E+00  0.00000000000E+00  0.26151821505E+03  0.26151821505E+03  0.00000000000E+00 0. -1.
         13   -1    0    0    0    0 -0.00000000000E+00 -0.00000000000E+00 -0.10000000000E+04  0.10000000000E+04  0.00000000000E+00 0.  1.
    9000005    2    1    2  501    0  0.20140806932E+02  0.82207092151E+01 -0.89113947835E+03  0.11073183333E+04  0.65692548233E+03 0.  0.
         13    1    3    3    0    0  0.84870677373E+02 -0.29885263944E+03 -0.27084256766E+03  0.41215485977E+03  0.00000000000E+00 0.  1.
          3    1    3    3  501    0 -0.64729870442E+02  0.30707334866E+03 -0.62029691069E+03  0.69516347358E+03  0.00000000000E+00 0.  1.
         -1    1    1    2    0  502 -0.20140806932E+02 -0.82207092151E+01  0.15265769340E+03  0.15419988170E+03  0.00000000000E+00 0. -1.
<mgrwt>
<rscale>  1 0.65728557E+03</rscale>
<asrwt>0</asrwt>
<pdfrwt beam="1">  1       21 0.40233570E-01 0.65728557E+03</pdfrwt>
<pdfrwt beam="2">0</pdfrwt>
<totfact> 0.55763848E+02</totfact>
</mgrwt>
</event>
<event>
 6    1  0.1364923E-004  0.6680547E+03  0.7818608E-02  0.9773479E-01
         21   -1    0    0  501  502  0.00000000000E+00  0.00000000000E+00  0.22662813650E+03  0.22662813650E+03  0.00000000000E+00 0. -1.
         13   -1    0    0    0    0 -0.00000000000E+00 -0.00000000000E+00 -0.10000000000E+04  0.10000000000E+04  0.00000000000E+00 0.  1.
    9000005    2    1    2  501    0  0.74719011032E+02 -0.90642085739E+02 -0.85392154244E+03  0.10841951028E+04  0.65764587883E+03 0.  0.
         13    1    3    3    0    0 -0.51063033624E+02 -0.23318159363E+03 -0.86148316027E+03  0.89394313267E+03  0.00000000000E+00 0.  1.
          1    1    3    3  501    0  0.12578204466E+03  0.14253950789E+03  0.75616178340E+01  0.19025197011E+03  0.00000000000E+00 0.  1.
         -3    1    1    2    0  502 -0.74719011032E+02  0.90642085739E+02  0.80549678938E+02  0.14243303372E+03  0.00000000000E+00 0. -1.
<mgrwt>
<rscale>  1 0.66805465E+03</rscale>
<asrwt>0</asrwt>
<pdfrwt beam="1">  1       21 0.34865866E-01 0.66805465E+03</pdfrwt>
<pdfrwt beam="2">0</pdfrwt>
<totfact> 0.74812260E+02</totfact>
</mgrwt>
</event>
<event>
 6    1  0.1364923E-004  0.6434734E+03  0.7818608E-02  0.9819104E-01
         21   -1    0    0  501  502  0.00000000000E+00  0.00000000000E+00  0.12864871395E+03  0.12864871395E+03  0.00000000000E+00 0.  1.
         13   -1    0    0    0    0 -0.00000000000E+00 -0.00000000000E+00 -0.10000000000E+04  0.10000000000E+04  0.00000000000E+00 0.  1.
    9000005    2    1    2  501    0 -0.13176860174E+02 -0.30071147341E+02 -0.88405934682E+03  0.10934436241E+04  0.64263529839E+03 0.  0.
         13    1    3    3    0    0 -0.12571754197E+03 -0.30608188733E+03 -0.34878390367E+03  0.48077149829E+03  0.00000000000E+00 0.  1.
          3    1    3    3  501    0  0.11254068180E+03  0.27601073999E+03 -0.53527544315E+03  0.61267212576E+03  0.00000000000E+00 0.  1.
         -1    1    1    2    0  502  0.13176860174E+02  0.30071147341E+02  0.12708060773E+02  0.35205089903E+02  0.00000000000E+00 0. -1.
<mgrwt>
<rscale>  1 0.64347341E+03</rscale>
<asrwt>0</asrwt>
<pdfrwt beam="1">  1       21 0.19792109E-01 0.64347341E+03</pdfrwt>
<pdfrwt beam="2">0</pdfrwt>
<totfact> 0.22902317E+03</totfact>
</mgrwt>
</event>
<event>
 6    1  0.1364923E-004  0.6621968E+03  0.7818608E-02  0.9784158E-01
         21   -1    0    0  501  502  0.00000000000E+00  0.00000000000E+00  0.55102214212E+03  0.55102214212E+03  0.00000000000E+00 0. -1.
         13   -1    0    0    0    0 -0.00000000000E+00 -0.00000000000E+00 -0.10000000000E+04  0.10000000000E+04  0.00000000000E+00 0.  1.
    9000005    2    1    2  501    0 -0.99860462617E+01  0.21636787725E+02 -0.89001691543E+03  0.11093397653E+04  0.66176788487E+03 0.  0.
         13    1    3    3    0    0 -0.24397988675E+03 -0.10421304497E+03 -0.11338527153E+03  0.28851822071E+03  0.00000000000E+00 0.  1.
          3    1    3    3  501    0  0.23399384049E+03  0.12584983270E+03 -0.77663164390E+03  0.82082154460E+03  0.00000000000E+00 0.  1.
         -3    1    1    2    0  502  0.99860462617E+01 -0.21636787725E+02  0.44103905755E+03  0.44168237681E+03  0.00000000000E+00 0. -1.
<mgrwt>
<rscale>  1 0.66219680E+03</rscale>
<asrwt>0</asrwt>
<pdfrwt beam="1">  1       21 0.84772635E-01 0.66219680E+03</pdfrwt>
<pdfrwt beam="2">0</pdfrwt>
<totfact> 0.10768770E+02</totfact>
</mgrwt>
</event>
<event>
 6    1  0.1364923E-004  0.6585561E+03  0.7818608E-02  0.9790855E-01
         21   -1    0    0  501  502  0.00000000000E+00  0.00000000000E+00  0.13952173171E+03  0.13952173171E+03  0.00000000000E+00 0.  1.
         13   -1    0    0    0    0 -0.00000000000E+00 -0.00000000000E+00 -0.10000000000E+04  0.10000000000E+04  0.00000000000E+00 0.  1.
    9000005    2    1    2  501    0  0.66010050116E+02 -0.39077503386E+02 -0.82327486760E+03  0.10542664034E+04  0.65407320972E+03 0.  0.
         13    1    3    3    0    0  0.18510520281E+03 -0.37172384665E+02  0.31345930928E+02  0.19138518667E+03  0.00000000000E+00 0.  1.
          1    1    3    3  501    0 -0.11909515269E+03 -0.19051187207E+01 -0.85462079853E+03  0.86288121671E+03  0.00000000000E+00 0.  1.
         -1    1    1    2    0  502 -0.66010050116E+02  0.39077503386E+02 -0.37203400685E+02  0.85255328336E+02  0.00000000000E+00 0. -1.
<mgrwt>
<rscale>  1 0.65855610E+03</rscale>
<asrwt>0</asrwt>
<pdfrwt beam="1">  1       21 0.21464881E-01 0.65855610E+03</pdfrwt>
<pdfrwt beam="2">0</pdfrwt>
<totfact> 0.19581526E+03</totfact>
</mgrwt>
</event>
<event>
 6    1  0.1364923E-004  0.6419590E+03  0.7818608E-02  0.9821986E-01
         21   -1    0    0  501  502  0.00000000000E+00  0.00000000000E+00  0.12367194644E+03  0.12367194644E+03  0.00000000000E+00 0.  1.
         13   -1    0    0    0    0 -0.00000000000E+00 -0.00000000000E+00 -0.10000000000E+04  0.10000000000E+04  0.00000000000E+00 0.  1.
    9000005    2    1    2  501    0 -0.35557413766E+02 -0.17846512542E+02 -0.87317186485E+03  0.10837621831E+04  0.64072500829E+03 0.  0.
         13    1    3    3    0    0 -0.26582811427E+03  0.17712506813E+03 -0.58500487356E+03  0.66653475392E+03  0.00000000000E+00 0.  1.
          1    1    3    3  501    0  0.23027070050E+03 -0.19497158067E+03 -0.28816699129E+03  0.41722742917E+03  0.00000000000E+00 0.  1.
         -3    1    1    2    0  502  0.35557413766E+02  0.17846512542E+02 -0.31561887160E+01  0.39909763352E+02  0.00000000000E+00 0. -1.
<mgrwt>
<rscale>  1 0.64195900E+03</rscale>
<asrwt>0</asrwt>
<pdfrwt beam="1">  1       21 0.19026453E-01 0.64195900E+03</pdfrwt>
<pdfrwt beam="2">0</pdfrwt>
<totfact> 0.24697973E+03</totfact>
</mgrwt>
</event>
<event>
 6    1  0.1364923E-004  0.6514463E+03  0.7818608E-02  0.9804069E-01
         21   -1    0    0  501  502  0.00000000000E+00  0.00000000000E+00  0.22828522593E+03  0.22828522593E+03  0.00000000000E+00 0.  1.
         13   -1    0    0    0    0 -0.00000000000E+00 -0.00000000000E+00 -0.10000000000E+04  0.10000000000E+04  0.00000000000E+00 0.  1.
    9000005    2    1    2  501    0 -0.86387009412E+01 -0.59636546465E+02 -0.88562679594E+03  0.10994167133E+04  0.64865333029E+03 0.  0.
         13    1    3    3    0    0  0.15126278092E+03  0.66200431174E+02 -0.88052722006E+03  0.89587449525E+03  0.00000000000E+00 0.  1.
          1    1    3    3  501    0 -0.15990148186E+03 -0.12583697764E+03 -0.50995758842E+01  0.20354221802E+03  0.00000000000E+00 0.  1.
         -1    1    1    2    0  502  0.86387009412E+01  0.59636546465E+02  0.11391202187E+03  0.12886851266E+03  0.00000000000E+00 0. -1.
<mgrwt>
<rscale>  1 0.65144630E+03</rscale>
<asrwt>0</asrwt>
<pdfrwt beam="1">  1       21 0.35120803E-01 0.65144630E+03</pdfrwt>
<pdfrwt beam="2">0</pdfrwt>
<totfact> 0.73796289E+02</totfact>
</mgrwt>
</event>
<event>
 6    1  0.1364923E-004  0.6554827E+03  0.7818608E-02  0.9796545E-01
         21   -1    0    0  501  502  0.00000000000E+00  0.00000000000E+00  0.19329403598E+03  0.19329403598E+03  0.00000000000E+00 0.  1.
         13   -1    0    0    0    0 -0.00000000000E+00 -0.00000000000E+00 -0.10000000000E+04  0.10000000000E+04  0.00000000000E+00 0.  1.
    9000005    2    1    2  501    0 -0.66842066722E+01  0.65119653573E+02 -0.87852809187E+03  0.10961155098E+04  0.65220576103E+03 0.  0.
         13    1    3    3    0    0  0.97619891881E+01  0.21834536722E+03 -0.15145602240E+02  0.21908761966E+03  0.00000000000E+00 0.  1.
          1    1    3    3  501    0 -0.16446195860E+02 -0.15322571365E+03 -0.86338248963E+03  0.87702789014E+03  0.00000000000E+00 0.  1.
         -3    1    1    2    0  502  0.66842066722E+01 -0.65119653573E+02  0.71822127852E+02  0.97178526175E+02  0.00000000000E+00 0. -1.
<mgrwt>
<rscale>  1 0.65548272E+03</rscale>
<asrwt>0</asrwt>
<pdfrwt beam="1">  1       21 0.29737543E-01 0.65548272E+03</pdfrwt>
<pdfrwt beam="2">0</pdfrwt>
<totfact> 0.10324425E+03</totfact>
</mgrwt>
</event>
<event>
 6    1  0.1364923E-004  0.6535521E+03  0.7818608E-02  0.9800137E-01
         21   -1    0    0  501  502  0.00000000000E+00  0.00000000000E+00  0.48774425078E+03  0.48774425078E+03  0.00000000000E+00 0. -1.
         13   -1    0    0    0    0 -0.00000000000E+00 -0.00000000000E+00 -0.10000000000E+04  0.10000000000E+04  0.00000000000E+00 0.  1.
    9000005    2    1    2  501    0 -0.13638931949E+03  0.21655263789E+02 -0.87929935695E+03  0.10955810107E+04  0.63879526838E+03 0.  0.
         13    1    3    3    0    0  0.39115941317E+02  0.10175196356E+03 -0.89538165986E+03  0.90199325705E+03  0.00000000000E+00 0.  1.
          3    1    3    3  501    0 -0.17550526081E+03 -0.80096699766E+02  0.16082302915E+02  0.19358775362E+03  0.00000000000E+00 0.  1.
         -1    1    1    2    0  502  0.13638931949E+03 -0.21655263789E+02  0.36704360773E+03  0.39216324011E+03  0.00000000000E+00 0. -1.
<mgrwt>
<rscale>  1 0.65355213E+03</rscale>
<asrwt>0</asrwt>
<pdfrwt beam="1">  1       21 0.75037575E-01 0.65355213E+03</pdfrwt>
<pdfrwt beam="2">0</pdfrwt>
<totfact> 0.14324364E+02</totfact>
</mgrwt>
</event>
<event>
 6    1  0.1364923E-004  0.6583454E+03  0.7818608E-02  0.9791244E-01
         21   -1    0    0  501  502  0.00000000000E+00  0.00000000000E+00  0.16383835949E+03  0.16383835949E+03  0.00000000000E+00 0.  1.
         13   -1    0    0    0    0 -0.00000000000E+00 -0.00000000000E+00 -0.10000000000E+04  0.10000000000E+04  0.00000000000E+00 0.  1.
    9000005    2    1    2  501    0 -0.70830243405E+02  0.15283032458E+02 -0.86397893802E+03  0.10862220178E+04  0.65434560597E+03 0.  0.
         13    1    3    3    0    0 -0.13254620441E+03  0.23671785348E+03 -0.80416071037E+03  0.84869210351E+03  0.00000000000E+00 0.  1.
          1    1    3    3  501    0  0.61715961008E+02 -0.22143482102E+03 -0.59818227658E+02  0.23752991425E+03  0.00000000000E+00 0.  1.
         -1    1    1    2    0  502  0.70830243405E+02 -0.15283032458E+02  0.27817297510E+02  0.77616341725E+02  0.00000000000E+00 0. -1.
<mgrwt>
<rscale>  1 0.65834540E+03</rscale>
<asrwt>0</asrwt>
<pdfrwt beam="1">  1       21 0.25205901E-01 0.65834540E+03</pdfrwt>
<pdfrwt beam="2">0</pdfrwt>
<totfact> 0.14323128E+03</totfact>
</mgrwt>
</event>
<event>
 6    1  0.1364923E-004  0.6503259E+03  0.7818608E-02  0.9806168E-01
         21   -1    0    0  501  502  0.00000000000E+00  0.00000000000E+00  0.14778359766E+03  0.14778359766E+03  0.00000000000E+00 0.  1.
         13   -1    0    0    0    0 -0.00000000000E+00 -0.00000000000E+00 -0.10000000000E+04  0.10000000000E+04  0.00000000000E+00 0.  1.
    9000005    2    1    2  501    0  0.66495214084E+00 -0.35431159931E+02 -0.88584547876E+03  0.10989294879E+04  0.64935968305E+03 0.  0.
         13    1    3    3    0    0  0.40610530788E+02  0.25324979395E+03 -0.12732531876E+03  0.28635015304E+03  0.00000000000E+00 0.  1.
          1    1    3    3  501    0 -0.39945578647E+02 -0.28868095388E+03 -0.75852016000E+03  0.81257933490E+03  0.00000000000E+00 0.  1.
         -1    1    1    2    0  502 -0.66495214084E+00  0.35431159931E+02  0.33629076426E+02  0.48854109721E+02  0.00000000000E+00 0. -1.
<mgrwt>
<rscale>  1 0.65032592E+03</rscale>
<asrwt>0</asrwt>
<pdfrwt beam="1">  1       21 0.22735937E-01 0.65032592E+03</pdfrwt>
<pdfrwt beam="2">0</pdfrwt>
<totfact> 0.17523876E+03</totfact>
</mgrwt>
</event>
<event>
 6    1  0.1364923E-004  0.6569381E+03  0.7818608E-02  0.9793847E-01
         21   -1    0    0  501  502  0.00000000000E+00  0.00000000000E+00  0.18486115935E+03  0.18486115935E+03  0.00000000000E+00 0. -1.
         13   -1    0    0    0    0 -0.00000000000E+00 -0.00000000000E+00 -0.10000000000E+04  0.10000000000E+04  0.00000000000E+00 0.  1.
    9000005    2    1    2  501    0 -0.25178550904E+01 -0.37759752592E+02 -0.88691795221E+03  0.11037169706E+04  0.65584720687E+03 0.  0.
         13    1    3    3    0    0  0.36192297123E+02  0.20282427245E+03 -0.24435641903E+02  0.20747209081E+03  0.00000000000E+00 0.  1.
          3    1    3    3  501    0 -0.38710152214E+02 -0.24058402505E+03 -0.86248231030E+03  0.89624487981E+03  0.00000000000E+00 0.  1.
         -3    1    1    2    0  502  0.25178550904E+01  0.37759752592E+02  0.71779111558E+02  0.81144188739E+02  0.00000000000E+00 0. -1.
<mgrwt>
<rscale>  1 0.65693812E+03</rscale>
<asrwt>0</asrwt>
<pdfrwt beam="1">  1       21 0.28440178E-01 0.65693812E+03</pdfrwt>
<pdfrwt beam="2">0</pdfrwt>
<totfact> 0.11284435E+03</totfact>
</mgrwt>
</event>
<event>
 6    1  0.1364923E-004  0.6527764E+03  0.7818608E-02  0.9801583E-01
         21   -1    0    0  501  502  0.00000000000E+00  0.00000000000E+00  0.16051415638E+03  0.16051415638E+03  0.00000000000E+00 0.  1.
         13   -1    0    0    0    0 -0.00000000000E+00 -0.00000000000E+00 -0.10000000000E+04  0.10000000000E+04  0.00000000000E+00 0.  1.
    9000005    2    1    2  501    0 -0.68663429494E+02 -0.10887689110E+03 -0.78443230113E+03  0.10205150974E+04  0.63995951830E+03 0.  0.
         13    1    3    3    0    0 -0.19162370377E+03 -0.10103497587E+03  0.97353050150E+01  0.21684668861E+03  0.00000000000E+00 0.  1.
          1    1    3    3  501    0  0.12296027428E+03 -0.78419152345E+01 -0.79416760615E+03  0.80366840882E+03  0.00000000000E+00 0.  1.
         -1    1    1    2    0  502  0.68663429494E+02  0.10887689110E+03 -0.55053542484E+02  0.13999905895E+03  0.00000000000E+00 0. -1.
<mgrwt>
<rscale>  1 0.65277640E+03</rscale>
<asrwt>0</asrwt>
<pdfrwt beam="1">  1       21 0.24694485E-01 0.65277640E+03</pdfrwt>
<pdfrwt beam="2">0</pdfrwt>
<totfact> 0.14914617E+03</totfact>
</mgrwt>
</event>
<event>
 6    1  0.1364923E-004  0.6510847E+03  0.7818608E-02  0.9804746E-01
         21   -1    0    0  501  502  0.00000000000E+00  0.00000000000E+00  0.15161539706E+03  0.15161539706E+03  0.00000000000E+00 0.  1.
         13   -1    0    0    0    0 -0.00000000000E+00 -0.00000000000E+00 -0.10000000000E+04  0.10000000000E+04  0.00000000000E+00 0.  1.
    9000005    2    1    2  501    0 -0.25631658666E+02  0.15876778236E+02 -0.88844645371E+03  0.11014755337E+04  0.65038619001E+03 0.  0.
         13    1    3    3    0    0  0.27748308454E+03  0.12795213362E+03 -0.57563347615E+03  0.65170738032E+03  0.00000000000E+00 0.  1.
          1    1    3    3  501    0 -0.30311474321E+03 -0.11207535539E+03 -0.31281297757E+03  0.44976815335E+03  0.00000000000E+00 0.  1.
         -1    1    1    2    0  502  0.25631658666E+02 -0.15876778236E+02  0.40061850775E+02  0.50139863389E+02  0.00000000000E+00 0. -1.
<mgrwt>
<rscale>  1 0.65108467E+03</rscale>
<asrwt>0</asrwt>
<pdfrwt beam="1">  1       21 0.23325445E-01 0.65108467E+03</pdfrwt>
<pdfrwt beam="2">0</pdfrwt>
<totfact> 0.16672601E+03</totfact>
</mgrwt>
</event>
<event>
 6    1  0.1364923E-004  0.6817999E+03  0.7818608E-02  0.9748873E-01
         21   -1    0    0  501  502  0.00000000000E+00  0.00000000000E+00  0.13777080138E+04  0.13777080138E+04  0.00000000000E+00 0. -1.
         13   -1    0    0    0    0 -0.00000000000E+00 -0.00000000000E+00 -0.10000000000E+04  0.10000000000E+04  0.00000000000E+00 0.  1.
    9000005    2    1    2  501    0 -0.22937125566E+03  0.15712495095E+02 -0.87207023253E+03  0.11069587386E+04  0.64186688891E+03 0.  0.
         13    1    3    3    0    0 -0.34394388532E+02  0.22698590508E+03 -0.76739909236E+03  0.80100370912E+03  0.00000000000E+00 0.  1.
          1    1    3    3  501    0 -0.19497686713E+03 -0.21127340998E+03 -0.10467114017E+03  0.30595502948E+03  0.00000000000E+00 0.  1.
         -3    1    1    2    0  502  0.22937125566E+03 -0.15712495095E+02  0.12497782464E+04  0.12707492752E+04  0.00000000000E+00 0. -1.
<mgrwt>
<rscale>  1 0.68179994E+03</rscale>
<asrwt>0</asrwt>
<pdfrwt beam="1">  1       21 0.21195507E+00 0.68179994E+03</pdfrwt>
<pdfrwt beam="2">0</pdfrwt>
<totfact> 0.90552837E+00</totfact>
</mgrwt>
</event>
<event>
 6    1  0.1364923E-004  0.7606895E+03  0.7818608E-02  0.9618728E-01
         21   -1    0    0  501  502  0.00000000000E+00  0.00000000000E+00  0.19041313325E+03  0.19041313325E+03  0.00000000000E+00 0.  1.
         13   -1    0    0    0    0 -0.00000000000E+00 -0.00000000000E+00 -0.10000000000E+04  0.10000000000E+04  0.00000000000E+00 0.  1.
    9000005    2    1    2  501    0  0.35382286361E+02 -0.84992083677E+02 -0.78919455601E+03  0.10961188767E+04  0.75509799642E+03 0.  0.
         13    1    3    3    0    0 -0.31526158623E+03 -0.45082764679E+02 -0.63623305724E+03  0.71148775573E+03  0.00000000000E+00 0.  1.
          1    1    3    3  501    0  0.35064387259E+03 -0.39909318999E+02 -0.15296149877E+03  0.38463112099E+03  0.00000000000E+00 0.  1.
         -1    1    1    2    0  502 -0.35382286361E+02  0.84992083677E+02 -0.20392310749E+02  0.94294256525E+02  0.00000000000E+00 0. -1.
<mgrwt>
<rscale>  1 0.76068952E+03</rscale>
<asrwt>0</asrwt>
<pdfrwt beam="1">  1       21 0.29294327E-01 0.76068952E+03</pdfrwt>
<pdfrwt beam="2">0</pdfrwt>
<totfact> 0.10575741E+03</totfact>
</mgrwt>
</event>
<event>
 6    1  0.1364923E-004  0.7685560E+03  0.7818608E-02  0.9606680E-01
         21   -1    0    0  501  502  0.00000000000E+00  0.00000000000E+00  0.37146042366E+03  0.37146042366E+03  0.00000000000E+00 0.  1.
         13   -1    0    0    0    0 -0.00000000000E+00 -0.00000000000E+00 -0.10000000000E+04  0.10000000000E+04  0.00000000000E+00 0.  1.
    9000005    2    1    2  501    0  0.31103146480E+03 -0.26730601149E+03 -0.57072769282E+03  0.95729223348E+03  0.64998864995E+03 0.  0.
         13    1    3    3    0    0  0.12994362194E+03 -0.15193121159E+03  0.12053726817E+03  0.23344736228E+03  0.00000000000E+00 0.  1.
          1    1    3    3  501    0  0.18108784286E+03 -0.11537479990E+03 -0.69126496098E+03  0.72384487120E+03  0.00000000000E+00 0.  1.
         -1    1    1    2    0  502 -0.31103146480E+03  0.26730601149E+03 -0.57811883529E+02  0.41416819017E+03  0.00000000000E+00 0. -1.
<mgrwt>
<rscale>  1 0.76855600E+03</rscale>
<asrwt>0</asrwt>
<pdfrwt beam="1">  1       21 0.57147756E-01 0.76855600E+03</pdfrwt>
<pdfrwt beam="2">0</pdfrwt>
<totfact> 0.26108515E+02</totfact>
</mgrwt>
</event>
<event>
 6    1  0.1364923E-004  0.6458039E+03  0.7818608E-02  0.9814685E-01
         21   -1    0    0  501  502  0.00000000000E+00  0.00000000000E+00  0.11912455717E+03  0.11912455717E+03  0.00000000000E+00 0.  1.
         13   -1    0    0    0    0 -0.00000000000E+00 -0.00000000000E+00 -0.10000000000E+04  0.10000000000E+04  0.00000000000E+00 0.  1.
    9000005    2    1    2  501    0 -0.16063134215E+02 -0.38019145274E+02 -0.85038868809E+03  0.10678125517E+04  0.64448370429E+03 0.  0.
         13    1    3    3    0    0  0.10083222910E+02 -0.33103976045E+03 -0.31579231328E+03  0.45761750351E+03  0.00000000000E+00 0.  1.
          3    1    3    3  501    0 -0.26146357126E+02  0.29302061518E+03 -0.53459637480E+03  0.61019504821E+03  0.00000000000E+00 0.  1.
         -1    1    1    2    0  502  0.16063134215E+02  0.38019145274E+02 -0.30486754747E+02  0.51312005449E+02  0.00000000000E+00 0. -1.
<mgrwt>
<rscale>  1 0.64580394E+03</rscale>
<asrwt>0</asrwt>
<pdfrwt beam="1">  1       21 0.18326854E-01 0.64580394E+03</pdfrwt>
<pdfrwt beam="2">0</pdfrwt>
<totfact> 0.26520492E+03</totfact>
</mgrwt>
</event>
<event>
 6    1  0.1364923E-004  0.5367230E+03  0.7818608E-02  0.1004615E+00
         21   -1    0    0  501  502  0.00000000000E+00  0.00000000000E+00  0.94981223274E+02  0.94981223274E+02  0.00000000000E+00 0.  1.
         13   -1    0    0    0    0 -0.00000000000E+00 -0.00000000000E+00 -0.10000000000E+04  0.10000000000E+04  0.00000000000E+00 0.  1.
    9000005    2    1    2  501    0  0.19777612175E+02 -0.49016434408E+01 -0.92306399214E+03  0.10677634010E+04  0.53633605770E+03 0.  0.
         13    1    3    3    0    0 -0.22934617835E+03  0.11878636326E+03 -0.46234042216E+03  0.52959280167E+03  0.00000000000E+00 0.  1.
          1    1    3    3  501    0  0.24912379052E+03 -0.12368800670E+03 -0.46072356998E+03  0.53817059929E+03  0.00000000000E+00 0.  1.
         -1    1    1    2    0  502 -0.19777612175E+02  0.49016434408E+01  0.18045215419E+02  0.27217822310E+02  0.00000000000E+00 0. -1.
<mgrwt>
<rscale>  1 0.53672297E+03</rscale>
<asrwt>0</asrwt>
<pdfrwt beam="1">  1       21 0.14612495E-01 0.53672297E+03</pdfrwt>
<pdfrwt beam="2">0</pdfrwt>
<totfact> 0.40719097E+03</totfact>
</mgrwt>
</event>
<event>
 6    1  0.1364923E-004  0.6572644E+03  0.7818608E-02  0.9793243E-01
         21   -1    0    0  501  502  0.00000000000E+00  0.00000000000E+00  0.14460768496E+03  0.14460768496E+03  0.00000000000E+00 0.  1.
         13   -1    0    0    0    0 -0.00000000000E+00 -0.00000000000E+00 -0.10000000000E+04  0.10000000000E+04  0.00000000000E+00 0.  1.
    9000005    2    1    2  501    0  0.27833208898E+02 -0.94825683682E+02 -0.78189083974E+03  0.10214449281E+04  0.64979216530E+03 0.  0.
         13    1    3    3    0    0 -0.16019373798E+03  0.89345983046E+01 -0.79040027501E+03  0.80651996595E+03  0.00000000000E+00 0.  1.
          1    1    3    3  501    0  0.18802694688E+03 -0.10376028199E+03  0.85094352702E+01  0.21492496216E+03  0.00000000000E+00 0.  1.
         -3    1    1    2    0  502 -0.27833208898E+02  0.94825683682E+02 -0.73501475300E+02  0.12316275685E+03  0.00000000000E+00 0. -1.
<mgrwt>
<rscale>  1 0.65726437E+03</rscale>
<asrwt>0</asrwt>
<pdfrwt beam="1">  1       21 0.22247336E-01 0.65726437E+03</pdfrwt>
<pdfrwt beam="2">0</pdfrwt>
<totfact> 0.18272265E+03</totfact>
</mgrwt>
</event>
<event>
 6    1  0.1364923E-004  0.6507879E+03  0.7818608E-02  0.9805302E-01
         21   -1    0    0  501  502  0.00000000000E+00  0.00000000000E+00  0.22482750266E+03  0.22482750266E+03  0.00000000000E+00 0.  1.
         13   -1    0    0    0    0 -0.00000000000E+00 -0.00000000000E+00 -0.10000000000E+04  0.10000000000E+04  0.00000000000E+00 0.  1.
    9000005    2    1    2  501    0 -0.27010841011E+02  0.83658967185E+01 -0.89225721380E+03  0.11043766638E+04  0.65017328933E+03 0.  0.
         13    1    3    3    0    0 -0.15526047256E+03  0.44555785975E+02 -0.94673314765E+03  0.96041380938E+03  0.00000000000E+00 0.  1.
          1    1    3    3  501    0  0.12824963154E+03 -0.36189889256E+02  0.54475933848E+02  0.14396285439E+03  0.00000000000E+00 0.  1.
         -1    1    1    2    0  502  0.27010841011E+02 -0.83658967185E+01  0.11708471646E+03  0.12045083889E+03  0.00000000000E+00 0. -1.
<mgrwt>
<rscale>  1 0.65078789E+03</rscale>
<asrwt>0</asrwt>
<pdfrwt beam="1">  1       21 0.34588846E-01 0.65078789E+03</pdfrwt>
<pdfrwt beam="2">0</pdfrwt>
<totfact> 0.76131459E+02</totfact>
</mgrwt>
</event>
<event>
 6    1  0.1364923E-004  0.6200986E+03  0.7818608E-02  0.9864563E-01
         21   -1    0    0  501  502  0.00000000000E+00  0.00000000000E+00  0.11130705942E+03  0.11130705942E+03  0.00000000000E+00 0.  1.
         13   -1    0    0    0    0 -0.00000000000E+00 -0.00000000000E+00 -0.10000000000E+04  0.10000000000E+04  0.00000000000E+00 0.  1.
    9000005    2    1    2  501    0 -0.10615968945E+02  0.32345077453E+02 -0.87935782422E+03  0.10760076652E+04  0.61916347584E+03 0.  0.
         13    1    3    3    0    0  0.14349003547E+03 -0.10932398218E+03 -0.84479992867E+03  0.86384491828E+03  0.00000000000E+00 0.  1.
          1    1    3    3  501    0 -0.15410600442E+03  0.14166905963E+03 -0.34557895549E+02  0.21216274696E+03  0.00000000000E+00 0.  1.
         -3    1    1    2    0  502  0.10615968945E+02 -0.32345077453E+02 -0.93351163574E+01  0.35299394180E+02  0.00000000000E+00 0. -1.
<mgrwt>
<rscale>  1 0.62009863E+03</rscale>
<asrwt>0</asrwt>
<pdfrwt beam="1">  1       21 0.17124162E-01 0.62009863E+03</pdfrwt>
<pdfrwt beam="2">0</pdfrwt>
<totfact> 0.30184444E+03</totfact>
</mgrwt>
</event>
<event>
 6    1  0.1364923E-004  0.6621739E+03  0.7818608E-02  0.9784200E-01
         21   -1    0    0  501  502  0.00000000000E+00  0.00000000000E+00  0.15299611134E+03  0.15299611134E+03  0.00000000000E+00 0.  1.
         13   -1    0    0    0    0 -0.00000000000E+00 -0.00000000000E+00 -0.10000000000E+04  0.10000000000E+04  0.00000000000E+00 0.  1.
    9000005    2    1    2  501    0  0.11709165098E+03  0.24078513254E+02 -0.73301312643E+03  0.98781704667E+03  0.65129413068E+03 0.  0.
         13    1    3    3    0    0 -0.10198045187E+03 -0.70697255396E+02 -0.73870489461E+03  0.74905476155E+03  0.00000000000E+00 0.  1.
          1    1    3    3  501    0  0.21907210285E+03  0.94775768650E+02  0.56917681853E+01  0.23876228512E+03  0.00000000000E+00 0.  1.
         -1    1    1    2    0  502 -0.11709165098E+03 -0.24078513254E+02 -0.11399076223E+03  0.16517906467E+03  0.00000000000E+00 0. -1.
<mgrwt>
<rscale>  1 0.66217390E+03</rscale>
<asrwt>0</asrwt>
<pdfrwt beam="1">  1       21 0.23537863E-01 0.66217390E+03</pdfrwt>
<pdfrwt beam="2">0</pdfrwt>
<totfact> 0.16372114E+03</totfact>
</mgrwt>
</event>
<event>
 6    1  0.1364923E-004  0.6910321E+03  0.7818608E-02  0.9732693E-01
         21   -1    0    0  501  502  0.00000000000E+00  0.00000000000E+00  0.14536338201E+03  0.14536338201E+03  0.00000000000E+00 0.  1.
         13   -1    0    0    0    0 -0.00000000000E+00 -0.00000000000E+00 -0.10000000000E+04  0.10000000000E+04  0.00000000000E+00 0.  1.
    9000005    2    1    2  501    0  0.61841968835E+02 -0.35309651394E+02 -0.78367575548E+03  0.10448315731E+04  0.68735298492E+03 0.  0.
         13    1    3    3    0    0  0.17110477456E+03 -0.29964428538E+03 -0.21034707825E+03  0.40411562079E+03  0.00000000000E+00 0.  1.
          3    1    3    3  501    0 -0.10926280572E+03  0.26433463399E+03 -0.57332867723E+03  0.64071595233E+03  0.00000000000E+00 0.  1.
         -3    1    1    2    0  502 -0.61841968835E+02  0.35309651394E+02 -0.70960862507E+02  0.10053180889E+03  0.00000000000E+00 0. -1.
<mgrwt>
<rscale>  1 0.69103207E+03</rscale>
<asrwt>0</asrwt>
<pdfrwt beam="1">  1       21 0.22363597E-01 0.69103207E+03</pdfrwt>
<pdfrwt beam="2">0</pdfrwt>
<totfact> 0.18061724E+03</totfact>
</mgrwt>
</event>
<event>
 6    1  0.1364923E-004  0.6593464E+03  0.7818608E-02  0.9789398E-01
         21   -1    0    0  501  502  0.00000000000E+00  0.00000000000E+00  0.18335645810E+03  0.18335645810E+03  0.00000000000E+00 0. -1.
         13   -1    0    0    0    0 -0.00000000000E+00 -0.00000000000E+00 -0.10000000000E+04  0.10000000000E+04  0.00000000000E+00 0.  1.
    9000005    2    1    2  501    0 -0.34027049925E+02  0.21270276988E+02 -0.88528738245E+03  0.11038439330E+04  0.65812416303E+03 0.  0.
         13    1    3    3    0    0  0.14632071815E+03  0.89988190754E+02 -0.89428968649E+03  0.91063805674E+03  0.00000000000E+00 0.  1.
          1    1    3    3  501    0 -0.18034776808E+03 -0.68717913766E+02  0.90023040331E+01  0.19320587621E+03  0.00000000000E+00 0.  1.
         -1    1    1    2    0  502  0.34027049925E+02 -0.21270276988E+02  0.68643840556E+02  0.79512525152E+02  0.00000000000E+00 0. -1.
<mgrwt>
<rscale>  1 0.65934640E+03</rscale>
<asrwt>0</asrwt>
<pdfrwt beam="1">  1       21 0.28208685E-01 0.65934640E+03</pdfrwt>
<pdfrwt beam="2">0</pdfrwt>
<totfact> 0.11467781E+03</totfact>
</mgrwt>
</event>
<event>
 6    1  0.1364923E-004  0.6599961E+03  0.7818608E-02  0.9788201E-01
         21   -1    0    0  501  502  0.00000000000E+00  0.00000000000E+00  0.20416888101E+03  0.20416888101E+03  0.00000000000E+00 0.  1.
         13   -1    0    0    0    0 -0.00000000000E+00 -0.00000000000E+00 -0.10000000000E+04  0.10000000000E+04  0.00000000000E+00 0.  1.
    9000005    2    1    2  501    0 -0.20851012705E+01 -0.33049437925E+02 -0.88789876157E+03  0.11063268461E+04  0.65916482500E+03 0.  0.
         13    1    3    3    0    0  0.24701171231E+02  0.31058662519E+03 -0.48061572279E+03  0.57277017433E+03  0.00000000000E+00 0.  1.
          1    1    3    3  501    0 -0.26786272501E+02 -0.34363606312E+03 -0.40728303878E+03  0.53355667172E+03  0.00000000000E+00 0.  1.
         -1    1    1    2    0  502  0.20851012705E+01  0.33049437925E+02  0.92067642572E+02  0.97842034950E+02  0.00000000000E+00 0. -1.
<mgrwt>
<rscale>  1 0.65999612E+03</rscale>
<asrwt>0</asrwt>
<pdfrwt beam="1">  1       21 0.31410596E-01 0.65999612E+03</pdfrwt>
<pdfrwt beam="2">0</pdfrwt>
<totfact> 0.92478349E+02</totfact>
</mgrwt>
</event>
<event>
 6    1  0.1364923E-004  0.6514136E+03  0.7818608E-02  0.9804130E-01
         21   -1    0    0  501  502  0.00000000000E+00  0.00000000000E+00  0.51249180814E+03  0.51249180814E+03  0.00000000000E+00 0. -1.
         13   -1    0    0    0    0 -0.00000000000E+00 -0.00000000000E+00 -0.10000000000E+04  0.10000000000E+04  0.00000000000E+00 0.  1.
    9000005    2    1    2  501    0 -0.11914091691E+03 -0.48263566859E+02 -0.88263066705E+03  0.10969852494E+04  0.63860458265E+03 0.  0.
         13    1    3    3    0    0  0.13322306043E+03 -0.23877639039E+03 -0.64774167964E+03  0.70308735729E+03  0.00000000000E+00 0.  1.
          3    1    3    3  501    0 -0.25236397734E+03  0.19051282353E+03 -0.23488898742E+03  0.39389789210E+03  0.00000000000E+00 0.  1.
         -3    1    1    2    0  502  0.11914091691E+03  0.48263566859E+02  0.39512247519E+03  0.41550655876E+03  0.00000000000E+00 0. -1.
<mgrwt>
<rscale>  1 0.65141365E+03</rscale>
<asrwt>0</asrwt>
<pdfrwt beam="1">  1       21 0.78844891E-01 0.65141365E+03</pdfrwt>
<pdfrwt beam="2">0</pdfrwt>
<totfact> 0.12778937E+02</totfact>
</mgrwt>
</event>
<event>
 6    1  0.1364923E-004  0.6464780E+03  0.7818608E-02  0.9813411E-01
         21   -1    0    0  501  502  0.00000000000E+00  0.00000000000E+00  0.13146810555E+03  0.13146810555E+03  0.00000000000E+00 0.  1.
         13   -1    0    0    0    0 -0.00000000000E+00 -0.00000000000E+00 -0.10000000000E+04  0.10000000000E+04  0.00000000000E+00 0.  1.
    9000005    2    1    2  501    0 -0.33478130772E+02 -0.29439208237E+02 -0.87339323582E+03  0.10866229847E+04  0.64493900048E+03 0.  0.
         13    1    3    3    0    0  0.20790201370E+02 -0.24086941748E+02  0.10346337806E+03  0.10824547951E+03  0.00000000000E+00 0.  1.
          1    1    3    3  501    0 -0.54268332142E+02 -0.53522664893E+01 -0.97685661388E+03  0.97837750522E+03  0.00000000000E+00 0.  1.
         -3    1    1    2    0  502  0.33478130772E+02  0.29439208237E+02  0.48613413780E+01  0.44845120823E+02  0.00000000000E+00 0. -1.
<mgrwt>
<rscale>  1 0.64647797E+03</rscale>
<asrwt>0</asrwt>
<pdfrwt beam="1">  1       21 0.20225862E-01 0.64647797E+03</pdfrwt>
<pdfrwt beam="2">0</pdfrwt>
<totfact> 0.21967250E+03</totfact>
</mgrwt>
</event>
<event>
 6    1  0.1364923E-004  0.6555554E+03  0.7818608E-02  0.9796410E-01
         21   -1    0    0  501  502  0.00000000000E+00  0.00000000000E+00  0.31895678418E+03  0.31895678418E+03  0.00000000000E+00 0. -1.
         13   -1    0    0    0    0 -0.00000000000E+00 -0.00000000000E+00 -0.10000000000E+04  0.10000000000E+04  0.00000000000E+00 0.  1.
    9000005    2    1    2  501    0  0.28424923721E+02 -0.53496873076E+02 -0.88774548497E+03  0.11035601273E+04  0.65275034798E+03 0.  0.
         13    1    3    3    0    0  0.22934528574E+03  0.71672630996E+02 -0.67131267630E+02  0.24948513627E+03  0.00000000000E+00 0.  1.
          3    1    3    3  501    0 -0.20092036202E+03 -0.12516950407E+03 -0.82061421734E+03  0.85407499104E+03  0.00000000000E+00 0.  1.
         -1    1    1    2    0  502 -0.28424923721E+02  0.53496873076E+02  0.20670226915E+03  0.21539665687E+03  0.00000000000E+00 0. -1.
<mgrwt>
<rscale>  1 0.65555542E+03</rscale>
<asrwt>0</asrwt>
<pdfrwt beam="1">  1       21 0.49070273E-01 0.65555542E+03</pdfrwt>
<pdfrwt beam="2">0</pdfrwt>
<totfact> 0.36698520E+02</totfact>
</mgrwt>
</event>
<event>
 6    1  0.1364923E-004  0.6600400E+03  0.7818608E-02  0.9788120E-01
         21   -1    0    0  501  502  0.00000000000E+00  0.00000000000E+00  0.31594503242E+03  0.31594503242E+03  0.00000000000E+00 0. -1.
         13   -1    0    0    0    0 -0.00000000000E+00 -0.00000000000E+00 -0.10000000000E+04  0.10000000000E+04  0.00000000000E+00 0.  1.
    9000005    2    1    2  501    0 -0.16440612858E+02  0.21776368802E+02 -0.89008930704E+03  0.11081117987E+04  0.65947576148E+03 0.  0.
         13    1    3    3    0    0 -0.28956565979E+02  0.32153236912E+03 -0.64280503841E+03  0.71931902832E+03  0.00000000000E+00 0.  1.
          3    1    3    3  501    0  0.12515953120E+02 -0.29975600032E+03 -0.24728426863E+03  0.38879277041E+03  0.00000000000E+00 0.  1.
         -3    1    1    2    0  502  0.16440612858E+02 -0.21776368802E+02  0.20603433946E+03  0.20783323369E+03  0.00000000000E+00 0. -1.
<mgrwt>
<rscale>  1 0.66003999E+03</rscale>
<asrwt>0</asrwt>
<pdfrwt beam="1">  1       21 0.48606927E-01 0.66003999E+03</pdfrwt>
<pdfrwt beam="2">0</pdfrwt>
<totfact> 0.37434514E+02</totfact>
</mgrwt>
</event>
<event>
 6    1  0.1364923E-004  0.6536499E+03  0.7818608E-02  0.9799955E-01
         21   -1    0    0  501  502  0.00000000000E+00  0.00000000000E+00  0.16406089806E+03  0.16406089806E+03  0.00000000000E+00 0. -1.
         13   -1    0    0    0    0 -0.00000000000E+00 -0.00000000000E+00 -0.10000000000E+04  0.10000000000E+04  0.00000000000E+00 0.  1.
    9000005    2    1    2  501    0  0.28728155858E+00 -0.28275418838E+02 -0.88929371315E+03  0.11036763274E+04  0.65303793572E+03 0.  0.
         13    1    3    3    0    0 -0.13990194518E+03  0.18127043397E+03 -0.80640474406E+03  0.83828404240E+03  0.00000000000E+00 0.  1.
          1    1    3    3  501    0  0.14018922673E+03 -0.20954585280E+03 -0.82888969085E+02  0.26539228496E+03  0.00000000000E+00 0.  1.
         -3    1    1    2    0  502 -0.28728155858E+00  0.28275418838E+02  0.53354611208E+02  0.60384570698E+02  0.00000000000E+00 0. -1.
<mgrwt>
<rscale>  1 0.65364985E+03</rscale>
<asrwt>0</asrwt>
<pdfrwt beam="1">  1       21 0.25240137E-01 0.65364985E+03</pdfrwt>
<pdfrwt beam="2">0</pdfrwt>
<totfact> 0.14288525E+03</totfact>
</mgrwt>
</event>
<event>
 6    1  0.1364923E-004  0.5818691E+03  0.7818608E-02  0.9943753E-01
         21   -1    0    0  501  502  0.00000000000E+00  0.00000000000E+00  0.14822339976E+03  0.14822339976E+03  0.00000000000E+00 0.  1.
         13   -1    0    0    0    0 -0.00000000000E+00 -0.00000000000E+00 -0.10000000000E+04  0.10000000000E+04  0.00000000000E+00 0.  1.
    9000005    2    1    2  501    0  0.14112936082E+03  0.17849372118E+02 -0.81481415559E+03  0.10012461264E+04  0.56421237216E+03 0.  0.
         13    1    3    3    0    0  0.28843374597E+03  0.16586607606E+03 -0.30923336402E+03  0.45423656218E+03  0.00000000000E+00 0.  1.
          3    1    3    3  501    0 -0.14730438515E+03 -0.14801670394E+03 -0.50558079157E+03  0.54700956421E+03  0.00000000000E+00 0.  1.
         -3    1    1    2    0  502 -0.14112936082E+03 -0.17849372118E+02 -0.36962444656E+02  0.14697727337E+03  0.00000000000E+00 0. -1.
<mgrwt>
<rscale>  1 0.58186914E+03</rscale>
<asrwt>0</asrwt>
<pdfrwt beam="1">  1       21 0.22803599E-01 0.58186914E+03</pdfrwt>
<pdfrwt beam="2">0</pdfrwt>
<totfact> 0.17481817E+03</totfact>
</mgrwt>
</event>
<event>
 6    1  0.1364923E-004  0.6443853E+03  0.7818608E-02  0.9817372E-01
         21   -1    0    0  501  502  0.00000000000E+00  0.00000000000E+00  0.12224641035E+03  0.12224641035E+03  0.00000000000E+00 0.  1.
         13   -1    0    0    0    0 -0.00000000000E+00 -0.00000000000E+00 -0.10000000000E+04  0.10000000000E+04  0.00000000000E+00 0.  1.
    9000005    2    1    2  501    0  0.16079828344E+02 -0.21188652978E+02 -0.88494110912E+03  0.10946931831E+04  0.64383606505E+03 0.  0.
         13    1    3    3    0    0  0.19402205181E+03 -0.24720792221E+03 -0.65478320851E+03  0.72629013730E+03  0.00000000000E+00 0.  1.
          3    1    3    3  501    0 -0.17794222346E+03  0.22601926923E+03 -0.23015790061E+03  0.36840304582E+03  0.00000000000E+00 0.  1.
         -3    1    1    2    0  502 -0.16079828344E+02  0.21188652978E+02  0.71875194716E+01  0.27553227230E+02  0.00000000000E+00 0. -1.
<mgrwt>
<rscale>  1 0.64438529E+03</rscale>
<asrwt>0</asrwt>
<pdfrwt beam="1">  1       21 0.18807140E-01 0.64438529E+03</pdfrwt>
<pdfrwt beam="2">0</pdfrwt>
<totfact> 0.25247958E+03</totfact>
</mgrwt>
</event>
<event>
 6    1  0.1364923E-004  0.6831452E+03  0.7818608E-02  0.9746498E-01
         21   -1    0    0  501  502  0.00000000000E+00  0.00000000000E+00  0.29174753225E+03  0.29174753225E+03  0.00000000000E+00 0.  1.
         13   -1    0    0    0    0 -0.00000000000E+00 -0.00000000000E+00 -0.10000000000E+04  0.10000000000E+04  0.00000000000E+00 0.  1.
    9000005    2    1    2  501    0 -0.20984443658E+03  0.17793405534E+02 -0.80853116973E+03  0.10584942131E+04  0.64987387530E+03 0.  0.
         13    1    3    3    0    0 -0.24025604206E+03  0.19683772351E+03 -0.98849001573E+02  0.32594352310E+03  0.00000000000E+00 0.  1.
          3    1    3    3  501    0  0.30411605473E+02 -0.17904431798E+03 -0.70968216815E+03  0.73255068995E+03  0.00000000000E+00 0.  1.
         -1    1    1    2    0  502  0.20984443658E+03 -0.17793405534E+02  0.10027870197E+03  0.23325331919E+03  0.00000000000E+00 0. -1.
<mgrwt>
<rscale>  1 0.68314519E+03</rscale>
<asrwt>0</asrwt>
<pdfrwt beam="1">  1       21 0.44884234E-01 0.68314519E+03</pdfrwt>
<pdfrwt beam="2">0</pdfrwt>
<totfact> 0.44246840E+02</totfact>
</mgrwt>
</event>
<event>
 6    1  0.1364923E-004  0.6868071E+03  0.7818608E-02  0.9740064E-01
         21   -1    0    0  501  502  0.00000000000E+00  0.00000000000E+00  0.23900870320E+03  0.23900870320E+03  0.00000000000E+00 0.  1.
         13   -1    0    0    0    0 -0.00000000000E+00 -0.00000000000E+00 -0.10000000000E+04  0.10000000000E+04  0.00000000000E+00 0.  1.
    9000005    2    1    2  501    0  0.22106998406E+03  0.12816840273E+03 -0.69054665911E+03  0.97393979841E+03  0.63749899231E+03 0.  0.
         13    1    3    3    0    0  0.39565106384E+03  0.15441011659E+03 -0.67395929214E+03  0.79661996955E+03  0.00000000000E+00 0.  1.
          3    1    3    3  501    0 -0.17458107978E+03 -0.26241713866E+02 -0.16587366977E+02  0.17731982886E+03  0.00000000000E+00 0.  1.
         -1    1    1    2    0  502 -0.22106998406E+03 -0.12816840273E+03 -0.70444637687E+02  0.26506890479E+03  0.00000000000E+00 0. -1.
<mgrwt>
<rscale>  1 0.68680714E+03</rscale>
<asrwt>0</asrwt>
<pdfrwt beam="1">  1       21 0.36770569E-01 0.68680714E+03</pdfrwt>
<pdfrwt beam="2">0</pdfrwt>
<totfact> 0.67006968E+02</totfact>
</mgrwt>
</event>
<event>
 6    1  0.1364923E-004  0.6670857E+03  0.7818608E-02  0.9775237E-01
         21   -1    0    0  501  502  0.00000000000E+00  0.00000000000E+00  0.48732375259E+03  0.48732375259E+03  0.00000000000E+00 0. -1.
         13   -1    0    0    0    0 -0.00000000000E+00 -0.00000000000E+00 -0.10000000000E+04  0.10000000000E+04  0.00000000000E+00 0.  1.
    9000005    2    1    2  501    0 -0.86431835990E+02  0.98749665071E+02 -0.87596820237E+03  0.11010557069E+04  0.65405001293E+03 0.  0.
         13    1    3    3    0    0 -0.24360082129E+03  0.21986694506E+03 -0.83674875309E+03  0.89879436439E+03  0.00000000000E+00 0.  1.
          1    1    3    3  501    0  0.15716898530E+03 -0.12111727999E+03 -0.39219449276E+02  0.20226134246E+03  0.00000000000E+00 0.  1.
         -3    1    1    2    0  502  0.86431835990E+02 -0.98749665071E+02  0.36329195495E+03  0.38626804574E+03  0.00000000000E+00 0. -1.
<mgrwt>
<rscale>  1 0.66708574E+03</rscale>
<asrwt>0</asrwt>
<pdfrwt beam="1">  1       21 0.74972883E-01 0.66708574E+03</pdfrwt>
<pdfrwt beam="2">0</pdfrwt>
<totfact> 0.14328906E+02</totfact>
</mgrwt>
</event>
<event>
 6    1  0.1364923E-004  0.7187211E+03  0.7818608E-02  0.9685742E-01
         21   -1    0    0  501  502  0.00000000000E+00  0.00000000000E+00  0.33251881316E+03  0.33251881316E+03  0.00000000000E+00 0. -1.
         13   -1    0    0    0    0 -0.00000000000E+00 -0.00000000000E+00 -0.10000000000E+04  0.10000000000E+04  0.00000000000E+00 0.  1.
    9000005    2    1    2  501    0 -0.19636062561E+03 -0.88679628390E+01 -0.81508856575E+03  0.10867057249E+04  0.69132035009E+03 0.  0.
         13    1    3    3    0    0 -0.14250576585E+03 -0.27082392296E+03 -0.97946306976E+02  0.32132066476E+03  0.00000000000E+00 0.  1.
          1    1    3    3  501    0 -0.53854859769E+02  0.26195596013E+03 -0.71714225877E+03  0.76538506014E+03  0.00000000000E+00 0.  1.
         -3    1    1    2    0  502  0.19636062561E+03  0.88679628390E+01  0.14760737891E+03  0.24581308827E+03  0.00000000000E+00 0. -1.
<mgrwt>
<rscale>  1 0.71872106E+03</rscale>
<asrwt>0</asrwt>
<pdfrwt beam="1">  1       21 0.51156739E-01 0.71872106E+03</pdfrwt>
<pdfrwt beam="2">0</pdfrwt>
<totfact> 0.33367800E+02</totfact>
</mgrwt>
</event>
<event>
 6    1  0.1364923E-004  0.7301916E+03  0.7818608E-02  0.9666949E-01
         21   -1    0    0  501  502  0.00000000000E+00  0.00000000000E+00  0.18238055016E+03  0.18238055016E+03  0.00000000000E+00 0.  1.
         13   -1    0    0    0    0 -0.00000000000E+00 -0.00000000000E+00 -0.10000000000E+04  0.10000000000E+04  0.00000000000E+00 0.  1.
    9000005    2    1    2  501    0 -0.38319628962E+02 -0.54926388437E+02 -0.83883713874E+03  0.11121274902E+04  0.72711381986E+03 0.  0.
         13    1    3    3    0    0 -0.14283182004E+02  0.33435453393E+03 -0.45584426881E+03  0.56550062870E+03  0.00000000000E+00 0.  1.
          1    1    3    3  501    0 -0.24036446959E+02 -0.38928092237E+03 -0.38299286993E+03  0.54662686151E+03  0.00000000000E+00 0.  1.
         -3    1    1    2    0  502  0.38319628962E+02  0.54926388437E+02  0.21217688904E+02  0.70253059954E+02  0.00000000000E+00 0. -1.
<mgrwt>
<rscale>  1 0.73019162E+03</rscale>
<asrwt>0</asrwt>
<pdfrwt beam="1">  1       21 0.28058545E-01 0.73019162E+03</pdfrwt>
<pdfrwt beam="2">0</pdfrwt>
<totfact> 0.11544788E+03</totfact>
</mgrwt>
</event>
<event>
 6    1  0.1364923E-004  0.6557561E+03  0.7818608E-02  0.9796038E-01
         21   -1    0    0  501  502  0.00000000000E+00  0.00000000000E+00  0.22398355331E+03  0.22398355331E+03  0.00000000000E+00 0.  1.
         13   -1    0    0    0    0 -0.00000000000E+00 -0.00000000000E+00 -0.10000000000E+04  0.10000000000E+04  0.00000000000E+00 0.  1.
    9000005    2    1    2  501    0  0.68333738809E+02  0.15788763333E+02 -0.88067401223E+03  0.10979994633E+04  0.65199487783E+03 0.  0.
         13    1    3    3    0    0  0.28327913899E+03 -0.11707255318E+03 -0.75692478371E+03  0.81663221923E+03  0.00000000000E+00 0.  1.
          3    1    3    3  501    0 -0.21494540018E+03  0.13286131651E+03 -0.12374922852E+03  0.28136724408E+03  0.00000000000E+00 0.  1.
         -1    1    1    2    0  502 -0.68333738809E+02 -0.15788763333E+02  0.10465756554E+03  0.12598408999E+03  0.00000000000E+00 0. -1.
<mgrwt>
<rscale>  1 0.65575613E+03</rscale>
<asrwt>0</asrwt>
<pdfrwt beam="1">  1       21 0.34459007E-01 0.65575613E+03</pdfrwt>
<pdfrwt beam="2">0</pdfrwt>
<totfact> 0.76689437E+02</totfact>
</mgrwt>
</event>
<event>
 6    1  0.1364923E-004  0.6481376E+03  0.7818608E-02  0.9810280E-01
         21   -1    0    0  501  502  0.00000000000E+00  0.00000000000E+00  0.30307656385E+03  0.30307656385E+03  0.00000000000E+00 0. -1.
         13   -1    0    0    0    0 -0.00000000000E+00 -0.00000000000E+00 -0.10000000000E+04  0.10000000000E+04  0.00000000000E+00 0.  1.
    9000005    2    1    2  501    0  0.33264855305E+02  0.14535331044E+02 -0.89313935441E+03  0.11035307971E+04  0.64712014906E+03 0.  0.
         13    1    3    3    0    0  0.24845584222E+03  0.26310581254E+02 -0.80036256200E+02  0.26235158571E+03  0.00000000000E+00 0.  1.
          3    1    3    3  501    0 -0.21519098691E+03 -0.11775250210E+02 -0.81310309821E+03  0.84117921140E+03  0.00000000000E+00 0.  1.
         -3    1    1    2    0  502 -0.33264855305E+02 -0.14535331044E+02  0.19621591826E+03  0.19954576674E+03  0.00000000000E+00 0. -1.
<mgrwt>
<rscale>  1 0.64813757E+03</rscale>
<asrwt>0</asrwt>
<pdfrwt beam="1">  1       21 0.46627162E-01 0.64813757E+03</pdfrwt>
<pdfrwt beam="2">0</pdfrwt>
<totfact> 0.40943739E+02</totfact>
</mgrwt>
</event>
<event>
 6    1  0.1364923E-004  0.6685675E+03  0.7818608E-02  0.9772549E-01
         21   -1    0    0  501  502  0.00000000000E+00  0.00000000000E+00  0.17175007042E+03  0.17175007042E+03  0.00000000000E+00 0. -1.
         13   -1    0    0    0    0 -0.00000000000E+00 -0.00000000000E+00 -0.10000000000E+04  0.10000000000E+04  0.00000000000E+00 0.  1.
    9000005    2    1    2  501    0 -0.11251776383E+03 -0.87165472882E+02 -0.76506382034E+03  0.10160241855E+04  0.65324147866E+03 0.  0.
         13    1    3    3    0    0 -0.95972066990E+02 -0.32577837535E+03 -0.68365264185E+03  0.76336303434E+03  0.00000000000E+00 0.  1.
          1    1    3    3  501    0 -0.16545696843E+02  0.23861290247E+03 -0.81411178484E+02  0.25266115113E+03  0.00000000000E+00 0.  1.
         -3    1    1    2    0  502  0.11251776383E+03  0.87165472882E+02 -0.63186109244E+02  0.15572588495E+03  0.00000000000E+00 0. -1.
<mgrwt>
<rscale>  1 0.66856750E+03</rscale>
<asrwt>0</asrwt>
<pdfrwt beam="1">  1       21 0.26423087E-01 0.66856750E+03</pdfrwt>
<pdfrwt beam="2">0</pdfrwt>
<totfact> 0.13046824E+03</totfact>
</mgrwt>
</event>
<event>
 6    1  0.1364923E-004  0.6510374E+03  0.7818608E-02  0.9804834E-01
         21   -1    0    0  501  502  0.00000000000E+00  0.00000000000E+00  0.23337696143E+03  0.23337696143E+03  0.00000000000E+00 0. -1.
         13   -1    0    0    0    0 -0.00000000000E+00 -0.00000000000E+00 -0.10000000000E+04  0.10000000000E+04  0.00000000000E+00 0.  1.
    9000005    2    1    2  501    0 -0.17344300895E+02 -0.12935814160E+02 -0.89302079134E+03  0.11051406484E+04  0.65067776896E+03 0.  0.
         13    1    3    3    0    0  0.30308526836E+03 -0.83271419258E+02 -0.34738928627E+03  0.46848065636E+03  0.00000000000E+00 0.  1.
          3    1    3    3  501    0 -0.32042956926E+03  0.70335605098E+02 -0.54563150507E+03  0.63665999209E+03  0.00000000000E+00 0.  1.
         -3    1    1    2    0  502  0.17344300895E+02  0.12935814160E+02  0.12639775277E+03  0.12823631298E+03  0.00000000000E+00 0. -1.
<mgrwt>
<rscale>  1 0.65103742E+03</rscale>
<asrwt>0</asrwt>
<pdfrwt beam="1">  1       21 0.35904147E-01 0.65103742E+03</pdfrwt>
<pdfrwt beam="2">0</pdfrwt>
<totfact> 0.70546777E+02</totfact>
</mgrwt>
</event>
<event>
 6    1  0.1364923E-004  0.6563653E+03  0.7818608E-02  0.9794908E-01
         21   -1    0    0  501  502  0.00000000000E+00  0.00000000000E+00  0.15686745742E+03  0.15686745742E+03  0.00000000000E+00 0.  1.
         13   -1    0    0    0    0 -0.00000000000E+00 -0.00000000000E+00 -0.10000000000E+04  0.10000000000E+04  0.00000000000E+00 0.  1.
    9000005    2    1    2  501    0 -0.40056770821E+02 -0.61796048562E+02 -0.85946786877E+03  0.10814344448E+04  0.65222093228E+03 0.  0.
         13    1    3    3    0    0 -0.10238115970E+03 -0.26656269351E+03 -0.81398004600E+03  0.86261294143E+03  0.00000000000E+00 0.  1.
          1    1    3    3  501    0  0.62324388882E+02  0.20476664494E+03 -0.45487822771E+02  0.21882150340E+03  0.00000000000E+00 0.  1.
         -3    1    1    2    0  502  0.40056770821E+02  0.61796048562E+02  0.16335326196E+02  0.75433012590E+02  0.00000000000E+00 0. -1.
<mgrwt>
<rscale>  1 0.65636533E+03</rscale>
<asrwt>0</asrwt>
<pdfrwt beam="1">  1       21 0.24133454E-01 0.65636533E+03</pdfrwt>
<pdfrwt beam="2">0</pdfrwt>
<totfact> 0.15597403E+03</totfact>
</mgrwt>
</event>
<event>
 6    1  0.1364923E-004  0.6473971E+03  0.7818608E-02  0.9811676E-01
         21   -1    0    0  501  502  0.00000000000E+00  0.00000000000E+00  0.14264795520E+03  0.14264795520E+03  0.00000000000E+00 0.  1.
         13   -1    0    0    0    0 -0.00000000000E+00 -0.00000000000E+00 -0.10000000000E+04  0.10000000000E+04  0.00000000000E+00 0.  1.
    9000005    2    1    2  501    0 -0.90284596693E+01  0.18993764120E+02 -0.89196590524E+03  0.11021461590E+04  0.64705540996E+03 0.  0.
         13    1    3    3    0    0  0.17800508509E+03  0.55152865514E+02  0.37560042064E+01  0.18639140661E+03  0.00000000000E+00 0.  1.
          3    1    3    3  501    0 -0.18703354476E+03 -0.36159101395E+02 -0.89572190945E+03  0.91575475240E+03  0.00000000000E+00 0.  1.
         -1    1    1    2    0  502  0.90284596693E+01 -0.18993764120E+02  0.34613860447E+02  0.40501796189E+02  0.00000000000E+00 0. -1.
<mgrwt>
<rscale>  1 0.64739708E+03</rscale>
<asrwt>0</asrwt>
<pdfrwt beam="1">  1       21 0.21945839E-01 0.64739708E+03</pdfrwt>
<pdfrwt beam="2">0</pdfrwt>
<totfact> 0.18769706E+03</totfact>
</mgrwt>
</event>
<event>
 6    1  0.1364923E-004  0.6462631E+03  0.7818608E-02  0.9813817E-01
         21   -1    0    0  501  502  0.00000000000E+00  0.00000000000E+00  0.24980787013E+03  0.24980787013E+03  0.00000000000E+00 0. -1.
         13   -1    0    0    0    0 -0.00000000000E+00 -0.00000000000E+00 -0.10000000000E+04  0.10000000000E+04  0.00000000000E+00 0.  1.
    9000005    2    1    2  501    0 -0.19026877935E+02 -0.80011339631E+02 -0.88261647347E+03  0.10939231585E+04  0.64100873692E+03 0.  0.
         13    1    3    3    0    0  0.39836355318E+02  0.21730562711E+03 -0.71333949703E+03  0.74676764043E+03  0.00000000000E+00 0.  1.
          1    1    3    3  501    0 -0.58863233254E+02 -0.29731696674E+03 -0.16927697645E+03  0.34715551803E+03  0.00000000000E+00 0.  1.
         -1    1    1    2    0  502  0.19026877935E+02  0.80011339631E+02  0.13242434360E+03  0.15588471167E+03  0.00000000000E+00 0. -1.
<mgrwt>
<rscale>  1 0.64626313E+03</rscale>
<asrwt>0</asrwt>
<pdfrwt beam="1">  1       21 0.38431979E-01 0.64626313E+03</pdfrwt>
<pdfrwt beam="2">0</pdfrwt>
<totfact> 0.61366853E+02</totfact>
</mgrwt>
</event>
<event>
 6    1  0.1364923E-004  0.6843982E+03  0.7818608E-02  0.9744292E-01
         21   -1    0    0  501  502  0.00000000000E+00  0.00000000000E+00  0.18739127587E+03  0.18739127587E+03  0.00000000000E+00 0.  1.
         13   -1    0    0    0    0 -0.00000000000E+00 -0.00000000000E+00 -0.10000000000E+04  0.10000000000E+04  0.00000000000E+00 0.  1.
    9000005    2    1    2  501    0  0.14121591449E+03 -0.97491197931E+02 -0.71592431074E+03  0.99042847743E+03  0.66253640052E+03 0.  0.
         13    1    3    3    0    0 -0.52869453709E+02  0.24685035617E+03 -0.13084637086E+03  0.28434319096E+03  0.00000000000E+00 0.  1.
          3    1    3    3  501    0  0.19408536820E+03 -0.34434155410E+03 -0.58507793988E+03  0.70608528647E+03  0.00000000000E+00 0.  1.
         -1    1    1    2    0  502 -0.14121591449E+03  0.97491197931E+02 -0.96684413385E+02  0.19696279844E+03  0.00000000000E+00 0. -1.
<mgrwt>
<rscale>  1 0.68439824E+03</rscale>
<asrwt>0</asrwt>
<pdfrwt beam="1">  1       21 0.28829426E-01 0.68439824E+03</pdfrwt>
<pdfrwt beam="2">0</pdfrwt>
<totfact> 0.10965303E+03</totfact>
</mgrwt>
</event>
<event>
 6    1  0.1364923E-004  0.6391287E+03  0.7818608E-02  0.9827395E-01
         21   -1    0    0  501  502  0.00000000000E+00  0.00000000000E+00  0.13757901497E+03  0.13757901497E+03  0.00000000000E+00 0.  1.
         13   -1    0    0    0    0 -0.00000000000E+00 -0.00000000000E+00 -0.10000000000E+04  0.10000000000E+04  0.00000000000E+00 0.  1.
    9000005    2    1    2  501    0  0.36735497194E+02  0.25279205433E+02 -0.88171293809E+03  0.10889918311E+04  0.63757114746E+03 0.  0.
         13    1    3    3    0    0  0.31808673400E+03  0.25781147581E+02 -0.65148276664E+03  0.72544719529E+03  0.00000000000E+00 0.  1.
          3    1    3    3  501    0 -0.28135123681E+03 -0.50194214823E+00 -0.23023017145E+03  0.36354463584E+03  0.00000000000E+00 0.  1.
         -1    1    1    2    0  502 -0.36735497194E+02 -0.25279205433E+02  0.19291953063E+02  0.48587183849E+02  0.00000000000E+00 0. -1.
<mgrwt>
<rscale>  1 0.63912871E+03</rscale>
<asrwt>0</asrwt>
<pdfrwt beam="1">  1       21 0.21166002E-01 0.63912871E+03</pdfrwt>
<pdfrwt beam="2">0</pdfrwt>
<totfact> 0.20135241E+03</totfact>
</mgrwt>
</event>
<event>
 6    1  0.1364923E-004  0.6427050E+03  0.7818608E-02  0.9820565E-01
         21   -1    0    0  501  502  0.00000000000E+00  0.00000000000E+00  0.12854497984E+03  0.12854497984E+03  0.00000000000E+00 0.  1.
         13   -1    0    0    0    0 -0.00000000000E+00 -0.00000000000E+00 -0.10000000000E+04  0.10000000000E+04  0.00000000000E+00 0.  1.
    9000005    2    1    2  501    0  0.71506996881E+02 -0.37437458708E+01 -0.81130142821E+03  0.10350264209E+04  0.63870370156E+03 0.  0.
         13    1    3    3    0    0  0.36401813232E+02 -0.31734141039E+03 -0.48806233400E+03  0.58329709808E+03  0.00000000000E+00 0.  1.
          3    1    3    3  501    0  0.35105183649E+02  0.31359766451E+03 -0.32323909421E+03  0.45172932286E+03  0.00000000000E+00 0.  1.
         -3    1    1    2    0  502 -0.71506996881E+02  0.37437458708E+01 -0.60153591941E+02  0.93518558904E+02  0.00000000000E+00 0. -1.
<mgrwt>
<rscale>  1 0.64270497E+03</rscale>
<asrwt>0</asrwt>
<pdfrwt beam="1">  1       21 0.19776150E-01 0.64270497E+03</pdfrwt>
<pdfrwt beam="2">0</pdfrwt>
<totfact> 0.22938414E+03</totfact>
</mgrwt>
</event>
<event>
 6    1  0.1364923E-004  0.8262480E+03  0.7818608E-02  0.9522783E-01
         21   -1    0    0  501  502  0.00000000000E+00  0.00000000000E+00  0.23548826005E+03  0.23548826005E+03  0.00000000000E+00 0. -1.
         13   -1    0    0    0    0 -0.00000000000E+00 -0.00000000000E+00 -0.10000000000E+04  0.10000000000E+04  0.00000000000E+00 0.  1.
    9000005    2    1    2  501    0 -0.83736774208E+02  0.10245408403E+03 -0.71982573427E+03  0.10958260755E+04  0.81558384814E+03 0.  0.
         13    1    3    3    0    0 -0.38849830659E+03 -0.16266265053E+03 -0.39607976053E+03  0.57816022761E+03  0.00000000000E+00 0.  1.
          3    1    3    3  501    0  0.30476153238E+03  0.26511673456E+03 -0.32374597375E+03  0.51766584789E+03  0.00000000000E+00 0.  1.
         -1    1    1    2    0  502  0.83736774208E+02 -0.10245408403E+03 -0.44686005675E+02  0.13966218454E+03  0.00000000000E+00 0. -1.
<mgrwt>
<rscale>  1 0.82624797E+03</rscale>
<asrwt>0</asrwt>
<pdfrwt beam="1">  1       21 0.36228962E-01 0.82624797E+03</pdfrwt>
<pdfrwt beam="2">0</pdfrwt>
<totfact> 0.68463528E+02</totfact>
</mgrwt>
</event>
<event>
 6    1  0.1364923E-004  0.6700418E+03  0.7818608E-02  0.9769882E-01
         21   -1    0    0  501  502  0.00000000000E+00  0.00000000000E+00  0.14436507731E+03  0.14436507731E+03  0.00000000000E+00 0.  1.
         13   -1    0    0    0    0 -0.00000000000E+00 -0.00000000000E+00 -0.10000000000E+04  0.10000000000E+04  0.00000000000E+00 0.  1.
    9000005    2    1    2  501    0 -0.50868355357E+02 -0.25686200545E+02 -0.85640330832E+03  0.10873741930E+04  0.66761413906E+03 0.  0.
         13    1    3    3    0    0 -0.29090944192E+03  0.18408708798E+03 -0.52260425987E+03  0.62580473935E+03  0.00000000000E+00 0.  1.
          3    1    3    3  501    0  0.24004108656E+03 -0.20977328852E+03 -0.33379904845E+03  0.46156945367E+03  0.00000000000E+00 0.  1.
         -3    1    1    2    0  502  0.50868355357E+02  0.25686200545E+02  0.76838562842E+00  0.56990884286E+02  0.00000000000E+00 0. -1.
<mgrwt>
<rscale>  1 0.67004180E+03</rscale>
<asrwt>0</asrwt>
<pdfrwt beam="1">  1       21 0.22210011E-01 0.67004180E+03</pdfrwt>
<pdfrwt beam="2">0</pdfrwt>
<totfact> 0.18321432E+03</totfact>
</mgrwt>
</event>
<event>
 6    1  0.1364923E-004  0.6323092E+03  0.7818608E-02  0.9840553E-01
         21   -1    0    0  501  502  0.00000000000E+00  0.00000000000E+00  0.21925764346E+03  0.21925764346E+03  0.00000000000E+00 0. -1.
         13   -1    0    0    0    0 -0.00000000000E+00 -0.00000000000E+00 -0.10000000000E+04  0.10000000000E+04  0.00000000000E+00 0.  1.
    9000005    2    1    2  501    0  0.32235808471E+02 -0.31056880312E+02 -0.89540968388E+03  0.10961630736E+04  0.63072284313E+03 0.  0.
         13    1    3    3    0    0 -0.25049913821E+03 -0.11995466713E+03 -0.66528094415E+03  0.72092834253E+03  0.00000000000E+00 0.  1.
          1    1    3    3  501    0  0.28273494668E+03  0.88897786822E+02 -0.23012873973E+03  0.37523473110E+03  0.00000000000E+00 0.  1.
         -3    1    1    2    0  502 -0.32235808471E+02  0.31056880312E+02  0.11466732734E+03  0.12309456983E+03  0.00000000000E+00 0. -1.
<mgrwt>
<rscale>  1 0.63230925E+03</rscale>
<asrwt>0</asrwt>
<pdfrwt beam="1">  1       21 0.33731944E-01 0.63230925E+03</pdfrwt>
<pdfrwt beam="2">0</pdfrwt>
<totfact> 0.80220074E+02</totfact>
</mgrwt>
</event>
<event>
 6    1  0.1364923E-004  0.6128481E+03  0.7818608E-02  0.9879103E-01
         21   -1    0    0  501  502  0.00000000000E+00  0.00000000000E+00  0.18145628260E+03  0.18145628260E+03  0.00000000000E+00 0. -1.
         13   -1    0    0    0    0 -0.00000000000E+00 -0.00000000000E+00 -0.10000000000E+04  0.10000000000E+04  0.00000000000E+00 0.  1.
    9000005    2    1    2  501    0 -0.17738388862E+02 -0.39074225255E+02 -0.90031737750E+03  0.10891070703E+04  0.61134391705E+03 0.  0.
         13    1    3    3    0    0 -0.25181742966E+03  0.14889088428E+03 -0.58302380220E+03  0.65230151558E+03  0.00000000000E+00 0.  1.
          3    1    3    3  501    0  0.23407904079E+03 -0.18796510953E+03 -0.31729357530E+03  0.43680555476E+03  0.00000000000E+00 0.  1.
         -3    1    1    2    0  502  0.17738388862E+02  0.39074225255E+02  0.81773660096E+02  0.92349212255E+02  0.00000000000E+00 0. -1.
<mgrwt>
<rscale>  1 0.61284813E+03</rscale>
<asrwt>0</asrwt>
<pdfrwt beam="1">  1       21 0.27916350E-01 0.61284813E+03</pdfrwt>
<pdfrwt beam="2">0</pdfrwt>
<totfact> 0.11740303E+03</totfact>
</mgrwt>
</event>
<event>
 6    1  0.1364923E-004  0.6627503E+03  0.7818608E-02  0.9783144E-01
         21   -1    0    0  501  502  0.00000000000E+00  0.00000000000E+00  0.17313089686E+03  0.17313089686E+03  0.00000000000E+00 0. -1.
         13   -1    0    0    0    0 -0.00000000000E+00 -0.00000000000E+00 -0.10000000000E+04  0.10000000000E+04  0.00000000000E+00 0.  1.
    9000005    2    1    2  501    0 -0.29043336338E+02  0.11997544620E+02 -0.88583235127E+03  0.11063168183E+04  0.66200490289E+03 0.  0.
         13    1    3    3    0    0 -0.77256092742E+02 -0.29181673627E+03 -0.65664750840E+03  0.72271118832E+03  0.00000000000E+00 0.  1.
          1    1    3    3  501    0  0.48212756404E+02  0.30381428089E+03 -0.22918484287E+03  0.38360562998E+03  0.00000000000E+00 0.  1.
         -3    1    1    2    0  502  0.29043336338E+02 -0.11997544620E+02  0.58963248136E+02  0.66814078556E+02  0.00000000000E+00 0. -1.
<mgrwt>
<rscale>  1 0.66275029E+03</rscale>
<asrwt>0</asrwt>
<pdfrwt beam="1">  1       21 0.26635522E-01 0.66275029E+03</pdfrwt>
<pdfrwt beam="2">0</pdfrwt>
<totfact> 0.12846326E+03</totfact>
</mgrwt>
</event>
<event>
 6    1  0.1364923E-004  0.6381112E+03  0.7818608E-02  0.9829347E-01
         21   -1    0    0  501  502  0.00000000000E+00  0.00000000000E+00  0.18442143874E+03  0.18442143874E+03  0.00000000000E+00 0.  1.
         13   -1    0    0    0    0 -0.00000000000E+00 -0.00000000000E+00 -0.10000000000E+04  0.10000000000E+04  0.00000000000E+00 0.  1.
    9000005    2    1    2  501    0  0.14311584572E+02  0.40807204235E+02 -0.89192162012E+03  0.10966814136E+04  0.63664424696E+03 0.  0.
         13    1    3    3    0    0 -0.12999212223E+03 -0.22675999732E+02 -0.92602926012E+03  0.93538352744E+03  0.00000000000E+00 0.  1.
          1    1    3    3  501    0  0.14430370681E+03  0.63483203967E+02  0.34107639997E+02  0.16129788619E+03  0.00000000000E+00 0.  1.
         -1    1    1    2    0  502 -0.14311584572E+02 -0.40807204235E+02  0.76343058858E+02  0.87740025110E+02  0.00000000000E+00 0. -1.
<mgrwt>
<rscale>  1 0.63811123E+03</rscale>
<asrwt>0</asrwt>
<pdfrwt beam="1">  1       21 0.28372528E-01 0.63811123E+03</pdfrwt>
<pdfrwt beam="2">0</pdfrwt>
<totfact> 0.11350811E+03</totfact>
</mgrwt>
</event>
<event>
 6    1  0.1364923E-004  0.6729684E+03  0.7818608E-02  0.9764610E-01
         21   -1    0    0  501  502  0.00000000000E+00  0.00000000000E+00  0.14046832461E+03  0.14046832461E+03  0.00000000000E+00 0. -1.
         13   -1    0    0    0    0 -0.00000000000E+00 -0.00000000000E+00 -0.10000000000E+04  0.10000000000E+04  0.00000000000E+00 0.  1.
    9000005    2    1    2  501    0  0.16039002971E+02 -0.15483265004E+02 -0.88159911260E+03  0.11091003011E+04  0.67259906447E+03 0.  0.
         13    1    3    3    0    0  0.17776439600E+03  0.66165136895E+02  0.18844296753E+02  0.19061246902E+03  0.00000000000E+00 0.  1.
          3    1    3    3  501    0 -0.16172539303E+03 -0.81648401900E+02 -0.90044340936E+03  0.91848783211E+03  0.00000000000E+00 0.  1.
         -1    1    1    2    0  502 -0.16039002971E+02  0.15483265004E+02  0.22067437210E+02  0.31368023472E+02  0.00000000000E+00 0. -1.
<mgrwt>
<rscale>  1 0.67296841E+03</rscale>
<asrwt>0</asrwt>
<pdfrwt beam="1">  1       21 0.21610511E-01 0.67296841E+03</pdfrwt>
<pdfrwt beam="2">0</pdfrwt>
<totfact> 0.19315555E+03</totfact>
</mgrwt>
</event>
<event>
 6    1  0.1364923E-004  0.6529128E+03  0.7818608E-02  0.9801329E-01
         21   -1    0    0  501  502  0.00000000000E+00  0.00000000000E+00  0.11826150031E+03  0.11826150031E+03  0.00000000000E+00 0.  1.
         13   -1    0    0    0    0 -0.00000000000E+00 -0.00000000000E+00 -0.10000000000E+04  0.10000000000E+04  0.00000000000E+00 0.  1.
    9000005    2    1    2  501    0 -0.15297769479E+02 -0.30044751806E+02 -0.85121076086E+03  0.10727790674E+04  0.65204176190E+03 0.  0.
         13    1    3    3    0    0 -0.32660810506E+03  0.40138322082E+01 -0.54114172635E+03  0.63207858146E+03  0.00000000000E+00 0.  1.
          1    1    3    3  501    0  0.31131033558E+03 -0.34058584014E+02 -0.31006903451E+03  0.44070048598E+03  0.00000000000E+00 0.  1.
         -3    1    1    2    0  502  0.15297769479E+02  0.30044751806E+02 -0.30527738828E+02  0.45482432873E+02  0.00000000000E+00 0. -1.
<mgrwt>
<rscale>  1 0.65291283E+03</rscale>
<asrwt>0</asrwt>
<pdfrwt beam="1">  1       21 0.18194076E-01 0.65291283E+03</pdfrwt>
<pdfrwt beam="2">0</pdfrwt>
<totfact> 0.26882900E+03</totfact>
</mgrwt>
</event>
<event>
 6    1  0.1364923E-004  0.6548810E+03  0.7818608E-02  0.9797663E-01
         21   -1    0    0  501  502  0.00000000000E+00  0.00000000000E+00  0.37793439701E+03  0.37793439701E+03  0.00000000000E+00 0. -1.
         13   -1    0    0    0    0 -0.00000000000E+00 -0.00000000000E+00 -0.10000000000E+04  0.10000000000E+04  0.00000000000E+00 0.  1.
    9000005    2    1    2  501    0  0.95465667427E+02 -0.97266145079E+02 -0.87362496909E+03  0.10918286276E+04  0.64054255809E+03 0.  0.
         13    1    3    3    0    0 -0.73087474057E+02  0.16457895524E+03 -0.72452702860E+03  0.74657044312E+03  0.00000000000E+00 0.  1.
          1    1    3    3  501    0  0.16855314148E+03 -0.26184510032E+03 -0.14909794049E+03  0.34525818444E+03  0.00000000000E+00 0.  1.
         -3    1    1    2    0  502 -0.95465667427E+02  0.97266145079E+02  0.25155936610E+03  0.28610576944E+03  0.00000000000E+00 0. -1.
<mgrwt>
<rscale>  1 0.65488103E+03</rscale>
<asrwt>0</asrwt>
<pdfrwt beam="1">  1       21 0.58143752E-01 0.65488103E+03</pdfrwt>
<pdfrwt beam="2">0</pdfrwt>
<totfact> 0.25411550E+02</totfact>
</mgrwt>
</event>
<event>
 6    1  0.1364923E-004  0.6564834E+03  0.7818608E-02  0.9794689E-01
         21   -1    0    0  501  502  0.00000000000E+00  0.00000000000E+00  0.87844193669E+03  0.87844193669E+03  0.00000000000E+00 0. -1.
         13   -1    0    0    0    0 -0.00000000000E+00 -0.00000000000E+00 -0.10000000000E+04  0.10000000000E+04  0.00000000000E+00 0.  1.
    9000005    2    1    2  501    0 -0.59925710697E+02 -0.10726837158E+02 -0.89092528122E+03  0.11066699031E+04  0.65365454321E+03 0.  0.
         13    1    3    3    0    0  0.99514278596E+02 -0.14162742289E+03  0.18556737855E+02  0.17408552806E+03  0.00000000000E+00 0.  1.
          3    1    3    3  501    0 -0.15943998929E+03  0.13090058574E+03 -0.90948201908E+03  0.93258437504E+03  0.00000000000E+00 0.  1.
         -3    1    1    2    0  502  0.59925710697E+02  0.10726837158E+02  0.76936721791E+03  0.77177203359E+03  0.00000000000E+00 0. -1.
<mgrwt>
<rscale>  1 0.65648337E+03</rscale>
<asrwt>0</asrwt>
<pdfrwt beam="1">  1       21 0.13514491E+00 0.65648337E+03</pdfrwt>
<pdfrwt beam="2">0</pdfrwt>
<totfact> 0.33634285E+01</totfact>
</mgrwt>
</event>
<event>
 6    1  0.1364923E-004  0.6699771E+03  0.7818608E-02  0.9769999E-01
         21   -1    0    0  501  502  0.00000000000E+00  0.00000000000E+00  0.19593523982E+03  0.19593523982E+03  0.00000000000E+00 0. -1.
         13   -1    0    0    0    0 -0.00000000000E+00 -0.00000000000E+00 -0.10000000000E+04  0.10000000000E+04  0.00000000000E+00 0.  1.
    9000005    2    1    2  501    0 -0.29422623956E+02 -0.15271752789E+03 -0.79568376787E+03  0.10401835941E+04  0.65167546890E+03 0.  0.
         13    1    3    3    0    0  0.27947052102E+03 -0.38666887709E+02 -0.16015895218E+03  0.32442224074E+03  0.00000000000E+00 0.  1.
          1    1    3    3  501    0 -0.30889314498E+03 -0.11405064018E+03 -0.63552481569E+03  0.71576135332E+03  0.00000000000E+00 0.  1.
         -3    1    1    2    0  502  0.29422623956E+02  0.15271752789E+03 -0.83809923070E+01  0.15575164576E+03  0.00000000000E+00 0. -1.
<mgrwt>
<rscale>  1 0.66997705E+03</rscale>
<asrwt>0</asrwt>
<pdfrwt beam="1">  1       21 0.30143882E-01 0.66997705E+03</pdfrwt>
<pdfrwt beam="2">0</pdfrwt>
<totfact> 0.10038674E+03</totfact>
</mgrwt>
</event>
<event>
 6    1  0.1364923E-004  0.7684434E+03  0.7818608E-02  0.9606852E-01
         21   -1    0    0  501  502  0.00000000000E+00  0.00000000000E+00  0.29188731209E+03  0.29188731209E+03  0.00000000000E+00 0.  1.
         13   -1    0    0    0    0 -0.00000000000E+00 -0.00000000000E+00 -0.10000000000E+04  0.10000000000E+04  0.00000000000E+00 0.  1.
    9000005    2    1    2  501    0  0.28366901724E+03 -0.48065705428E+02 -0.63020702265E+03  0.99381397201E+03  0.71254957455E+03 0.  0.
         13    1    3    3    0    0  0.45587605753E+03  0.16688363819E+03 -0.33351171078E+03  0.58898488075E+03  0.00000000000E+00 0.  1.
          1    1    3    3  501    0 -0.17220704029E+03 -0.21494934362E+03 -0.29669531187E+03  0.40482909126E+03  0.00000000000E+00 0.  1.
         -3    1    1    2    0  502 -0.28366901724E+03  0.48065705428E+02 -0.77905665260E+02  0.29807334007E+03  0.00000000000E+00 0. -1.
<mgrwt>
<rscale>  1 0.76844344E+03</rscale>
<asrwt>0</asrwt>
<pdfrwt beam="1">  1       21 0.44905739E-01 0.76844344E+03</pdfrwt>
<pdfrwt beam="2">0</pdfrwt>
<totfact> 0.43905295E+02</totfact>
</mgrwt>
</event>
<event>
 6    1  0.1364923E-004  0.6512636E+03  0.7818608E-02  0.9804411E-01
         21   -1    0    0  501  502  0.00000000000E+00  0.00000000000E+00  0.13525639674E+03  0.13525639674E+03  0.00000000000E+00 0.  1.
         13   -1    0    0    0    0 -0.00000000000E+00 -0.00000000000E+00 -0.10000000000E+04  0.10000000000E+04  0.00000000000E+00 0.  1.
    9000005    2    1    2  501    0 -0.37962476213E+02 -0.78091818978E+00 -0.87962056771E+03  0.10944754759E+04  0.65015572348E+03 0.  0.
         13    1    3    3    0    0 -0.73063225419E+02 -0.28042207024E+03 -0.70673577566E+03  0.76383913816E+03  0.00000000000E+00 0.  1.
          1    1    3    3  501    0  0.35100749207E+02  0.27964115205E+03 -0.17288479205E+03  0.33063633774E+03  0.00000000000E+00 0.  1.
         -1    1    1    2    0  502  0.37962476213E+02  0.78091818978E+00  0.14876964443E+02  0.40780920839E+02  0.00000000000E+00 0. -1.
<mgrwt>
<rscale>  1 0.65126356E+03</rscale>
<asrwt>0</asrwt>
<pdfrwt beam="1">  1       21 0.20808676E-01 0.65126356E+03</pdfrwt>
<pdfrwt beam="2">0</pdfrwt>
<totfact> 0.20795844E+03</totfact>
</mgrwt>
</event>
<event>
 6    1  0.1364923E-004  0.6757323E+03  0.7818608E-02  0.9759658E-01
         21   -1    0    0  501  502  0.00000000000E+00  0.00000000000E+00  0.18011118385E+03  0.18011118385E+03  0.00000000000E+00 0.  1.
         13   -1    0    0    0    0 -0.00000000000E+00 -0.00000000000E+00 -0.10000000000E+04  0.10000000000E+04  0.00000000000E+00 0.  1.
    9000005    2    1    2  501    0  0.60785536935E+02 -0.15686985288E+03 -0.70400804061E+03  0.97582856985E+03  0.65445476869E+03 0.  0.
         13    1    3    3    0    0  0.17358230540E+03  0.81559171193E+02  0.31588669022E+02  0.19437221809E+03  0.00000000000E+00 0.  1.
          3    1    3    3  501    0 -0.11279676846E+03 -0.23842902408E+03 -0.73559670963E+03  0.78145635177E+03  0.00000000000E+00 0.  1.
         -3    1    1    2    0  502 -0.60785536935E+02  0.15686985288E+03 -0.11588077554E+03  0.20428261400E+03  0.00000000000E+00 0. -1.
<mgrwt>
<rscale>  1 0.67573225E+03</rscale>
<asrwt>0</asrwt>
<pdfrwt beam="1">  1       21 0.27709412E-01 0.67573225E+03</pdfrwt>
<pdfrwt beam="2">0</pdfrwt>
<totfact> 0.11870860E+03</totfact>
</mgrwt>
</event>
<event>
 6    1  0.1364923E-004  0.4968652E+03  0.7818608E-02  0.1014600E+00
         21   -1    0    0  501  502  0.00000000000E+00  0.00000000000E+00  0.67670694566E+02  0.67670694566E+02  0.00000000000E+00 0.  1.
         13   -1    0    0    0    0 -0.00000000000E+00 -0.00000000000E+00 -0.10000000000E+04  0.10000000000E+04  0.00000000000E+00 0.  1.
    9000005    2    1    2  501    0 -0.18020458758E+02  0.13282066136E+02 -0.90417309029E+03  0.10316995580E+04  0.49636060536E+03 0.  0.
         13    1    3    3    0    0  0.10505983694E+03 -0.90177427395E+02 -0.28461245299E+02  0.14134914302E+03  0.00000000000E+00 0.  1.
          1    1    3    3  501    0 -0.12308029570E+03  0.10345949353E+03 -0.87571184499E+03  0.89035041498E+03  0.00000000000E+00 0.  1.
         -1    1    1    2    0  502  0.18020458758E+02 -0.13282066136E+02 -0.28156215141E+02  0.35971136565E+02  0.00000000000E+00 0. -1.
<mgrwt>
<rscale>  1 0.49686517E+03</rscale>
<asrwt>0</asrwt>
<pdfrwt beam="1">  1       21 0.10410876E-01 0.49686517E+03</pdfrwt>
<pdfrwt beam="2">0</pdfrwt>
<totfact> 0.75812190E+03</totfact>
</mgrwt>
</event>
<event>
 6    1  0.1364923E-004  0.6500839E+03  0.7818608E-02  0.9806622E-01
         21   -1    0    0  501  502  0.00000000000E+00  0.00000000000E+00  0.35119624177E+03  0.35119624177E+03  0.00000000000E+00 0. -1.
         13   -1    0    0    0    0 -0.00000000000E+00 -0.00000000000E+00 -0.10000000000E+04  0.10000000000E+04  0.00000000000E+00 0.  1.
    9000005    2    1    2  501    0 -0.42167075905E+01  0.26624451212E+02 -0.89352941592E+03  0.11049904548E+04  0.64952478471E+03 0.  0.
         13    1    3    3    0    0 -0.17366113278E+03 -0.19538698596E+03 -0.74316493373E+03  0.78779970935E+03  0.00000000000E+00 0.  1.
          1    1    3    3  501    0  0.16944442519E+03  0.22201143718E+03 -0.15036448219E+03  0.31719074541E+03  0.00000000000E+00 0.  1.
         -1    1    1    2    0  502  0.42167075905E+01 -0.26624451212E+02  0.24472565769E+03  0.24620578701E+03  0.00000000000E+00 0. -1.
<mgrwt>
<rscale>  1 0.65008391E+03</rscale>
<asrwt>0</asrwt>
<pdfrwt beam="1">  1       21 0.54030189E-01 0.65008391E+03</pdfrwt>
<pdfrwt beam="2">0</pdfrwt>
<totfact> 0.29841035E+02</totfact>
</mgrwt>
</event>
<event>
 6    1  0.1364923E-004  0.7155600E+03  0.7818608E-02  0.9690986E-01
         21   -1    0    0  501  502  0.00000000000E+00  0.00000000000E+00  0.21797350976E+03  0.21797350976E+03  0.00000000000E+00 0.  1.
         13   -1    0    0    0    0 -0.00000000000E+00 -0.00000000000E+00 -0.10000000000E+04  0.10000000000E+04  0.00000000000E+00 0.  1.
    9000005    2    1    2  501    0  0.85832794041E+02 -0.19157431692E+03 -0.66885938172E+03  0.97948916670E+03  0.68407467994E+03 0.  0.
         13    1    3    3    0    0  0.18095380791E+03 -0.42135356402E+03 -0.36025794383E+03  0.58315426142E+03  0.00000000000E+00 0.  1.
          1    1    3    3  501    0 -0.95121013870E+02  0.22977924711E+03 -0.30860143789E+03  0.39633490529E+03  0.00000000000E+00 0.  1.
         -1    1    1    2    0  502 -0.85832794041E+02  0.19157431692E+03 -0.11316710851E+03  0.23848434306E+03  0.00000000000E+00 0. -1.
<mgrwt>
<rscale>  1 0.71556003E+03</rscale>
<asrwt>0</asrwt>
<pdfrwt beam="1">  1       21 0.33534385E-01 0.71556003E+03</pdfrwt>
<pdfrwt beam="2">0</pdfrwt>
<totfact> 0.80726573E+02</totfact>
</mgrwt>
</event>
<event>
 6    1  0.1364923E-004  0.6421233E+03  0.7818608E-02  0.9821673E-01
         21   -1    0    0  501  502  0.00000000000E+00  0.00000000000E+00  0.16257346662E+03  0.16257346662E+03  0.00000000000E+00 0.  1.
         13   -1    0    0    0    0 -0.00000000000E+00 -0.00000000000E+00 -0.10000000000E+04  0.10000000000E+04  0.00000000000E+00 0.  1.
    9000005    2    1    2  501    0  0.43975843643E+02  0.57700178413E+02 -0.87142630761E+03  0.10824537433E+04  0.63801184270E+03 0.  0.
         13    1    3    3    0    0  0.27304463828E+03  0.18165760070E+03 -0.69317593349E+03  0.76684140026E+03  0.00000000000E+00 0.  1.
          1    1    3    3  501    0 -0.22906879464E+03 -0.12395742228E+03 -0.17825037412E+03  0.31561234306E+03  0.00000000000E+00 0.  1.
         -1    1    1    2    0  502 -0.43975843643E+02 -0.57700178413E+02  0.33999774231E+02  0.80119723294E+02  0.00000000000E+00 0. -1.
<mgrwt>
<rscale>  1 0.64212327E+03</rscale>
<asrwt>0</asrwt>
<pdfrwt beam="1">  1       21 0.25011302E-01 0.64212327E+03</pdfrwt>
<pdfrwt beam="2">0</pdfrwt>
<totfact> 0.14554842E+03</totfact>
</mgrwt>
</event>
<event>
 6    1  0.1364923E-004  0.6592571E+03  0.7818608E-02  0.9789562E-01
         21   -1    0    0  501  502  0.00000000000E+00  0.00000000000E+00  0.12436942149E+03  0.12436942149E+03  0.00000000000E+00 0.  1.
         13   -1    0    0    0    0 -0.00000000000E+00 -0.00000000000E+00 -0.10000000000E+04  0.10000000000E+04  0.00000000000E+00 0.  1.
    9000005    2    1    2  501    0 -0.57038841316E+01 -0.22331716382E+02 -0.88133715431E+03  0.11006248461E+04  0.65885402977E+03 0.  0.
         13    1    3    3    0    0  0.14183982099E+03 -0.30710745139E+03 -0.46751356234E+03  0.57706364682E+03  0.00000000000E+00 0.  1.
          3    1    3    3  501    0 -0.14754370512E+03  0.28477573500E+03 -0.41382359197E+03  0.52356119932E+03  0.00000000000E+00 0.  1.
         -1    1    1    2    0  502  0.57038841316E+01  0.22331716382E+02  0.57065757933E+01  0.23744575339E+02  0.00000000000E+00 0. -1.
<mgrwt>
<rscale>  1 0.65925706E+03</rscale>
<asrwt>0</asrwt>
<pdfrwt beam="1">  1       21 0.19133757E-01 0.65925706E+03</pdfrwt>
<pdfrwt beam="2">0</pdfrwt>
<totfact> 0.24418782E+03</totfact>
</mgrwt>
</event>
<event>
 6    1  0.1364923E-004  0.6470021E+03  0.7818608E-02  0.9812421E-01
         21   -1    0    0  501  502  0.00000000000E+00  0.00000000000E+00  0.12332819153E+03  0.12332819153E+03  0.00000000000E+00 0.  1.
         13   -1    0    0    0    0 -0.00000000000E+00 -0.00000000000E+00 -0.10000000000E+04  0.10000000000E+04  0.00000000000E+00 0.  1.
    9000005    2    1    2  501    0 -0.22354035639E+02 -0.12626067391E+02 -0.88504899343E+03  0.10963226789E+04  0.64649251730E+03 0.  0.
         13    1    3    3    0    0 -0.84050676991E+02  0.18159463603E+03 -0.12719826111E+02  0.20050666352E+03  0.00000000000E+00 0.  1.
          1    1    3    3  501    0  0.61696641353E+02 -0.19422070342E+03 -0.87232916732E+03  0.89581601534E+03  0.00000000000E+00 0.  1.
         -1    1    1    2    0  502  0.22354035639E+02  0.12626067391E+02  0.83771849592E+01  0.27005512677E+02  0.00000000000E+00 0. -1.
<mgrwt>
<rscale>  1 0.64700208E+03</rscale>
<asrwt>0</asrwt>
<pdfrwt beam="1">  1       21 0.18973567E-01 0.64700208E+03</pdfrwt>
<pdfrwt beam="2">0</pdfrwt>
<totfact> 0.24824915E+03</totfact>
</mgrwt>
</event>
<event>
 6    1  0.1364923E-004  0.6475505E+03  0.7818608E-02  0.9811386E-01
         21   -1    0    0  501  502  0.00000000000E+00  0.00000000000E+00  0.19224691796E+03  0.19224691796E+03  0.00000000000E+00 0.  1.
         13   -1    0    0    0    0 -0.00000000000E+00 -0.00000000000E+00 -0.10000000000E+04  0.10000000000E+04  0.00000000000E+00 0.  1.
    9000005    2    1    2  501    0 -0.31738741942E+02  0.11924260694E+02 -0.89152179747E+03  0.11018769372E+04  0.64666230265E+03 0.  0.
         13    1    3    3    0    0  0.13716578435E+03  0.79149123134E+02 -0.90578761067E+03  0.91952717836E+03  0.00000000000E+00 0.  1.
          1    1    3    3  501    0 -0.16890452629E+03 -0.67224862440E+02  0.14265813200E+02  0.18234975886E+03  0.00000000000E+00 0.  1.
         -3    1    1    2    0  502  0.31738741942E+02 -0.11924260694E+02  0.83768715432E+02  0.90369980736E+02  0.00000000000E+00 0. -1.
<mgrwt>
<rscale>  1 0.64755051E+03</rscale>
<asrwt>0</asrwt>
<pdfrwt beam="1">  1       21 0.29576448E-01 0.64755051E+03</pdfrwt>
<pdfrwt beam="2">0</pdfrwt>
<totfact> 0.10442308E+03</totfact>
</mgrwt>
</event>
<event>
 6    1  0.1364923E-004  0.6569745E+03  0.7818608E-02  0.9793779E-01
         21   -1    0    0  501  502  0.00000000000E+00  0.00000000000E+00  0.33046997560E+03  0.33046997560E+03  0.00000000000E+00 0. -1.
         13   -1    0    0    0    0 -0.00000000000E+00 -0.00000000000E+00 -0.10000000000E+04  0.10000000000E+04  0.00000000000E+00 0.  1.
    9000005    2    1    2  501    0  0.24514209272E+02  0.20962212308E+02 -0.89080055090E+03  0.11068609268E+04  0.65618223768E+03 0.  0.
         13    1    3    3    0    0 -0.31120209907E+02  0.33224746570E+03 -0.53798532363E+03  0.63307586778E+03  0.00000000000E+00 0.  1.
          3    1    3    3  501    0  0.55634419179E+02 -0.31128525339E+03 -0.35281522727E+03  0.47378505904E+03  0.00000000000E+00 0.  1.
         -1    1    1    2    0  502 -0.24514209272E+02 -0.20962212308E+02  0.22127052649E+03  0.22360904878E+03  0.00000000000E+00 0. -1.
<mgrwt>
<rscale>  1 0.65697450E+03</rscale>
<asrwt>0</asrwt>
<pdfrwt beam="1">  1       21 0.50841533E-01 0.65697450E+03</pdfrwt>
<pdfrwt beam="2">0</pdfrwt>
<totfact> 0.34007319E+02</totfact>
</mgrwt>
</event>
<event>
 6    1  0.1364923E-004  0.6567565E+03  0.7818608E-02  0.9794183E-01
         21   -1    0    0  501  502  0.00000000000E+00  0.00000000000E+00  0.40199568581E+03  0.40199568581E+03  0.00000000000E+00 0. -1.
         13   -1    0    0    0    0 -0.00000000000E+00 -0.00000000000E+00 -0.10000000000E+04  0.10000000000E+04  0.00000000000E+00 0.  1.
    9000005    2    1    2  501    0  0.83897394560E+02 -0.84552927851E+02 -0.87873328089E+03  0.10970420448E+04  0.64586461328E+03 0.  0.
         13    1    3    3    0    0  0.25015727344E+03  0.16893428459E+03 -0.65199546864E+03  0.71848141597E+03  0.00000000000E+00 0.  1.
          3    1    3    3  501    0 -0.16625987888E+03 -0.25348721244E+03 -0.22673781225E+03  0.37856062883E+03  0.00000000000E+00 0.  1.
         -3    1    1    2    0  502 -0.83897394560E+02  0.84552927851E+02  0.28072896670E+03  0.30495364101E+03  0.00000000000E+00 0. -1.
<mgrwt>
<rscale>  1 0.65675648E+03</rscale>
<asrwt>0</asrwt>
<pdfrwt beam="1">  1       21 0.61845488E-01 0.65675648E+03</pdfrwt>
<pdfrwt beam="2">0</pdfrwt>
<totfact> 0.22167132E+02</totfact>
</mgrwt>
</event>
<event>
 6    1  0.1364923E-004  0.6681051E+03  0.7818608E-02  0.9773387E-01
         21   -1    0    0  501  502  0.00000000000E+00  0.00000000000E+00  0.59900003405E+03  0.59900003405E+03  0.00000000000E+00 0. -1.
         13   -1    0    0    0    0 -0.00000000000E+00 -0.00000000000E+00 -0.10000000000E+04  0.10000000000E+04  0.00000000000E+00 0.  1.
    9000005    2    1    2  501    0 -0.54916808854E+02  0.99129432264E+02 -0.88107065749E+03  0.11057350250E+04  0.65842383149E+03 0.  0.
         13    1    3    3    0    0  0.21475905696E+03 -0.55400120360E+02 -0.62930262172E+02  0.23054466764E+03  0.00000000000E+00 0.  1.
          1    1    3    3  501    0 -0.26967586581E+03  0.15452955262E+03 -0.81814039532E+03  0.87519035740E+03  0.00000000000E+00 0.  1.
         -3    1    1    2    0  502  0.54916808854E+02 -0.99129432264E+02  0.48007069154E+03  0.49326500901E+03  0.00000000000E+00 0. -1.
<mgrwt>
<rscale>  1 0.66810511E+03</rscale>
<asrwt>0</asrwt>
<pdfrwt beam="1">  1       21 0.92153849E-01 0.66810511E+03</pdfrwt>
<pdfrwt beam="2">0</pdfrwt>
<totfact> 0.88195371E+01</totfact>
</mgrwt>
</event>
<event>
 6    1  0.1364923E-004  0.6481177E+03  0.7818608E-02  0.9810318E-01
         21   -1    0    0  501  502  0.00000000000E+00  0.00000000000E+00  0.12281568029E+03  0.12281568029E+03  0.00000000000E+00 0.  1.
         13   -1    0    0    0    0 -0.00000000000E+00 -0.00000000000E+00 -0.10000000000E+04  0.10000000000E+04  0.00000000000E+00 0.  1.
    9000005    2    1    2  501    0 -0.13602107846E+02  0.38159420647E+02 -0.86428853453E+03  0.10803014474E+04  0.64685035955E+03 0.  0.
         13    1    3    3    0    0  0.50001143597E+02 -0.27286879856E+03 -0.62161888525E+03  0.68071105036E+03  0.00000000000E+00 0.  1.
          1    1    3    3  501    0 -0.63603251443E+02  0.31102821920E+03 -0.24266964928E+03  0.39959039705E+03  0.00000000000E+00 0.  1.
         -3    1    1    2    0  502  0.13602107846E+02 -0.38159420647E+02 -0.12895785181E+02  0.42514232880E+02  0.00000000000E+00 0. -1.
<mgrwt>
<rscale>  1 0.64811769E+03</rscale>
<asrwt>0</asrwt>
<pdfrwt beam="1">  1       21 0.18894720E-01 0.64811769E+03</pdfrwt>
<pdfrwt beam="2">0</pdfrwt>
<totfact> 0.25021905E+03</totfact>
</mgrwt>
</event>
<event>
 6    1  0.1364923E-004  0.6703336E+03  0.7818608E-02  0.9769355E-01
         21   -1    0    0  501  502  0.00000000000E+00  0.00000000000E+00  0.19667922092E+03  0.19667922092E+03  0.00000000000E+00 0.  1.
         13   -1    0    0    0    0 -0.00000000000E+00 -0.00000000000E+00 -0.10000000000E+04  0.10000000000E+04  0.00000000000E+00 0.  1.
    9000005    2    1    2  501    0 -0.80504753469E+02  0.28827597008E+02 -0.86274007585E+03  0.10925509418E+04  0.66485718490E+03 0.  0.
         13    1    3    3    0    0 -0.12018212718E+03 -0.12968958028E+03  0.34843430178E+02  0.18021430451E+03  0.00000000000E+00 0.  1.
          3    1    3    3  501    0  0.39677373707E+02  0.15851717728E+03 -0.89758350602E+03  0.91233663730E+03  0.00000000000E+00 0.  1.
         -3    1    1    2    0  502  0.80504753469E+02 -0.28827597008E+02  0.59419296762E+02  0.10412827910E+03  0.00000000000E+00 0. -1.
<mgrwt>
<rscale>  1 0.67033359E+03</rscale>
<asrwt>0</asrwt>
<pdfrwt beam="1">  1       21 0.30258341E-01 0.67033359E+03</pdfrwt>
<pdfrwt beam="2">0</pdfrwt>
<totfact> 0.99624762E+02</totfact>
</mgrwt>
</event>
<event>
 6    1  0.1364923E-004  0.6657789E+03  0.7818608E-02  0.9777614E-01
         21   -1    0    0  501  502  0.00000000000E+00  0.00000000000E+00  0.14215117858E+03  0.14215117858E+03  0.00000000000E+00 0.  1.
         13   -1    0    0    0    0 -0.00000000000E+00 -0.00000000000E+00 -0.10000000000E+04  0.10000000000E+04  0.00000000000E+00 0.  1.
    9000005    2    1    2  501    0  0.19075437042E+02 -0.81283732562E+02 -0.79886259489E+03  0.10399245069E+04  0.66052298756E+03 0.  0.
         13    1    3    3    0    0 -0.19197055035E+03 -0.18650134259E+03 -0.74033246017E+02  0.27769833364E+03  0.00000000000E+00 0.  1.
          3    1    3    3  501    0  0.21104598739E+03  0.10521761003E+03 -0.72482934887E+03  0.76222617329E+03  0.00000000000E+00 0.  1.
         -1    1    1    2    0  502 -0.19075437042E+02  0.81283732562E+02 -0.58986226532E+02  0.10222667166E+03  0.00000000000E+00 0. -1.
<mgrwt>
<rscale>  1 0.66577889E+03</rscale>
<asrwt>0</asrwt>
<pdfrwt beam="1">  1       21 0.21869411E-01 0.66577889E+03</pdfrwt>
<pdfrwt beam="2">0</pdfrwt>
<totfact> 0.18881549E+03</totfact>
</mgrwt>
</event>
<event>
 6    1  0.1364923E-004  0.6536198E+03  0.7818608E-02  0.9800011E-01
         21   -1    0    0  501  502  0.00000000000E+00  0.00000000000E+00  0.19088317234E+03  0.19088317234E+03  0.00000000000E+00 0. -1.
         13   -1    0    0    0    0 -0.00000000000E+00 -0.00000000000E+00 -0.10000000000E+04  0.10000000000E+04  0.00000000000E+00 0.  1.
    9000005    2    1    2  501    0  0.38467932168E+02 -0.10922884188E+02 -0.88789792247E+03  0.11025341367E+04  0.65239536372E+03 0.  0.
         13    1    3    3    0    0  0.18999599622E+03  0.27073235321E+03 -0.39820928969E+03  0.51765347874E+03  0.00000000000E+00 0.  1.
          1    1    3    3  501    0 -0.15152806406E+03 -0.28165523740E+03 -0.48968863277E+03  0.58488065793E+03  0.00000000000E+00 0.  1.
         -3    1    1    2    0  502 -0.38467932168E+02  0.10922884188E+02  0.78781094803E+02  0.88349035663E+02  0.00000000000E+00 0. -1.
<mgrwt>
<rscale>  1 0.65361977E+03</rscale>
<asrwt>0</asrwt>
<pdfrwt beam="1">  1       21 0.29366641E-01 0.65361977E+03</pdfrwt>
<pdfrwt beam="2">0</pdfrwt>
<totfact> 0.10587915E+03</totfact>
</mgrwt>
</event>
<event>
 6    1  0.1364923E-004  0.7560124E+03  0.7818608E-02  0.9625965E-01
         21   -1    0    0  501  502  0.00000000000E+00  0.00000000000E+00  0.40124360702E+03  0.40124360702E+03  0.00000000000E+00 0. -1.
         13   -1    0    0    0    0 -0.00000000000E+00 -0.00000000000E+00 -0.10000000000E+04  0.10000000000E+04  0.00000000000E+00 0.  1.
    9000005    2    1    2  501    0  0.38713762469E+03 -0.34020535229E+02 -0.66517181173E+03  0.10069798056E+04  0.64847656279E+03 0.  0.
         13    1    3    3    0    0  0.34094275676E+02 -0.92473496955E+02 -0.64076316562E+03  0.64829869789E+03  0.00000000000E+00 0.  1.
          1    1    3    3  501    0  0.35304334901E+03  0.58452961726E+02 -0.24408646107E+02  0.35868110770E+03  0.00000000000E+00 0.  1.
         -3    1    1    2    0  502 -0.38713762469E+03  0.34020535229E+02  0.66415418743E+02  0.39426380142E+03  0.00000000000E+00 0. -1.
<mgrwt>
<rscale>  1 0.75601243E+03</rscale>
<asrwt>0</asrwt>
<pdfrwt beam="1">  1       21 0.61729784E-01 0.75601243E+03</pdfrwt>
<pdfrwt beam="2">0</pdfrwt>
<totfact> 0.22036559E+02</totfact>
</mgrwt>
</event>
<event>
 6    1  0.1364923E-004  0.6416456E+03  0.7818608E-02  0.9822583E-01
         21   -1    0    0  501  502  0.00000000000E+00  0.00000000000E+00  0.11663104908E+03  0.11663104908E+03  0.00000000000E+00 0.  1.
         13   -1    0    0    0    0 -0.00000000000E+00 -0.00000000000E+00 -0.10000000000E+04  0.10000000000E+04  0.00000000000E+00 0.  1.
    9000005    2    1    2  501    0  0.19488717869E+02 -0.21964047385E+02 -0.87686639445E+03  0.10865559308E+04  0.64097339058E+03 0.  0.
         13    1    3    3    0    0 -0.25853803977E+03 -0.18524672583E+03 -0.46814799387E+03  0.56596891399E+03  0.00000000000E+00 0.  1.
          1    1    3    3  501    0  0.27802675764E+03  0.16328267845E+03 -0.40871840059E+03  0.52058701676E+03  0.00000000000E+00 0.  1.
         -3    1    1    2    0  502 -0.19488717869E+02  0.21964047385E+02 -0.65025564705E+01  0.30075118327E+02  0.00000000000E+00 0. -1.
<mgrwt>
<rscale>  1 0.64164563E+03</rscale>
<asrwt>0</asrwt>
<pdfrwt beam="1">  1       21 0.17943238E-01 0.64164563E+03</pdfrwt>
<pdfrwt beam="2">0</pdfrwt>
<totfact> 0.27611130E+03</totfact>
</mgrwt>
</event>
<event>
 6    1  0.1364923E-004  0.6420498E+03  0.7818608E-02  0.9821813E-01
         21   -1    0    0  501  502  0.00000000000E+00  0.00000000000E+00  0.12248037307E+03  0.12248037307E+03  0.00000000000E+00 0.  1.
         13   -1    0    0    0    0 -0.00000000000E+00 -0.00000000000E+00 -0.10000000000E+04  0.10000000000E+04  0.00000000000E+00 0.  1.
    9000005    2    1    2  501    0 -0.32629723359E+01 -0.35497329311E+02 -0.87690792609E+03  0.10868281424E+04  0.64105943001E+03 0.  0.
         13    1    3    3    0    0  0.46491660915E+02 -0.33342319497E+03 -0.51730686758E+03  0.61720247628E+03  0.00000000000E+00 0.  1.
          1    1    3    3  501    0 -0.49754633251E+02  0.29792586566E+03 -0.35960105851E+03  0.46962566607E+03  0.00000000000E+00 0.  1.
         -3    1    1    2    0  502  0.32629723359E+01  0.35497329311E+02 -0.61170084296E+00  0.35652230710E+02  0.00000000000E+00 0. -1.
<mgrwt>
<rscale>  1 0.64204976E+03</rscale>
<asrwt>0</asrwt>
<pdfrwt beam="1">  1       21 0.18843134E-01 0.64204976E+03</pdfrwt>
<pdfrwt beam="2">0</pdfrwt>
<totfact> 0.25158216E+03</totfact>
</mgrwt>
</event>
<event>
 6    1  0.1364923E-004  0.6639090E+03  0.7818608E-02  0.9781024E-01
         21   -1    0    0  501  502  0.00000000000E+00  0.00000000000E+00  0.12669458820E+03  0.12669458820E+03  0.00000000000E+00 0.  1.
         13   -1    0    0    0    0 -0.00000000000E+00 -0.00000000000E+00 -0.10000000000E+04  0.10000000000E+04  0.00000000000E+00 0.  1.
    9000005    2    1    2  501    0  0.21022575118E+02  0.16329389105E+02 -0.87685351759E+03  0.10998396693E+04  0.66337516482E+03 0.  0.
         13    1    3    3    0    0  0.50517307540E+02  0.31284211076E+03 -0.65733590945E+03  0.72973466580E+03  0.00000000000E+00 0.  1.
          1    1    3    3  501    0 -0.29494732422E+02 -0.29651272166E+03 -0.21951760814E+03  0.37010500352E+03  0.00000000000E+00 0.  1.
         -1    1    1    2    0  502 -0.21022575118E+02 -0.16329389105E+02  0.35481057884E+01  0.26854918875E+02  0.00000000000E+00 0. -1.
<mgrwt>
<rscale>  1 0.66390904E+03</rscale>
<asrwt>0</asrwt>
<pdfrwt beam="1">  1       21 0.19491475E-01 0.66390904E+03</pdfrwt>
<pdfrwt beam="2">0</pdfrwt>
<totfact> 0.23565098E+03</totfact>
</mgrwt>
</event>
<event>
 6    1  0.1364923E-004  0.7247664E+03  0.7818608E-02  0.9675791E-01
         21   -1    0    0  501  502  0.00000000000E+00  0.00000000000E+00  0.26615170862E+03  0.26615170862E+03  0.00000000000E+00 0.  1.
         13   -1    0    0    0    0 -0.00000000000E+00 -0.00000000000E+00 -0.10000000000E+04  0.10000000000E+04  0.00000000000E+00 0.  1.
    9000005    2    1    2  501    0 -0.13362798183E+03  0.26456978500E+03 -0.60014899362E+03  0.94099157747E+03  0.66138697120E+03 0.  0.
         13    1    3    3    0    0  0.47439361416E+02 -0.15992511086E+03  0.19956636112E+02  0.16800238516E+03  0.00000000000E+00 0.  1.
          3    1    3    3  501    0 -0.18106734324E+03  0.42449489586E+03 -0.62010562973E+03  0.77298919231E+03  0.00000000000E+00 0.  1.
         -3    1    1    2    0  502  0.13362798183E+03 -0.26456978500E+03 -0.13369929777E+03  0.32516013115E+03  0.00000000000E+00 0. -1.
<mgrwt>
<rscale>  1 0.72476640E+03</rscale>
<asrwt>0</asrwt>
<pdfrwt beam="1">  1       21 0.40946416E-01 0.72476640E+03</pdfrwt>
<pdfrwt beam="2">0</pdfrwt>
<totfact> 0.53481200E+02</totfact>
</mgrwt>
</event>
<event>
 6    1  0.1364923E-004  0.6777016E+03  0.7818608E-02  0.9756144E-01
         21   -1    0    0  501  502  0.00000000000E+00  0.00000000000E+00  0.59767361208E+03  0.59767361208E+03  0.00000000000E+00 0. -1.
         13   -1    0    0    0    0 -0.00000000000E+00 -0.00000000000E+00 -0.10000000000E+04  0.10000000000E+04  0.00000000000E+00 0.  1.
    9000005    2    1    2  501    0 -0.13100665380E+03  0.10745185077E+03 -0.86852357751E+03  0.11016408882E+04  0.65617893772E+03 0.  0.
         13    1    3    3    0    0  0.33809506766E+02  0.15922731243E+03  0.47423149232E+02  0.16954461022E+03  0.00000000000E+00 0.  1.
          3    1    3    3  501    0 -0.16481616057E+03 -0.51775461658E+02 -0.91594672674E+03  0.93209627799E+03  0.00000000000E+00 0.  1.
         -1    1    1    2    0  502  0.13100665380E+03 -0.10745185077E+03  0.46619718959E+03  0.49603272388E+03  0.00000000000E+00 0. -1.
<mgrwt>
<rscale>  1 0.67770159E+03</rscale>
<asrwt>0</asrwt>
<pdfrwt beam="1">  1       21 0.91949784E-01 0.67770159E+03</pdfrwt>
<pdfrwt beam="2">0</pdfrwt>
<totfact> 0.88549503E+01</totfact>
</mgrwt>
</event>
<event>
 6    1  0.1364923E-004  0.6704720E+03  0.7818608E-02  0.9769106E-01
         21   -1    0    0  501  502  0.00000000000E+00  0.00000000000E+00  0.20101649222E+03  0.20101649222E+03  0.00000000000E+00 0.  1.
         13   -1    0    0    0    0 -0.00000000000E+00 -0.00000000000E+00 -0.10000000000E+04  0.10000000000E+04  0.00000000000E+00 0.  1.
    9000005    2    1    2  501    0  0.10367251207E+03 -0.66113754220E+02 -0.83689426749E+03  0.10723454234E+04  0.65910065531E+03 0.  0.
         13    1    3    3    0    0  0.31676385271E+03 -0.68254448446E+02 -0.15744161067E+03  0.36025805874E+03  0.00000000000E+00 0.  1.
          1    1    3    3  501    0 -0.21309134064E+03  0.21406942267E+01 -0.67945265682E+03  0.71208736464E+03  0.00000000000E+00 0.  1.
         -3    1    1    2    0  502 -0.10367251207E+03  0.66113754220E+02  0.37910759712E+02  0.12867106884E+03  0.00000000000E+00 0. -1.
<mgrwt>
<rscale>  1 0.67047199E+03</rscale>
<asrwt>0</asrwt>
<pdfrwt beam="1">  1       21 0.30925613E-01 0.67047199E+03</pdfrwt>
<pdfrwt beam="2">0</pdfrwt>
<totfact> 0.95355241E+02</totfact>
</mgrwt>
</event>
<event>
 6    1  0.1364923E-004  0.7324270E+03  0.7818608E-02  0.9663330E-01
         21   -1    0    0  501  502  0.00000000000E+00  0.00000000000E+00  0.42215112780E+03  0.42215112780E+03  0.00000000000E+00 0. -1.
         13   -1    0    0    0    0 -0.00000000000E+00 -0.00000000000E+00 -0.10000000000E+04  0.10000000000E+04  0.00000000000E+00 0.  1.
    9000005    2    1    2  501    0 -0.30216751437E+03 -0.20375377233E+03 -0.72365170310E+03  0.10296218015E+04  0.63531760587E+03 0.  0.
         13    1    3    3    0    0  0.13677495738E+03 -0.16338461850E+03 -0.48185301069E+03  0.52686264475E+03  0.00000000000E+00 0.  1.
          1    1    3    3  501    0 -0.43894247174E+03 -0.40369153826E+02 -0.24179869242E+03  0.50275915679E+03  0.00000000000E+00 0.  1.
         -1    1    1    2    0  502  0.30216751437E+03  0.20375377233E+03  0.14580283091E+03  0.39252932626E+03  0.00000000000E+00 0. -1.
<mgrwt>
<rscale>  1 0.73242697E+03</rscale>
<asrwt>0</asrwt>
<pdfrwt beam="1">  1       21 0.64946325E-01 0.73242697E+03</pdfrwt>
<pdfrwt beam="2">0</pdfrwt>
<totfact> 0.19714868E+02</totfact>
</mgrwt>
</event>
<event>
 6    1  0.1364923E-004  0.6843512E+03  0.7818608E-02  0.9744374E-01
         21   -1    0    0  501  502  0.00000000000E+00  0.00000000000E+00  0.19750339903E+03  0.19750339903E+03  0.00000000000E+00 0.  1.
         13   -1    0    0    0    0 -0.00000000000E+00 -0.00000000000E+00 -0.10000000000E+04  0.10000000000E+04  0.00000000000E+00 0.  1.
    9000005    2    1    2  501    0  0.36156673452E+02  0.18973145832E+03 -0.69959155548E+03  0.97865463916E+03  0.65652968472E+03 0.  0.
         13    1    3    3    0    0 -0.16001943216E+03  0.44999885944E+01  0.61242415578E+02  0.17139749715E+03  0.00000000000E+00 0.  1.
          3    1    3    3  501    0  0.19617610561E+03  0.18523146973E+03 -0.76083397106E+03  0.80725714200E+03  0.00000000000E+00 0.  1.
         -3    1    1    2    0  502 -0.36156673452E+02 -0.18973145832E+03 -0.10290504549E+03  0.21884875987E+03  0.00000000000E+00 0. -1.
<mgrwt>
<rscale>  1 0.68435120E+03</rscale>
<asrwt>0</asrwt>
<pdfrwt beam="1">  1       21 0.30385137E-01 0.68435120E+03</pdfrwt>
<pdfrwt beam="2">0</pdfrwt>
<totfact> 0.98707913E+02</totfact>
</mgrwt>
</event>
<event>
 6    1  0.1364923E-004  0.6270776E+03  0.7818608E-02  0.9850768E-01
         21   -1    0    0  501  502  0.00000000000E+00  0.00000000000E+00  0.19193276189E+03  0.19193276189E+03  0.00000000000E+00 0. -1.
         13   -1    0    0    0    0 -0.00000000000E+00 -0.00000000000E+00 -0.10000000000E+04  0.10000000000E+04  0.00000000000E+00 0.  1.
    9000005    2    1    2  501    0  0.68012868192E+02 -0.21692006858E+01 -0.88791471060E+03  0.10870229219E+04  0.62337456130E+03 0.  0.
         13    1    3    3    0    0 -0.24462663238E+02 -0.12563561987E+03  0.49327377272E+02  0.13717113771E+03  0.00000000000E+00 0.  1.
          3    1    3    3  501    0  0.92475531430E+02  0.12346641918E+03 -0.93724208787E+03  0.94985178415E+03  0.00000000000E+00 0.  1.
         -1    1    1    2    0  502 -0.68012868192E+02  0.21692006858E+01  0.79847472491E+02  0.10490984003E+03  0.00000000000E+00 0. -1.
<mgrwt>
<rscale>  1 0.62707759E+03</rscale>
<asrwt>0</asrwt>
<pdfrwt beam="1">  1       21 0.29528116E-01 0.62707759E+03</pdfrwt>
<pdfrwt beam="2">0</pdfrwt>
<totfact> 0.10490051E+03</totfact>
</mgrwt>
</event>
<event>
 6    1  0.1364923E-004  0.6849040E+03  0.7818608E-02  0.9743402E-01
         21   -1    0    0  501  502  0.00000000000E+00  0.00000000000E+00  0.20387860722E+03  0.20387860722E+03  0.00000000000E+00 0.  1.
         13   -1    0    0    0    0 -0.00000000000E+00 -0.00000000000E+00 -0.10000000000E+04  0.10000000000E+04  0.00000000000E+00 0.  1.
    9000005    2    1    2  501    0  0.10743548821E+03  0.13317649827E+03 -0.77042904433E+03  0.10308512666E+04  0.66318553796E+03 0.  0.
         13    1    3    3    0    0 -0.14004606253E+03 -0.17171551123E+03 -0.51963604999E+03  0.56490772775E+03  0.00000000000E+00 0.  1.
          1    1    3    3  501    0  0.24748155075E+03  0.30489200950E+03 -0.25079299434E+03  0.46594353889E+03  0.00000000000E+00 0.  1.
         -1    1    1    2    0  502 -0.10743548821E+03 -0.13317649827E+03 -0.25692348451E+02  0.17302734058E+03  0.00000000000E+00 0. -1.
<mgrwt>
<rscale>  1 0.68490395E+03</rscale>
<asrwt>0</asrwt>
<pdfrwt beam="1">  1       21 0.31365939E-01 0.68490395E+03</pdfrwt>
<pdfrwt beam="2">0</pdfrwt>
<totfact> 0.92596854E+02</totfact>
</mgrwt>
</event>
<event>
 6    1  0.1364923E-004  0.5878648E+03  0.7818608E-02  0.9930908E-01
         21   -1    0    0  501  502  0.00000000000E+00  0.00000000000E+00  0.11703819800E+03  0.11703819800E+03  0.00000000000E+00 0.  1.
         13   -1    0    0    0    0 -0.00000000000E+00 -0.00000000000E+00 -0.10000000000E+04  0.10000000000E+04  0.00000000000E+00 0.  1.
    9000005    2    1    2  501    0 -0.63144910252E+01 -0.20199309604E+02 -0.90959075614E+03  0.10830236996E+04  0.58748370638E+03 0.  0.
         13    1    3    3    0    0 -0.25772076639E+03  0.17005169984E+02 -0.19220260465E+03  0.32194876995E+03  0.00000000000E+00 0.  1.
          3    1    3    3  501    0  0.25140627537E+03 -0.37204479588E+02 -0.71738815149E+03  0.76107492962E+03  0.00000000000E+00 0.  1.
         -1    1    1    2    0  502  0.63144910252E+01  0.20199309604E+02  0.26628954144E+02  0.34014498441E+02  0.00000000000E+00 0. -1.
<mgrwt>
<rscale>  1 0.58786477E+03</rscale>
<asrwt>0</asrwt>
<pdfrwt beam="1">  1       21 0.18005876E-01 0.58786477E+03</pdfrwt>
<pdfrwt beam="2">0</pdfrwt>
<totfact> 0.27480918E+03</totfact>
</mgrwt>
</event>
<event>
 6    1  0.1364923E-004  0.6672045E+03  0.7818608E-02  0.9775021E-01
         21   -1    0    0  501  502  0.00000000000E+00  0.00000000000E+00  0.12970609540E+03  0.12970609540E+03  0.00000000000E+00 0.  1.
         13   -1    0    0    0    0 -0.00000000000E+00 -0.00000000000E+00 -0.10000000000E+04  0.10000000000E+04  0.00000000000E+00 0.  1.
    9000005    2    1    2  501    0  0.30426065882E+02 -0.15666876071E+02 -0.86882260174E+03  0.10954517348E+04  0.66632619143E+03 0.  0.
         13    1    3    3    0    0  0.25133217634E+03  0.62024353900E+02 -0.81506938288E+03  0.85519178098E+03  0.00000000000E+00 0.  1.
          1    1    3    3  501    0 -0.22090611045E+03 -0.77691229971E+02 -0.53753218855E+02  0.24025995377E+03  0.00000000000E+00 0.  1.
         -1    1    1    2    0  502 -0.30426065882E+02  0.15666876071E+02 -0.14713028650E+01  0.34254360643E+02  0.00000000000E+00 0. -1.
<mgrwt>
<rscale>  1 0.66720446E+03</rscale>
<asrwt>0</asrwt>
<pdfrwt beam="1">  1       21 0.19954783E-01 0.66720446E+03</pdfrwt>
<pdfrwt beam="2">0</pdfrwt>
<totfact> 0.22525180E+03</totfact>
</mgrwt>
</event>
<event>
 6    1  0.1364923E-004  0.7047764E+03  0.7818608E-02  0.9709099E-01
         21   -1    0    0  501  502  0.00000000000E+00  0.00000000000E+00  0.29290001420E+03  0.29290001420E+03  0.00000000000E+00 0. -1.
         13   -1    0    0    0    0 -0.00000000000E+00 -0.00000000000E+00 -0.10000000000E+04  0.10000000000E+04  0.00000000000E+00 0.  1.
    9000005    2    1    2  501    0 -0.25904874899E+03  0.84146318040E+02 -0.73597155227E+03  0.10190014480E+04  0.65001766758E+03 0.  0.
         13    1    3    3    0    0  0.18966723364E+03 -0.96178903577E+02 -0.15530641435E+03  0.26333272366E+03  0.00000000000E+00 0.  1.
          1    1    3    3  501    0 -0.44871598263E+03  0.18032522162E+03 -0.58066513792E+03  0.75566872439E+03  0.00000000000E+00 0.  1.
         -3    1    1    2    0  502  0.25904874899E+03 -0.84146318040E+02  0.28871566464E+02  0.27389856615E+03  0.00000000000E+00 0. -1.
<mgrwt>
<rscale>  1 0.70477644E+03</rscale>
<asrwt>0</asrwt>
<pdfrwt beam="1">  1       21 0.45061539E-01 0.70477644E+03</pdfrwt>
<pdfrwt beam="2">0</pdfrwt>
<totfact> 0.43800753E+02</totfact>
</mgrwt>
</event>
<event>
 6    1  0.1364923E-004  0.6667051E+03  0.7818608E-02  0.9775929E-01
         21   -1    0    0  501  502  0.00000000000E+00  0.00000000000E+00  0.23423114313E+03  0.23423114313E+03  0.00000000000E+00 0. -1.
         13   -1    0    0    0    0 -0.00000000000E+00 -0.00000000000E+00 -0.10000000000E+04  0.10000000000E+04  0.00000000000E+00 0.  1.
    9000005    2    1    2  501    0 -0.24166945429E+02 -0.11573558869E+03 -0.85635711382E+03  0.10852848440E+04  0.65613788062E+03 0.  0.
         13    1    3    3    0    0  0.88068561186E+02  0.71923224950E+02  0.69963504797E+02  0.13350623117E+03  0.00000000000E+00 0.  1.
          1    1    3    3  501    0 -0.11223550661E+03 -0.18765881364E+03 -0.92632061862E+03  0.95177861279E+03  0.00000000000E+00 0.  1.
         -1    1    1    2    0  502  0.24166945429E+02  0.11573558869E+03  0.90588256953E+02  0.14894629918E+03  0.00000000000E+00 0. -1.
<mgrwt>
<rscale>  1 0.66670510E+03</rscale>
<asrwt>0</asrwt>
<pdfrwt beam="1">  1       21 0.36035559E-01 0.66670510E+03</pdfrwt>
<pdfrwt beam="2">0</pdfrwt>
<totfact> 0.69941033E+02</totfact>
</mgrwt>
</event>
<event>
 6    1  0.1364923E-004  0.6590068E+03  0.7818608E-02  0.9790024E-01
         21   -1    0    0  501  502  0.00000000000E+00  0.00000000000E+00  0.13424640750E+03  0.13424640750E+03  0.00000000000E+00 0.  1.
         13   -1    0    0    0    0 -0.00000000000E+00 -0.00000000000E+00 -0.10000000000E+04  0.10000000000E+04  0.00000000000E+00 0.  1.
    9000005    2    1    2  501    0 -0.46081858970E+02  0.36106421908E+02 -0.84616556173E+03  0.10725139008E+04  0.65640132404E+03 0.  0.
         13    1    3    3    0    0 -0.24369041017E+02  0.32325702719E+02 -0.95783512467E+03  0.95869021444E+03  0.00000000000E+00 0.  1.
          3    1    3    3  501    0 -0.21712817953E+02  0.37807191897E+01  0.11166956293E+03  0.11382368640E+03  0.00000000000E+00 0.  1.
         -1    1    1    2    0  502  0.46081858970E+02 -0.36106421908E+02 -0.19588030765E+02  0.61732506659E+02  0.00000000000E+00 0. -1.
<mgrwt>
<rscale>  1 0.65900676E+03</rscale>
<asrwt>0</asrwt>
<pdfrwt beam="1">  1       21 0.20653293E-01 0.65900676E+03</pdfrwt>
<pdfrwt beam="2">0</pdfrwt>
<totfact> 0.21091291E+03</totfact>
</mgrwt>
</event>
<event>
 6    1  0.1364923E-004  0.6554153E+03  0.7818608E-02  0.9796670E-01
         21   -1    0    0  501  502  0.00000000000E+00  0.00000000000E+00  0.13642802505E+03  0.13642802505E+03  0.00000000000E+00 0.  1.
         13   -1    0    0    0    0 -0.00000000000E+00 -0.00000000000E+00 -0.10000000000E+04  0.10000000000E+04  0.00000000000E+00 0.  1.
    9000005    2    1    2  501    0 -0.15066339363E+02 -0.17364616650E+02 -0.88747781128E+03  0.11032615736E+04  0.65501199202E+03 0.  0.
         13    1    3    3    0    0  0.18846464782E+03 -0.25222606064E+03 -0.61074740411E+03  0.68713121073E+03  0.00000000000E+00 0.  1.
          3    1    3    3  501    0 -0.20353098718E+03  0.23486144399E+03 -0.27673040718E+03  0.41613036283E+03  0.00000000000E+00 0.  1.
         -1    1    1    2    0  502  0.15066339363E+02  0.17364616650E+02  0.23905836340E+02  0.33166451488E+02  0.00000000000E+00 0. -1.
<mgrwt>
<rscale>  1 0.65541531E+03</rscale>
<asrwt>0</asrwt>
<pdfrwt beam="1">  1       21 0.20988926E-01 0.65541531E+03</pdfrwt>
<pdfrwt beam="2">0</pdfrwt>
<totfact> 0.20449753E+03</totfact>
</mgrwt>
</event>
<event>
 6    1  0.1364923E-004  0.6469478E+03  0.7818608E-02  0.9812523E-01
         21   -1    0    0  501  502  0.00000000000E+00  0.00000000000E+00  0.44617856520E+03  0.44617856520E+03  0.00000000000E+00 0. -1.
         13   -1    0    0    0    0 -0.00000000000E+00 -0.00000000000E+00 -0.10000000000E+04  0.10000000000E+04  0.00000000000E+00 0.  1.
    9000005    2    1    2  501    0 -0.56038243380E+02 -0.20173176220E+02 -0.89249346936E+03  0.11023094204E+04  0.64420045300E+03 0.  0.
         13    1    3    3    0    0  0.99180127300E+02  0.20434287100E+03 -0.77060442781E+03  0.80338277971E+03  0.00000000000E+00 0.  1.
          1    1    3    3  501    0 -0.15521837068E+03 -0.22451604722E+03 -0.12188904156E+03  0.29892664068E+03  0.00000000000E+00 0.  1.
         -1    1    1    2    0  502  0.56038243380E+02  0.20173176220E+02  0.33867203456E+03  0.34386914481E+03  0.00000000000E+00 0. -1.
<mgrwt>
<rscale>  1 0.64694781E+03</rscale>
<asrwt>0</asrwt>
<pdfrwt beam="1">  1       21 0.68642854E-01 0.64694781E+03</pdfrwt>
<pdfrwt beam="2">0</pdfrwt>
<totfact> 0.17566140E+02</totfact>
</mgrwt>
</event>
<event>
 6    1  0.1364923E-004  0.6132946E+03  0.7818608E-02  0.9878201E-01
         21   -1    0    0  501  502  0.00000000000E+00  0.00000000000E+00  0.20044229225E+03  0.20044229225E+03  0.00000000000E+00 0.  1.
         13   -1    0    0    0    0 -0.00000000000E+00 -0.00000000000E+00 -0.10000000000E+04  0.10000000000E+04  0.00000000000E+00 0.  1.
    9000005    2    1    2  501    0 -0.35021011893E+02 -0.16535801981E+02 -0.90209887319E+03  0.10908311859E+04  0.61207058020E+03 0.  0.
         13    1    3    3    0    0 -0.32047099729E+03  0.32002582643E+02 -0.51521290205E+03  0.60759374572E+03  0.00000000000E+00 0.  1.
          3    1    3    3  501    0  0.28544998540E+03 -0.48538384624E+02 -0.38688597114E+03  0.48323744020E+03  0.00000000000E+00 0.  1.
         -3    1    1    2    0  502  0.35021011893E+02  0.16535801981E+02  0.10254116544E+03  0.10961110633E+03  0.00000000000E+00 0. -1.
<mgrwt>
<rscale>  1 0.61329463E+03</rscale>
<asrwt>0</asrwt>
<pdfrwt beam="1">  1       21 0.30837275E-01 0.61329463E+03</pdfrwt>
<pdfrwt beam="2">0</pdfrwt>
<totfact> 0.96264644E+02</totfact>
</mgrwt>
</event>
<event>
 6    1  0.1364923E-004  0.8778606E+03  0.7818608E-02  0.9453688E-01
         21   -1    0    0  501  502  0.00000000000E+00  0.00000000000E+00  0.64745760339E+03  0.64745760339E+03  0.00000000000E+00 0.  1.
         13   -1    0    0    0    0 -0.00000000000E+00 -0.00000000000E+00 -0.10000000000E+04  0.10000000000E+04  0.00000000000E+00 0.  1.
    9000005    2    1    2  501    0 -0.24173621754E+02  0.59718015095E+03 -0.52819117205E+03  0.10245121893E+04  0.64298585912E+03 0.  0.
         13    1    3    3    0    0 -0.29946548933E+02  0.15652471419E+03  0.14793630947E+03  0.21744409306E+03  0.00000000000E+00 0.  1.
          1    1    3    3  501    0  0.57729271791E+01  0.44065543676E+03 -0.67612748152E+03  0.80706809620E+03  0.00000000000E+00 0.  1.
         -1    1    1    2    0  502  0.24173621754E+02 -0.59718015095E+03  0.17564877544E+03  0.62294541413E+03  0.00000000000E+00 0. -1.
<mgrwt>
<rscale>  1 0.87786064E+03</rscale>
<asrwt>0</asrwt>
<pdfrwt beam="1">  1       21 0.99608859E-01 0.87786064E+03</pdfrwt>
<pdfrwt beam="2">0</pdfrwt>
<totfact> 0.71134077E+01</totfact>
</mgrwt>
</event>
<event>
 6    1  0.1364923E-004  0.6620538E+03  0.7818608E-02  0.9784420E-01
         21   -1    0    0  501  502  0.00000000000E+00  0.00000000000E+00  0.17748493715E+03  0.17748493715E+03  0.00000000000E+00 0. -1.
         13   -1    0    0    0    0 -0.00000000000E+00 -0.00000000000E+00 -0.10000000000E+04  0.10000000000E+04  0.00000000000E+00 0.  1.
    9000005    2    1    2  501    0  0.13419528945E+03  0.24586135781E+02 -0.80129172370E+03  0.10394150856E+04  0.64784445658E+03 0.  0.
         13    1    3    3    0    0  0.75892344474E+02  0.33298411097E+03 -0.34369593551E+03  0.48452550211E+03  0.00000000000E+00 0.  1.
          1    1    3    3  501    0  0.58302944972E+02 -0.30839797519E+03 -0.45759578819E+03  0.55488958349E+03  0.00000000000E+00 0.  1.
         -3    1    1    2    0  502 -0.13419528945E+03 -0.24586135781E+02 -0.21223339154E+02  0.13806985155E+03  0.00000000000E+00 0. -1.
<mgrwt>
<rscale>  1 0.66205385E+03</rscale>
<asrwt>0</asrwt>
<pdfrwt beam="1">  1       21 0.27305374E-01 0.66205385E+03</pdfrwt>
<pdfrwt beam="2">0</pdfrwt>
<totfact> 0.12231181E+03</totfact>
</mgrwt>
</event>
<event>
 6    1  0.1364923E-004  0.6444005E+03  0.7818608E-02  0.9817343E-01
         21   -1    0    0  501  502  0.00000000000E+00  0.00000000000E+00  0.12533671229E+03  0.12533671229E+03  0.00000000000E+00 0.  1.
         13   -1    0    0    0    0 -0.00000000000E+00 -0.00000000000E+00 -0.10000000000E+04  0.10000000000E+04  0.00000000000E+00 0.  1.
    9000005    2    1    2  501    0 -0.81671137794E+01 -0.27039042322E+02 -0.88543968908E+03  0.10951052323E+04  0.64378118583E+03 0.  0.
         13    1    3    3    0    0  0.22521794941E+03 -0.11694767788E+03 -0.78601061979E+03  0.82596160838E+03  0.00000000000E+00 0.  1.
          3    1    3    3  501    0 -0.23338506319E+03  0.89908635559E+02 -0.99429069286E+02  0.26914362390E+03  0.00000000000E+00 0.  1.
         -1    1    1    2    0  502  0.81671137794E+01  0.27039042322E+02  0.10776401370E+02  0.30231480011E+02  0.00000000000E+00 0. -1.
<mgrwt>
<rscale>  1 0.64440052E+03</rscale>
<asrwt>0</asrwt>
<pdfrwt beam="1">  1       21 0.19282571E-01 0.64440052E+03</pdfrwt>
<pdfrwt beam="2">0</pdfrwt>
<totfact> 0.24073174E+03</totfact>
</mgrwt>
</event>
<event>
 6    1  0.1364923E-004  0.6573800E+03  0.7818608E-02  0.9793029E-01
         21   -1    0    0  501  502  0.00000000000E+00  0.00000000000E+00  0.20461969752E+03  0.20461969752E+03  0.00000000000E+00 0.  1.
         13   -1    0    0    0    0 -0.00000000000E+00 -0.00000000000E+00 -0.10000000000E+04  0.10000000000E+04  0.00000000000E+00 0.  1.
    9000005    2    1    2  501    0 -0.31090632769E+02 -0.15368275166E+02 -0.88849990709E+03  0.11052513319E+04  0.65646447763E+03 0.  0.
         13    1    3    3    0    0 -0.63192116283E+02  0.24963013085E+02 -0.98951464713E+03  0.99184456064E+03  0.00000000000E+00 0.  1.
          3    1    3    3  501    0  0.32101483514E+02 -0.40331288252E+02  0.10101474004E+03  0.11340677123E+03  0.00000000000E+00 0.  1.
         -3    1    1    2    0  502  0.31090632769E+02  0.15368275166E+02  0.93119604608E+02  0.99368365640E+02  0.00000000000E+00 0. -1.
<mgrwt>
<rscale>  1 0.65737997E+03</rscale>
<asrwt>0</asrwt>
<pdfrwt beam="1">  1       21 0.31479953E-01 0.65737997E+03</pdfrwt>
<pdfrwt beam="2">0</pdfrwt>
<totfact> 0.92084230E+02</totfact>
</mgrwt>
</event>
<event>
 6    1  0.1364923E-004  0.6623769E+03  0.7818608E-02  0.9783828E-01
         21   -1    0    0  501  502  0.00000000000E+00  0.00000000000E+00  0.17363448704E+03  0.17363448704E+03  0.00000000000E+00 0.  1.
         13   -1    0    0    0    0 -0.00000000000E+00 -0.00000000000E+00 -0.10000000000E+04  0.10000000000E+04  0.00000000000E+00 0.  1.
    9000005    2    1    2  501    0 -0.92778774286E+02 -0.44071501507E+02 -0.84030445010E+03  0.10699788448E+04  0.65436454766E+03 0.  0.
         13    1    3    3    0    0  0.23831295487E+03  0.46841369737E+02 -0.60992831026E+03  0.65650569078E+03  0.00000000000E+00 0.  1.
          1    1    3    3  501    0 -0.33109172916E+03 -0.90912871244E+02 -0.23037613984E+03  0.41347315400E+03  0.00000000000E+00 0.  1.
         -3    1    1    2    0  502  0.92778774286E+02  0.44071501507E+02  0.13938937144E+02  0.10365564226E+03  0.00000000000E+00 0. -1.
<mgrwt>
<rscale>  1 0.66237690E+03</rscale>
<asrwt>0</asrwt>
<pdfrwt beam="1">  1       21 0.26712997E-01 0.66237690E+03</pdfrwt>
<pdfrwt beam="2">0</pdfrwt>
<totfact> 0.12773127E+03</totfact>
</mgrwt>
</event>
<event>
 6    1  0.1364923E-004  0.6458829E+03  0.7818608E-02  0.9814535E-01
         21   -1    0    0  501  502  0.00000000000E+00  0.00000000000E+00  0.13791699129E+03  0.13791699129E+03  0.00000000000E+00 0.  1.
         13   -1    0    0    0    0 -0.00000000000E+00 -0.00000000000E+00 -0.10000000000E+04  0.10000000000E+04  0.00000000000E+00 0.  1.
    9000005    2    1    2  501    0 -0.86102689886E+01  0.24863669353E+02 -0.88992746537E+03  0.10996070376E+04  0.64534673215E+03 0.  0.
         13    1    3    3    0    0 -0.31516733021E+03 -0.50721417131E+02 -0.54800697332E+03  0.63420402947E+03  0.00000000000E+00 0.  1.
          3    1    3    3  501    0  0.30655706122E+03  0.75585086484E+02 -0.34192049205E+03  0.46540300812E+03  0.00000000000E+00 0.  1.
         -3    1    1    2    0  502  0.86102689886E+01 -0.24863669353E+02  0.27844456660E+02  0.38309953699E+02  0.00000000000E+00 0. -1.
<mgrwt>
<rscale>  1 0.64588292E+03</rscale>
<asrwt>0</asrwt>
<pdfrwt beam="1">  1       21 0.21217998E-01 0.64588292E+03</pdfrwt>
<pdfrwt beam="2">0</pdfrwt>
<totfact> 0.20034409E+03</totfact>
</mgrwt>
</event>
<event>
 6    1  0.1364923E-004  0.6503128E+03  0.7818608E-02  0.9806192E-01
         21   -1    0    0  501  502  0.00000000000E+00  0.00000000000E+00  0.13584577995E+03  0.13584577995E+03  0.00000000000E+00 0.  1.
         13   -1    0    0    0    0 -0.00000000000E+00 -0.00000000000E+00 -0.10000000000E+04  0.10000000000E+04  0.00000000000E+00 0.  1.
    9000005    2    1    2  501    0  0.24506380686E+02  0.23246309675E+02 -0.88341404582E+03  0.10969626924E+04  0.64943499950E+03 0.  0.
         13    1    3    3    0    0 -0.18814308334E+03  0.97370326449E+02 -0.29545402607E+02  0.21389654298E+03  0.00000000000E+00 0.  1.
          1    1    3    3  501    0  0.21264946403E+03 -0.74124016774E+02 -0.85386864321E+03  0.88306614943E+03  0.00000000000E+00 0.  1.
         -3    1    1    2    0  502 -0.24506380686E+02 -0.23246309675E+02  0.19259825765E+02  0.38883087536E+02  0.00000000000E+00 0. -1.
<mgrwt>
<rscale>  1 0.65031283E+03</rscale>
<asrwt>0</asrwt>
<pdfrwt beam="1">  1       21 0.20899350E-01 0.65031283E+03</pdfrwt>
<pdfrwt beam="2">0</pdfrwt>
<totfact> 0.20623300E+03</totfact>
</mgrwt>
</event>
<event>
 6    1  0.1364923E-004  0.6454554E+03  0.7818608E-02  0.9815344E-01
         21   -1    0    0  501  502  0.00000000000E+00  0.00000000000E+00  0.12153614495E+03  0.12153614495E+03  0.00000000000E+00 0.  1.
         13   -1    0    0    0    0 -0.00000000000E+00 -0.00000000000E+00 -0.10000000000E+04  0.10000000000E+04  0.00000000000E+00 0.  1.
    9000005    2    1    2  501    0 -0.23977496209E+02  0.12866695017E+02 -0.88319816056E+03  0.10939157573E+04  0.64488155587E+03 0.  0.
         13    1    3    3    0    0 -0.19930287526E+03 -0.12010594522E+03 -0.83743145495E+03  0.86915966076E+03  0.00000000000E+00 0.  1.
          1    1    3    3  501    0  0.17532537905E+03  0.13297264024E+03 -0.45766705609E+02  0.22475609654E+03  0.00000000000E+00 0.  1.
         -1    1    1    2    0  502  0.23977496209E+02 -0.12866695017E+02  0.47343055110E+01  0.27620387647E+02  0.00000000000E+00 0. -1.
<mgrwt>
<rscale>  1 0.64545542E+03</rscale>
<asrwt>0</asrwt>
<pdfrwt beam="1">  1       21 0.18697868E-01 0.64545542E+03</pdfrwt>
<pdfrwt beam="2">0</pdfrwt>
<totfact> 0.25528844E+03</totfact>
</mgrwt>
</event>
<event>
 6    1  0.1364923E-004  0.6499120E+03  0.7818608E-02  0.9806944E-01
         21   -1    0    0  501  502  0.00000000000E+00  0.00000000000E+00  0.46519520067E+03  0.46519520067E+03  0.00000000000E+00 0. -1.
         13   -1    0    0    0    0 -0.00000000000E+00 -0.00000000000E+00 -0.10000000000E+04  0.10000000000E+04  0.00000000000E+00 0.  1.
    9000005    2    1    2  501    0 -0.50990866062E+02 -0.36354550013E+02 -0.89138602867E+03  0.11031566739E+04  0.64688783678E+03 0.  0.
         13    1    3    3    0    0  0.94448260016E+02  0.27671104979E+03 -0.51672610825E+03  0.59371318820E+03  0.00000000000E+00 0.  1.
          1    1    3    3  501    0 -0.14543912608E+03 -0.31306559980E+03 -0.37465992042E+03  0.50944348572E+03  0.00000000000E+00 0.  1.
         -3    1    1    2    0  502  0.50990866062E+02  0.36354550013E+02  0.35658122935E+03  0.36203852675E+03  0.00000000000E+00 0. -1.
<mgrwt>
<rscale>  1 0.64991199E+03</rscale>
<asrwt>0</asrwt>
<pdfrwt beam="1">  1       21 0.71568490E-01 0.64991199E+03</pdfrwt>
<pdfrwt beam="2">0</pdfrwt>
<totfact> 0.15971816E+02</totfact>
</mgrwt>
</event>
<event>
 6    1  0.1364923E-004  0.6519064E+03  0.7818608E-02  0.9803208E-01
         21   -1    0    0  501  502  0.00000000000E+00  0.00000000000E+00  0.25963058648E+03  0.25963058648E+03  0.00000000000E+00 0. -1.
         13   -1    0    0    0    0 -0.00000000000E+00 -0.00000000000E+00 -0.10000000000E+04  0.10000000000E+04  0.00000000000E+00 0.  1.
    9000005    2    1    2  501    0  0.60512743522E+02  0.15522371541E+02 -0.88668181070E+03  0.11005392488E+04  0.64890620943E+03 0.  0.
         13    1    3    3    0    0  0.28606726894E+03 -0.10141620421E+03 -0.75639010707E+03  0.81501271334E+03  0.00000000000E+00 0.  1.
          1    1    3    3  501    0 -0.22555452542E+03  0.11693857575E+03 -0.13029170363E+03  0.28552653549E+03  0.00000000000E+00 0.  1.
         -3    1    1    2    0  502 -0.60512743522E+02 -0.15522371541E+02  0.14631239718E+03  0.15909133765E+03  0.00000000000E+00 0. -1.
<mgrwt>
<rscale>  1 0.65190644E+03</rscale>
<asrwt>0</asrwt>
<pdfrwt beam="1">  1       21 0.39943166E-01 0.65190644E+03</pdfrwt>
<pdfrwt beam="2">0</pdfrwt>
<totfact> 0.56633977E+02</totfact>
</mgrwt>
</event>
<event>
 6    1  0.1364923E-004  0.6968132E+03  0.7818608E-02  0.9722698E-01
         21   -1    0    0  501  502  0.00000000000E+00  0.00000000000E+00  0.12923062284E+03  0.12923062284E+03  0.00000000000E+00 0.  1.
         13   -1    0    0    0    0 -0.00000000000E+00 -0.00000000000E+00 -0.10000000000E+04  0.10000000000E+04  0.00000000000E+00 0.  1.
    9000005    2    1    2  501    0  0.13809209760E+02  0.17201027343E+02 -0.84065520202E+03  0.10919019052E+04  0.69646394901E+03 0.  0.
         13    1    3    3    0    0 -0.29011528696E+03 -0.12895155388E+03 -0.22233345104E+03  0.38759198447E+03  0.00000000000E+00 0.  1.
          3    1    3    3  501    0  0.30392449672E+03  0.14615258123E+03 -0.61832175098E+03  0.70430992072E+03  0.00000000000E+00 0.  1.
         -1    1    1    2    0  502 -0.13809209760E+02 -0.17201027343E+02 -0.30114175149E+02  0.37328717641E+02  0.00000000000E+00 0. -1.
<mgrwt>
<rscale>  1 0.69681318E+03</rscale>
<asrwt>0</asrwt>
<pdfrwt beam="1">  1       21 0.19881634E-01 0.69681318E+03</pdfrwt>
<pdfrwt beam="2">0</pdfrwt>
<totfact> 0.22659491E+03</totfact>
</mgrwt>
</event>
<event>
 6    1  0.1364923E-004  0.6079052E+03  0.7818608E-02  0.9889140E-01
         21   -1    0    0  501  502  0.00000000000E+00  0.00000000000E+00  0.15532300743E+03  0.15532300743E+03  0.00000000000E+00 0.  1.
         13   -1    0    0    0    0 -0.00000000000E+00 -0.00000000000E+00 -0.10000000000E+04  0.10000000000E+04  0.00000000000E+00 0.  1.
    9000005    2    1    2  501    0  0.21638196805E+02 -0.24272871698E+01 -0.90554948654E+03  0.10906734614E+04  0.60751512200E+03 0.  0.
         13    1    3    3    0    0 -0.12209571080E+03  0.26614436094E+03 -0.34335062935E+03  0.45125362949E+03  0.00000000000E+00 0.  1.
          1    1    3    3  501    0  0.14373390761E+03 -0.26857164811E+03 -0.56219885719E+03  0.63941983187E+03  0.00000000000E+00 0.  1.
         -3    1    1    2    0  502 -0.21638196805E+02  0.24272871698E+01  0.60872493976E+02  0.64649546068E+02  0.00000000000E+00 0. -1.
<mgrwt>
<rscale>  1 0.60790520E+03</rscale>
<asrwt>0</asrwt>
<pdfrwt beam="1">  1       21 0.23895847E-01 0.60790520E+03</pdfrwt>
<pdfrwt beam="2">0</pdfrwt>
<totfact> 0.15940871E+03</totfact>
</mgrwt>
</event>
<event>
 6    1  0.1364923E-004  0.6457028E+03  0.7818608E-02  0.9814876E-01
         21   -1    0    0  501  502  0.00000000000E+00  0.00000000000E+00  0.11676330331E+03  0.11676330331E+03  0.00000000000E+00 0.  1.
         13   -1    0    0    0    0 -0.00000000000E+00 -0.00000000000E+00 -0.10000000000E+04  0.10000000000E+04  0.00000000000E+00 0.  1.
    9000005    2    1    2  501    0 -0.32013814991E+02  0.17990763773E+02 -0.84818779653E+03  0.10659993660E+04  0.64465770619E+03 0.  0.
         13    1    3    3    0    0 -0.17445872067E+02 -0.12068227725E+03  0.67760004171E+02  0.13949906329E+03  0.00000000000E+00 0.  1.
          1    1    3    3  501    0 -0.14567942925E+02  0.13867304102E+03 -0.91594780070E+03  0.92650030268E+03  0.00000000000E+00 0.  1.
         -1    1    1    2    0  502  0.32013814991E+02 -0.17990763773E+02 -0.35048900160E+02  0.50763937336E+02  0.00000000000E+00 0. -1.
<mgrwt>
<rscale>  1 0.64570280E+03</rscale>
<asrwt>0</asrwt>
<pdfrwt beam="1">  1       21 0.17963585E-01 0.64570280E+03</pdfrwt>
<pdfrwt beam="2">0</pdfrwt>
<totfact> 0.27548103E+03</totfact>
</mgrwt>
</event>
<event>
 6    1  0.1364923E-004  0.6721341E+03  0.7818608E-02  0.9766110E-01
         21   -1    0    0  501  502  0.00000000000E+00  0.00000000000E+00  0.16442903806E+03  0.16442903806E+03  0.00000000000E+00 0.  1.
         13   -1    0    0    0    0 -0.00000000000E+00 -0.00000000000E+00 -0.10000000000E+04  0.10000000000E+04  0.00000000000E+00 0.  1.
    9000005    2    1    2  501    0 -0.87064045254E+02  0.87329489288E+02 -0.77862143618E+03  0.10285988641E+04  0.66072512792E+03 0.  0.
         13    1    3    3    0    0 -0.18629341208E+03 -0.25133060998E+03 -0.29570673240E+03  0.43048203503E+03  0.00000000000E+00 0.  1.
          3    1    3    3  501    0  0.99229366825E+02  0.33866009927E+03 -0.48291470377E+03  0.59811682906E+03  0.00000000000E+00 0.  1.
         -3    1    1    2    0  502  0.87064045254E+02 -0.87329489288E+02 -0.56949525765E+02  0.13583017397E+03  0.00000000000E+00 0. -1.
<mgrwt>
<rscale>  1 0.67213413E+03</rscale>
<asrwt>0</asrwt>
<pdfrwt beam="1">  1       21 0.25296774E-01 0.67213413E+03</pdfrwt>
<pdfrwt beam="2">0</pdfrwt>
<totfact> 0.14212196E+03</totfact>
</mgrwt>
</event>
<event>
 6    1  0.1364923E-004  0.6481684E+03  0.7818608E-02  0.9810222E-01
         21   -1    0    0  501  502  0.00000000000E+00  0.00000000000E+00  0.13653708248E+03  0.13653708248E+03  0.00000000000E+00 0.  1.
         13   -1    0    0    0    0 -0.00000000000E+00 -0.00000000000E+00 -0.10000000000E+04  0.10000000000E+04  0.00000000000E+00 0.  1.
    9000005    2    1    2  501    0 -0.89205164284E+02 -0.14523726827E+02 -0.77068001491E+03  0.10070103787E+04  0.64183620766E+03 0.  0.
         13    1    3    3    0    0 -0.19963626329E+03  0.26283011993E+03 -0.52621003193E+03  0.62115320757E+03  0.00000000000E+00 0.  1.
          3    1    3    3  501    0  0.11043109901E+03 -0.27735384676E+03 -0.24446998297E+03  0.38585717113E+03  0.00000000000E+00 0.  1.
         -3    1    1    2    0  502  0.89205164284E+02  0.14523726827E+02 -0.92782902611E+02  0.12952670378E+03  0.00000000000E+00 0. -1.
<mgrwt>
<rscale>  1 0.64816836E+03</rscale>
<asrwt>0</asrwt>
<pdfrwt beam="1">  1       21 0.21005704E-01 0.64816836E+03</pdfrwt>
<pdfrwt beam="2">0</pdfrwt>
<totfact> 0.20424492E+03</totfact>
</mgrwt>
</event>
<event>
 6    1  0.1364923E-004  0.5449765E+03  0.7818608E-02  0.1002663E+00
         21   -1    0    0  501  502  0.00000000000E+00  0.00000000000E+00  0.18581745279E+03  0.18581745279E+03  0.00000000000E+00 0. -1.
         13   -1    0    0    0    0 -0.00000000000E+00 -0.00000000000E+00 -0.10000000000E+04  0.10000000000E+04  0.00000000000E+00 0.  1.
    9000005    2    1    2  501    0  0.28486034765E+02  0.27833369346E+02 -0.92192195809E+03  0.10709526136E+04  0.54351932177E+03 0.  0.
         13    1    3    3    0    0  0.25475215046E+03 -0.80401886258E+02 -0.64051091680E+03  0.69398656761E+03  0.00000000000E+00 0.  1.
          3    1    3    3  501    0 -0.22626611570E+03  0.10823525560E+03 -0.28141104129E+03  0.37696604599E+03  0.00000000000E+00 0.  1.
         -3    1    1    2    0  502 -0.28486034765E+02 -0.27833369346E+02  0.10773941088E+03  0.11486483920E+03  0.00000000000E+00 0. -1.
<mgrwt>
<rscale>  1 0.54497652E+03</rscale>
<asrwt>0</asrwt>
<pdfrwt beam="1">  1       21 0.28587300E-01 0.54497652E+03</pdfrwt>
<pdfrwt beam="2">0</pdfrwt>
<totfact> 0.11250704E+03</totfact>
</mgrwt>
</event>
<event>
 6    1  0.1364923E-004  0.6587368E+03  0.7818608E-02  0.9790522E-01
         21   -1    0    0  501  502  0.00000000000E+00  0.00000000000E+00  0.38715315305E+03  0.38715315305E+03  0.00000000000E+00 0.  1.
         13   -1    0    0    0    0 -0.00000000000E+00 -0.00000000000E+00 -0.10000000000E+04  0.10000000000E+04  0.00000000000E+00 0.  1.
    9000005    2    1    2  501    0  0.94293406891E+02  0.10298561416E+03 -0.87195699722E+03  0.10928143121E+04  0.64376768515E+03 0.  0.
         13    1    3    3    0    0  0.14914514669E+03 -0.20562732647E+03 -0.67844989188E+03  0.72444539336E+03  0.00000000000E+00 0.  1.
          3    1    3    3  501    0 -0.54851739804E+02  0.30861294063E+03 -0.19350710535E+03  0.36836891875E+03  0.00000000000E+00 0.  1.
         -1    1    1    2    0  502 -0.94293406891E+02 -0.10298561416E+03  0.25911015027E+03  0.29433884093E+03  0.00000000000E+00 0. -1.
<mgrwt>
<rscale>  1 0.65873676E+03</rscale>
<asrwt>0</asrwt>
<pdfrwt beam="1">  1       21 0.59562022E-01 0.65873676E+03</pdfrwt>
<pdfrwt beam="2">0</pdfrwt>
<totfact> 0.24087856E+02</totfact>
</mgrwt>
</event>
<event>
 6    1  0.1364923E-004  0.6654875E+03  0.7818608E-02  0.9778144E-01
         21   -1    0    0  501  502  0.00000000000E+00  0.00000000000E+00  0.26101499167E+03  0.26101499167E+03  0.00000000000E+00 0.  1.
         13   -1    0    0    0    0 -0.00000000000E+00 -0.00000000000E+00 -0.10000000000E+04  0.10000000000E+04  0.00000000000E+00 0.  1.
    9000005    2    1    2  501    0 -0.82672708445E+02 -0.23361924870E+02 -0.87550126098E+03  0.10997163758E+04  0.65991900481E+03 0.  0.
         13    1    3    3    0    0  0.21632234744E+03 -0.10849316628E+03 -0.70450887331E+03  0.74491534935E+03  0.00000000000E+00 0.  1.
          3    1    3    3  501    0 -0.29899505588E+03  0.85131241408E+02 -0.17099238767E+03  0.35480102642E+03  0.00000000000E+00 0.  1.
         -3    1    1    2    0  502  0.82672708445E+02  0.23361924870E+02  0.13651625265E+03  0.16129861591E+03  0.00000000000E+00 0. -1.
<mgrwt>
<rscale>  1 0.66548753E+03</rscale>
<asrwt>0</asrwt>
<pdfrwt beam="1">  1       21 0.40156151E-01 0.66548753E+03</pdfrwt>
<pdfrwt beam="2">0</pdfrwt>
<totfact> 0.55950930E+02</totfact>
</mgrwt>
</event>
<event>
 6    1  0.1364923E-004  0.6497348E+03  0.7818608E-02  0.9807277E-01
         21   -1    0    0  501  502  0.00000000000E+00  0.00000000000E+00  0.16083045979E+03  0.16083045979E+03  0.00000000000E+00 0.  1.
         13   -1    0    0    0    0 -0.00000000000E+00 -0.00000000000E+00 -0.10000000000E+04  0.10000000000E+04  0.00000000000E+00 0.  1.
    9000005    2    1    2  501    0  0.30722142209E+02  0.61375895804E+01 -0.88951028491E+03  0.11015370318E+04  0.64897901768E+03 0.  0.
         13    1    3    3    0    0 -0.11569158565E+03 -0.12271204787E+03  0.21380730533E+02  0.16999978036E+03  0.00000000000E+00 0.  1.
          1    1    3    3  501    0  0.14641372786E+03  0.12884963745E+03 -0.91089101545E+03  0.93153725143E+03  0.00000000000E+00 0.  1.
         -3    1    1    2    0  502 -0.30722142209E+02 -0.61375895804E+01  0.50340744705E+02  0.59293428011E+02  0.00000000000E+00 0. -1.
<mgrwt>
<rscale>  1 0.64973478E+03</rscale>
<asrwt>0</asrwt>
<pdfrwt beam="1">  1       21 0.24743147E-01 0.64973478E+03</pdfrwt>
<pdfrwt beam="2">0</pdfrwt>
<totfact> 0.14859558E+03</totfact>
</mgrwt>
</event>
<event>
 6    1  0.1364923E-004  0.6608364E+03  0.7818608E-02  0.9786655E-01
         21   -1    0    0  501  502  0.00000000000E+00  0.00000000000E+00  0.16157766298E+03  0.16157766298E+03  0.00000000000E+00 0.  1.
         13   -1    0    0    0    0 -0.00000000000E+00 -0.00000000000E+00 -0.10000000000E+04  0.10000000000E+04  0.00000000000E+00 0.  1.
    9000005    2    1    2  501    0  0.51894490617E+02 -0.57599105941E+02 -0.85666338451E+03  0.10819320041E+04  0.65627281828E+03 0.  0.
         13    1    3    3    0    0  0.20400227806E+03 -0.26692971508E+03 -0.70760963459E+03  0.78331334548E+03  0.00000000000E+00 0.  1.
          3    1    3    3  501    0 -0.15210778744E+03  0.20933060914E+03 -0.14905374992E+03  0.29861865864E+03  0.00000000000E+00 0.  1.
         -1    1    1    2    0  502 -0.51894490617E+02  0.57599105941E+02  0.18241047493E+02  0.79645658860E+02  0.00000000000E+00 0. -1.
<mgrwt>
<rscale>  1 0.66083637E+03</rscale>
<asrwt>0</asrwt>
<pdfrwt beam="1">  1       21 0.24858101E-01 0.66083637E+03</pdfrwt>
<pdfrwt beam="2">0</pdfrwt>
<totfact> 0.14716877E+03</totfact>
</mgrwt>
</event>
<event>
 6    1  0.1364923E-004  0.6684688E+03  0.7818608E-02  0.9772728E-01
         21   -1    0    0  501  502  0.00000000000E+00  0.00000000000E+00  0.15756542495E+03  0.15756542495E+03  0.00000000000E+00 0.  1.
         13   -1    0    0    0    0 -0.00000000000E+00 -0.00000000000E+00 -0.10000000000E+04  0.10000000000E+04  0.00000000000E+00 0.  1.
    9000005    2    1    2  501    0  0.87965921749E+01 -0.24670959377E+02 -0.88408872562E+03  0.11083607043E+04  0.66795549245E+03 0.  0.
         13    1    3    3    0    0  0.12500402756E+03  0.27018585887E+03 -0.64815439507E+03  0.71325347885E+03  0.00000000000E+00 0.  1.
          3    1    3    3  501    0 -0.11620743538E+03 -0.29485681825E+03 -0.23593433055E+03  0.39510722549E+03  0.00000000000E+00 0.  1.
         -3    1    1    2    0  502 -0.87965921749E+01  0.24670959377E+02  0.41654150571E+02  0.49204720609E+02  0.00000000000E+00 0. -1.
<mgrwt>
<rscale>  1 0.66846883E+03</rscale>
<asrwt>0</asrwt>
<pdfrwt beam="1">  1       21 0.24240834E-01 0.66846883E+03</pdfrwt>
<pdfrwt beam="2">0</pdfrwt>
<totfact> 0.15453450E+03</totfact>
</mgrwt>
</event>
<event>
 6    1  0.1364923E-004  0.6590674E+03  0.7818608E-02  0.9789912E-01
         21   -1    0    0  501  502  0.00000000000E+00  0.00000000000E+00  0.14864153013E+03  0.14864153013E+03  0.00000000000E+00 0.  1.
         13   -1    0    0    0    0 -0.00000000000E+00 -0.00000000000E+00 -0.10000000000E+04  0.10000000000E+04  0.00000000000E+00 0.  1.
    9000005    2    1    2  501    0  0.10306330215E+02 -0.26428483860E+02 -0.88575773741E+03  0.11040545947E+04  0.65845659959E+03 0.  0.
         13    1    3    3    0    0  0.31228258291E+03 -0.10093436535E+03 -0.58846420521E+03  0.67379394365E+03  0.00000000000E+00 0.  1.
          3    1    3    3  501    0 -0.30197625269E+03  0.74505881488E+02 -0.29729353220E+03  0.43026065107E+03  0.00000000000E+00 0.  1.
         -1    1    1    2    0  502 -0.10306330215E+02  0.26428483860E+02  0.34399267543E+02  0.44586935409E+02  0.00000000000E+00 0. -1.
<mgrwt>
<rscale>  1 0.65906736E+03</rscale>
<asrwt>0</asrwt>
<pdfrwt beam="1">  1       21 0.22867927E-01 0.65906736E+03</pdfrwt>
<pdfrwt beam="2">0</pdfrwt>
<totfact> 0.17320931E+03</totfact>
</mgrwt>
</event>
<event>
 6    1  0.1364923E-004  0.6457509E+03  0.7818608E-02  0.9814785E-01
         21   -1    0    0  501  502  0.00000000000E+00  0.00000000000E+00  0.28134115964E+03  0.28134115964E+03  0.00000000000E+00 0. -1.
         13   -1    0    0    0    0 -0.00000000000E+00 -0.00000000000E+00 -0.10000000000E+04  0.10000000000E+04  0.00000000000E+00 0.  1.
    9000005    2    1    2  501    0  0.35364287504E+02 -0.96207798041E+01 -0.89365486318E+03  0.11025485417E+04  0.64471007441E+03 0.  0.
         13    1    3    3    0    0  0.16749143475E+03  0.18840345633E+03 -0.95374600141E+02  0.26952839818E+03  0.00000000000E+00 0.  1.
          3    1    3    3  501    0 -0.13212714724E+03 -0.19802423613E+03 -0.79828026304E+03  0.83302014351E+03  0.00000000000E+00 0.  1.
         -1    1    1    2    0  502 -0.35364287504E+02  0.96207798041E+01  0.17499602282E+03  0.17879261796E+03  0.00000000000E+00 0. -1.
<mgrwt>
<rscale>  1 0.64575094E+03</rscale>
<asrwt>0</asrwt>
<pdfrwt beam="1">  1       21 0.43283254E-01 0.64575094E+03</pdfrwt>
<pdfrwt beam="2">0</pdfrwt>
<totfact> 0.47916550E+02</totfact>
</mgrwt>
</event>
<event>
 6    1  0.1364923E-004  0.6689053E+03  0.7818608E-02  0.9771937E-01
         21   -1    0    0  501  502  0.00000000000E+00  0.00000000000E+00  0.22580211143E+03  0.22580211143E+03  0.00000000000E+00 0.  1.
         13   -1    0    0    0    0 -0.00000000000E+00 -0.00000000000E+00 -0.10000000000E+04  0.10000000000E+04  0.00000000000E+00 0.  1.
    9000005    2    1    2  501    0  0.17942467701E+03  0.43176724716E+02 -0.79626758531E+03  0.10399405614E+04  0.64294390072E+03 0.  0.
         13    1    3    3    0    0  0.33325369148E+03  0.14750141454E+03 -0.20070796054E+03  0.41605092909E+03  0.00000000000E+00 0.  1.
          1    1    3    3  501    0 -0.15382901447E+03 -0.10432468982E+03 -0.59555962477E+03  0.62388963227E+03  0.00000000000E+00 0.  1.
         -1    1    1    2    0  502 -0.17942467701E+03 -0.43176724716E+02  0.22069696739E+02  0.18586155006E+03  0.00000000000E+00 0. -1.
<mgrwt>
<rscale>  1 0.66890530E+03</rscale>
<asrwt>0</asrwt>
<pdfrwt beam="1">  1       21 0.34738785E-01 0.66890530E+03</pdfrwt>
<pdfrwt beam="2">0</pdfrwt>
<totfact> 0.75366780E+02</totfact>
</mgrwt>
</event>
<event>
 6    1  0.1364923E-004  0.6546146E+03  0.7818608E-02  0.9798159E-01
         21   -1    0    0  501  502  0.00000000000E+00  0.00000000000E+00  0.25439496683E+03  0.25439496683E+03  0.00000000000E+00 0. -1.
         13   -1    0    0    0    0 -0.00000000000E+00 -0.00000000000E+00 -0.10000000000E+04  0.10000000000E+04  0.00000000000E+00 0.  1.
    9000005    2    1    2  501    0  0.74039357176E+02  0.66192768286E+01 -0.88240235804E+03  0.10987056951E+04  0.65038038236E+03 0.  0.
         13    1    3    3    0    0 -0.13277054777E+03  0.15142833998E+03 -0.22662161022E+02  0.20266261137E+03  0.00000000000E+00 0.  1.
          3    1    3    3  501    0  0.20680990494E+03 -0.14480906315E+03 -0.85974019702E+03  0.89604308374E+03  0.00000000000E+00 0.  1.
         -3    1    1    2    0  502 -0.74039357176E+02 -0.66192768286E+01  0.13679732487E+03  0.15568927172E+03  0.00000000000E+00 0. -1.
<mgrwt>
<rscale>  1 0.65461461E+03</rscale>
<asrwt>0</asrwt>
<pdfrwt beam="1">  1       21 0.39137686E-01 0.65461461E+03</pdfrwt>
<pdfrwt beam="2">0</pdfrwt>
<totfact> 0.59063906E+02</totfact>
</mgrwt>
</event>
<event>
 6    1  0.1364923E-004  0.4698092E+03  0.7818608E-02  0.1021974E+00
         21   -1    0    0  501  502  0.00000000000E+00  0.00000000000E+00  0.10517784408E+03  0.10517784408E+03  0.00000000000E+00 0. -1.
         13   -1    0    0    0    0 -0.00000000000E+00 -0.00000000000E+00 -0.10000000000E+04  0.10000000000E+04  0.00000000000E+00 0.  1.
    9000005    2    1    2  501    0 -0.41966903608E+02 -0.19415229633E+01 -0.93540970676E+03  0.10467626081E+04  0.46792696837E+03 0.  0.
         13    1    3    3    0    0  0.12977666017E+03 -0.91234853798E+02 -0.96219216343E+02  0.18553683641E+03  0.00000000000E+00 0.  1.
          1    1    3    3  501    0 -0.17174356378E+03  0.89293330835E+02 -0.83919049042E+03  0.86122577170E+03  0.00000000000E+00 0.  1.
         -3    1    1    2    0  502  0.41966903608E+02  0.19415229633E+01  0.40587550839E+02  0.58415235966E+02  0.00000000000E+00 0. -1.
<mgrwt>
<rscale>  1 0.46980915E+03</rscale>
<asrwt>0</asrwt>
<pdfrwt beam="1">  1       21 0.16181206E-01 0.46980915E+03</pdfrwt>
<pdfrwt beam="2">0</pdfrwt>
<totfact> 0.33740160E+03</totfact>
</mgrwt>
</event>
<event>
 6    1  0.1364923E-004  0.6773405E+03  0.7818608E-02  0.9756787E-01
         21   -1    0    0  501  502  0.00000000000E+00  0.00000000000E+00  0.49819249576E+03  0.49819249576E+03  0.00000000000E+00 0. -1.
         13   -1    0    0    0    0 -0.00000000000E+00 -0.00000000000E+00 -0.10000000000E+04  0.10000000000E+04  0.00000000000E+00 0.  1.
    9000005    2    1    2  501    0  0.19450212473E+03 -0.22457585312E+02 -0.85715367248E+03  0.10924754528E+04  0.64842484304E+03 0.  0.
         13    1    3    3    0    0  0.50481684112E+02  0.29075707958E+03 -0.57764653602E+03  0.64866293276E+03  0.00000000000E+00 0.  1.
          1    1    3    3  501    0  0.14402044062E+03 -0.31321466489E+03 -0.27950713646E+03  0.44381252004E+03  0.00000000000E+00 0.  1.
         -3    1    1    2    0  502 -0.19450212473E+03  0.22457585312E+02  0.35534616824E+03  0.40571704295E+03  0.00000000000E+00 0. -1.
<mgrwt>
<rscale>  1 0.67734053E+03</rscale>
<asrwt>0</asrwt>
<pdfrwt beam="1">  1       21 0.76644997E-01 0.67734053E+03</pdfrwt>
<pdfrwt beam="2">0</pdfrwt>
<totfact> 0.13600953E+02</totfact>
</mgrwt>
</event>
<event>
 6    1  0.1364923E-004  0.6485110E+03  0.7818608E-02  0.9809577E-01
         21   -1    0    0  501  502  0.00000000000E+00  0.00000000000E+00  0.12549942465E+03  0.12549942465E+03  0.00000000000E+00 0.  1.
         13   -1    0    0    0    0 -0.00000000000E+00 -0.00000000000E+00 -0.10000000000E+04  0.10000000000E+04  0.00000000000E+00 0.  1.
    9000005    2    1    2  501    0 -0.22956799858E+02  0.53769364432E+02 -0.82113676055E+03  0.10463422649E+04  0.64587026295E+03 0.  0.
         13    1    3    3    0    0 -0.40261035614E+02  0.26489421910E+03 -0.86162009352E+02  0.28144944512E+03  0.00000000000E+00 0.  1.
          1    1    3    3  501    0  0.17304235756E+02 -0.21112485467E+03 -0.73497475120E+03  0.76489281977E+03  0.00000000000E+00 0.  1.
         -1    1    1    2    0  502  0.22956799858E+02 -0.53769364432E+02 -0.53363814802E+02  0.79157159761E+02  0.00000000000E+00 0. -1.
<mgrwt>
<rscale>  1 0.64851103E+03</rscale>
<asrwt>0</asrwt>
<pdfrwt beam="1">  1       21 0.19307603E-01 0.64851103E+03</pdfrwt>
<pdfrwt beam="2">0</pdfrwt>
<totfact> 0.24009877E+03</totfact>
</mgrwt>
</event>
<event>
 6    1  0.1364923E-004  0.6410322E+03  0.7818608E-02  0.9823754E-01
         21   -1    0    0  501  502  0.00000000000E+00  0.00000000000E+00  0.13863574962E+03  0.13863574962E+03  0.00000000000E+00 0.  1.
         13   -1    0    0    0    0 -0.00000000000E+00 -0.00000000000E+00 -0.10000000000E+04  0.10000000000E+04  0.00000000000E+00 0.  1.
    9000005    2    1    2  501    0 -0.16850038807E+02  0.11960888854E+02 -0.89396160554E+03  0.11000407469E+04  0.64069907605E+03 0.  0.
         13    1    3    3    0    0 -0.21572684562E+03 -0.87543939997E+02 -0.64925245641E+02  0.24169671259E+03  0.00000000000E+00 0.  1.
          3    1    3    3  501    0  0.19887680682E+03  0.99504828851E+02 -0.82903635989E+03  0.85834403434E+03  0.00000000000E+00 0.  1.
         -1    1    1    2    0  502  0.16850038807E+02 -0.11960888854E+02  0.32597355151E+02  0.38595002692E+02  0.00000000000E+00 0. -1.
<mgrwt>
<rscale>  1 0.64103221E+03</rscale>
<asrwt>0</asrwt>
<pdfrwt beam="1">  1       21 0.21328576E-01 0.64103221E+03</pdfrwt>
<pdfrwt beam="2">0</pdfrwt>
<totfact> 0.19838731E+03</totfact>
</mgrwt>
</event>
<event>
 6    1  0.1364923E-004  0.6215575E+03  0.7818608E-02  0.9861664E-01
         21   -1    0    0  501  502  0.00000000000E+00  0.00000000000E+00  0.59259326947E+03  0.59259326947E+03  0.00000000000E+00 0. -1.
         13   -1    0    0    0    0 -0.00000000000E+00 -0.00000000000E+00 -0.10000000000E+04  0.10000000000E+04  0.00000000000E+00 0.  1.
    9000005    2    1    2  501    0 -0.57684097201E+02  0.42188034457E+02 -0.90059170604E+03  0.10942573332E+04  0.61743534472E+03 0.  0.
         13    1    3    3    0    0  0.26409054248E+03  0.92683617364E+02 -0.54081028100E+03  0.60894156336E+03  0.00000000000E+00 0.  1.
          1    1    3    3  501    0 -0.32177463968E+03 -0.50495582907E+02 -0.35978142505E+03  0.48531576983E+03  0.00000000000E+00 0.  1.
         -3    1    1    2    0  502  0.57684097201E+02 -0.42188034457E+02  0.49318497552E+03  0.49833593629E+03  0.00000000000E+00 0. -1.
<mgrwt>
<rscale>  1 0.62155747E+03</rscale>
<asrwt>0</asrwt>
<pdfrwt beam="1">  1       21 0.91168193E-01 0.62155747E+03</pdfrwt>
<pdfrwt beam="2">0</pdfrwt>
<totfact> 0.91104404E+01</totfact>
</mgrwt>
</event>
<event>
 6    1  0.1364923E-004  0.6531124E+03  0.7818608E-02  0.9800957E-01
         21   -1    0    0  501  502  0.00000000000E+00  0.00000000000E+00  0.17952437284E+03  0.17952437284E+03  0.00000000000E+00 0.  1.
         13   -1    0    0    0    0 -0.00000000000E+00 -0.00000000000E+00 -0.10000000000E+04  0.10000000000E+04  0.00000000000E+00 0.  1.
    9000005    2    1    2  501    0 -0.13430431124E+02  0.29562255689E+02 -0.88933622706E+03  0.11033923450E+04  0.65230471318E+03 0.  0.
         13    1    3    3    0    0  0.16539082537E+03 -0.33975465931E+02  0.24006344410E+02  0.17054255180E+03  0.00000000000E+00 0.  1.
          1    1    3    3  501    0 -0.17882125650E+03  0.63537721620E+02 -0.91334257147E+03  0.93284979322E+03  0.00000000000E+00 0.  1.
         -1    1    1    2    0  502  0.13430431124E+02 -0.29562255689E+02  0.68860599902E+02  0.76132027823E+02  0.00000000000E+00 0. -1.
<mgrwt>
<rscale>  1 0.65311235E+03</rscale>
<asrwt>0</asrwt>
<pdfrwt beam="1">  1       21 0.27619133E-01 0.65311235E+03</pdfrwt>
<pdfrwt beam="2">0</pdfrwt>
<totfact> 0.11963360E+03</totfact>
</mgrwt>
</event>
<event>
 6    1  0.1364923E-004  0.6583453E+03  0.7818608E-02  0.9791245E-01
         21   -1    0    0  501  502  0.00000000000E+00  0.00000000000E+00  0.13091326290E+03  0.13091326290E+03  0.00000000000E+00 0.  1.
         13   -1    0    0    0    0 -0.00000000000E+00 -0.00000000000E+00 -0.10000000000E+04  0.10000000000E+04  0.00000000000E+00 0.  1.
    9000005    2    1    2  501    0  0.57521687200E+02 -0.29176730129E+02 -0.77561128777E+03  0.10173452846E+04  0.65517824461E+03 0.  0.
         13    1    3    3    0    0 -0.18409428357E+03  0.70430549609E+02 -0.72478173548E+03  0.75110567275E+03  0.00000000000E+00 0.  1.
          3    1    3    3  501    0  0.24161597077E+03 -0.99607279738E+02 -0.50829552297E+02  0.26623961180E+03  0.00000000000E+00 0.  1.
         -1    1    1    2    0  502 -0.57521687200E+02  0.29176730129E+02 -0.93475449325E+02  0.11356797835E+03  0.00000000000E+00 0. -1.
<mgrwt>
<rscale>  1 0.65834532E+03</rscale>
<asrwt>0</asrwt>
<pdfrwt beam="1">  1       21 0.20140501E-01 0.65834532E+03</pdfrwt>
<pdfrwt beam="2">0</pdfrwt>
<totfact> 0.22135898E+03</totfact>
</mgrwt>
</event>
<event>
 6    1  0.1364923E-004  0.6582370E+03  0.7818608E-02  0.9791445E-01
         21   -1    0    0  501  502  0.00000000000E+00  0.00000000000E+00  0.14995739208E+03  0.14995739208E+03  0.00000000000E+00 0.  1.
         13   -1    0    0    0    0 -0.00000000000E+00 -0.00000000000E+00 -0.10000000000E+04  0.10000000000E+04  0.00000000000E+00 0.  1.
    9000005    2    1    2  501    0 -0.48979914200E+02 -0.84164924266E+01 -0.87451913753E+03  0.10945591083E+04  0.65635817235E+03 0.  0.
         13    1    3    3    0    0 -0.72856240930E+02 -0.14316695979E+03 -0.93228063209E+03  0.94601902053E+03  0.00000000000E+00 0.  1.
          1    1    3    3  501    0  0.23876326730E+02  0.13475046737E+03  0.57761494568E+02  0.14854008782E+03  0.00000000000E+00 0.  1.
         -1    1    1    2    0  502  0.48979914200E+02  0.84164924266E+01  0.24476529606E+02  0.55398283740E+02  0.00000000000E+00 0. -1.
<mgrwt>
<rscale>  1 0.65823698E+03</rscale>
<asrwt>0</asrwt>
<pdfrwt beam="1">  1       21 0.23070367E-01 0.65823698E+03</pdfrwt>
<pdfrwt beam="2">0</pdfrwt>
<totfact> 0.17027357E+03</totfact>
</mgrwt>
</event>
<event>
 6    1  0.1364923E-004  0.5418046E+03  0.7818608E-02  0.1003409E+00
         21   -1    0    0  501  502  0.00000000000E+00  0.00000000000E+00  0.10350887992E+03  0.10350887992E+03  0.00000000000E+00 0.  1.
         13   -1    0    0    0    0 -0.00000000000E+00 -0.00000000000E+00 -0.10000000000E+04  0.10000000000E+04  0.00000000000E+00 0.  1.
    9000005    2    1    2  501    0 -0.17662695961E+02 -0.13676303363E+02 -0.92211894479E+03  0.10695118580E+04  0.54134393309E+03 0.  0.
         13    1    3    3    0    0  0.11231733957E+03 -0.22152511736E+03 -0.24288100694E+03  0.34738990475E+03  0.00000000000E+00 0.  1.
          3    1    3    3  501    0 -0.12998003553E+03  0.20784881399E+03 -0.67923793785E+03  0.72212195322E+03  0.00000000000E+00 0.  1.
         -1    1    1    2    0  502  0.17662695961E+02  0.13676303363E+02  0.25627824710E+02  0.33997021952E+02  0.00000000000E+00 0. -1.
<mgrwt>
<rscale>  1 0.54180464E+03</rscale>
<asrwt>0</asrwt>
<pdfrwt beam="1">  1       21 0.15924443E-01 0.54180464E+03</pdfrwt>
<pdfrwt beam="2">0</pdfrwt>
<totfact> 0.34683329E+03</totfact>
</mgrwt>
</event>
<event>
 6    1  0.1364923E-004  0.6438105E+03  0.7818608E-02  0.9818463E-01
         21   -1    0    0  501  502  0.00000000000E+00  0.00000000000E+00  0.21538516421E+03  0.21538516421E+03  0.00000000000E+00 0. -1.
         13   -1    0    0    0    0 -0.00000000000E+00 -0.00000000000E+00 -0.10000000000E+04  0.10000000000E+04  0.00000000000E+00 0.  1.
    9000005    2    1    2  501    0 -0.94252507674E+01 -0.36886878671E+02 -0.89278675343E+03  0.11007089202E+04  0.64268379688E+03 0.  0.
         13    1    3    3    0    0 -0.26583574027E+02  0.29138766165E+03 -0.27825382852E+03  0.40378044635E+03  0.00000000000E+00 0.  1.
          3    1    3    3  501    0  0.17158323260E+02 -0.32827454032E+03 -0.61453292491E+03  0.69692847387E+03  0.00000000000E+00 0.  1.
         -1    1    1    2    0  502  0.94252507674E+01  0.36886878671E+02  0.10817191764E+03  0.11467624399E+03  0.00000000000E+00 0. -1.
<mgrwt>
<rscale>  1 0.64381048E+03</rscale>
<asrwt>0</asrwt>
<pdfrwt beam="1">  1       21 0.33136178E-01 0.64381048E+03</pdfrwt>
<pdfrwt beam="2">0</pdfrwt>
<totfact> 0.83102759E+02</totfact>
</mgrwt>
</event>
<event>
 6    1  0.1364923E-004  0.6338382E+03  0.7818608E-02  0.9837587E-01
         21   -1    0    0  501  502  0.00000000000E+00  0.00000000000E+00  0.30854117095E+03  0.30854117095E+03  0.00000000000E+00 0. -1.
         13   -1    0    0    0    0 -0.00000000000E+00 -0.00000000000E+00 -0.10000000000E+04  0.10000000000E+04  0.00000000000E+00 0.  1.
    9000005    2    1    2  501    0  0.18446188174E+02  0.11802307032E+02 -0.89892811447E+03  0.10999193583E+04  0.63345977261E+03 0.  0.
         13    1    3    3    0    0 -0.44225210706E+02 -0.25751976078E+03 -0.73125964174E+03  0.77653909115E+03  0.00000000000E+00 0.  1.
          3    1    3    3  501    0  0.62671398880E+02  0.26932206781E+03 -0.16766847273E+03  0.32338026717E+03  0.00000000000E+00 0.  1.
         -1    1    1    2    0  502 -0.18446188174E+02 -0.11802307032E+02  0.20746928542E+03  0.20862181263E+03  0.00000000000E+00 0. -1.
<mgrwt>
<rscale>  1 0.63383818E+03</rscale>
<asrwt>0</asrwt>
<pdfrwt beam="1">  1       21 0.47467871E-01 0.63383818E+03</pdfrwt>
<pdfrwt beam="2">0</pdfrwt>
<totfact> 0.39471074E+02</totfact>
</mgrwt>
</event>
<event>
 6    1  0.1364923E-004  0.6578398E+03  0.7818608E-02  0.9792179E-01
         21   -1    0    0  501  502  0.00000000000E+00  0.00000000000E+00  0.14169665725E+03  0.14169665725E+03  0.00000000000E+00 0.  1.
         13   -1    0    0    0    0 -0.00000000000E+00 -0.00000000000E+00 -0.10000000000E+04  0.10000000000E+04  0.00000000000E+00 0.  1.
    9000005    2    1    2  501    0  0.43878912571E+02  0.84208207031E+02 -0.74528929561E+03  0.99408718618E+03  0.65095070356E+03 0.  0.
         13    1    3    3    0    0 -0.16718640037E+02  0.69232575457E+02 -0.86029259250E+03  0.86323577726E+03  0.00000000000E+00 0.  1.
          1    1    3    3  501    0  0.60597552608E+02  0.14975631574E+02  0.11500329688E+03  0.13085140892E+03  0.00000000000E+00 0.  1.
         -1    1    1    2    0  502 -0.43878912571E+02 -0.84208207031E+02 -0.11301404714E+03  0.14760947107E+03  0.00000000000E+00 0. -1.
<mgrwt>
<rscale>  1 0.65783980E+03</rscale>
<asrwt>0</asrwt>
<pdfrwt beam="1">  1       21 0.21799485E-01 0.65783980E+03</pdfrwt>
<pdfrwt beam="2">0</pdfrwt>
<totfact> 0.19005444E+03</totfact>
</mgrwt>
</event>
<event>
 6    1  0.1364923E-004  0.6563414E+03  0.7818608E-02  0.9794952E-01
         21   -1    0    0  501  502  0.00000000000E+00  0.00000000000E+00  0.34906238788E+03  0.34906238788E+03  0.00000000000E+00 0. -1.
         13   -1    0    0    0    0 -0.00000000000E+00 -0.00000000000E+00 -0.10000000000E+04  0.10000000000E+04  0.00000000000E+00 0.  1.
    9000005    2    1    2  501    0 -0.59679130717E+02 -0.33639666763E+02 -0.88690500509E+03  0.11033515083E+04  0.65275633808E+03 0.  0.
         13    1    3    3    0    0 -0.35211593621E+03 -0.20546571181E+02 -0.58299811648E+03  0.68139166266E+03  0.00000000000E+00 0.  1.
          3    1    3    3  501    0  0.29243680549E+03 -0.13093095582E+02 -0.30390688860E+03  0.42195984560E+03  0.00000000000E+00 0.  1.
         -3    1    1    2    0  502  0.59679130717E+02  0.33639666763E+02  0.23596739297E+03  0.24571087963E+03  0.00000000000E+00 0. -1.
<mgrwt>
<rscale>  1 0.65634142E+03</rscale>
<asrwt>0</asrwt>
<pdfrwt beam="1">  1       21 0.53701904E-01 0.65634142E+03</pdfrwt>
<pdfrwt beam="2">0</pdfrwt>
<totfact> 0.30219130E+02</totfact>
</mgrwt>
</event>
<event>
 6    1  0.1364923E-004  0.6010564E+03  0.7818608E-02  0.9903217E-01
         21   -1    0    0  501  502  0.00000000000E+00  0.00000000000E+00  0.10556002762E+03  0.10556002762E+03  0.00000000000E+00 0.  1.
         13   -1    0    0    0    0 -0.00000000000E+00 -0.00000000000E+00 -0.10000000000E+04  0.10000000000E+04  0.00000000000E+00 0.  1.
    9000005    2    1    2  501    0 -0.24469636073E+02  0.44437314185E+01 -0.89784278156E+03  0.10804584550E+04  0.60054167442E+03 0.  0.
         13    1    3    3    0    0  0.10235859701E+03 -0.26224109436E+03 -0.28720026622E+03  0.40215875829E+03  0.00000000000E+00 0.  1.
          3    1    3    3  501    0 -0.12682823308E+03  0.26668482577E+03 -0.61064251534E+03  0.67829969670E+03  0.00000000000E+00 0.  1.
         -1    1    1    2    0  502  0.24469636073E+02 -0.44437314185E+01  0.34028091763E+01  0.25101572635E+02  0.00000000000E+00 0. -1.
<mgrwt>
<rscale>  1 0.60105641E+03</rscale>
<asrwt>0</asrwt>
<pdfrwt beam="1">  1       21 0.16240004E-01 0.60105641E+03</pdfrwt>
<pdfrwt beam="2">0</pdfrwt>
<totfact> 0.33372334E+03</totfact>
</mgrwt>
</event>
<event>
 6    1  0.1364923E-004  0.6413752E+03  0.7818608E-02  0.9823099E-01
         21   -1    0    0  501  502  0.00000000000E+00  0.00000000000E+00  0.12370504847E+03  0.12370504847E+03  0.00000000000E+00 0.  1.
         13   -1    0    0    0    0 -0.00000000000E+00 -0.00000000000E+00 -0.10000000000E+04  0.10000000000E+04  0.00000000000E+00 0.  1.
    9000005    2    1    2  501    0 -0.34187785822E+02 -0.18150834732E+01 -0.88037143986E+03  0.10892272732E+04  0.64046083520E+03 0.  0.
         13    1    3    3    0    0  0.24711776738E+03  0.15159249444E+03 -0.58747142956E+03  0.65511079664E+03  0.00000000000E+00 0.  1.
          1    1    3    3  501    0 -0.28130555321E+03 -0.15340757791E+03 -0.29290001031E+03  0.43411647661E+03  0.00000000000E+00 0.  1.
         -3    1    1    2    0  502  0.34187785822E+02  0.18150834732E+01  0.40764883380E+01  0.34477775227E+02  0.00000000000E+00 0. -1.
<mgrwt>
<rscale>  1 0.64137523E+03</rscale>
<asrwt>0</asrwt>
<pdfrwt beam="1">  1       21 0.19031545E-01 0.64137523E+03</pdfrwt>
<pdfrwt beam="2">0</pdfrwt>
<totfact> 0.24685894E+03</totfact>
</mgrwt>
</event>
<event>
 6    1  0.1364923E-004  0.5983795E+03  0.7818608E-02  0.9908774E-01
         21   -1    0    0  501  502  0.00000000000E+00  0.00000000000E+00  0.12208408114E+03  0.12208408114E+03  0.00000000000E+00 0.  1.
         13   -1    0    0    0    0 -0.00000000000E+00 -0.00000000000E+00 -0.10000000000E+04  0.10000000000E+04  0.00000000000E+00 0.  1.
    9000005    2    1    2  501    0 -0.29065746931E+02 -0.48823438021E+02 -0.88120714739E+03  0.10651685479E+04  0.59567562731E+03 0.  0.
         13    1    3    3    0    0 -0.81895712333E+02 -0.30134417030E+03 -0.63937170049E+03  0.71155561136E+03  0.00000000000E+00 0.  1.
          1    1    3    3  501    0  0.52829965402E+02  0.25252073228E+03 -0.24183544690E+03  0.35361293649E+03  0.00000000000E+00 0.  1.
         -3    1    1    2    0  502  0.29065746931E+02  0.48823438021E+02  0.32912285374E+01  0.56915533294E+02  0.00000000000E+00 0. -1.
<mgrwt>
<rscale>  1 0.59837948E+03</rscale>
<asrwt>0</asrwt>
<pdfrwt beam="1">  1       21 0.18782166E-01 0.59837948E+03</pdfrwt>
<pdfrwt beam="2">0</pdfrwt>
<totfact> 0.25355417E+03</totfact>
</mgrwt>
</event>
<event>
 6    1  0.1364923E-004  0.5778063E+03  0.7818608E-02  0.9952552E-01
         21   -1    0    0  501  502  0.00000000000E+00  0.00000000000E+00  0.16390126473E+03  0.16390126473E+03  0.00000000000E+00 0.  1.
         13   -1    0    0    0    0 -0.00000000000E+00 -0.00000000000E+00 -0.10000000000E+04  0.10000000000E+04  0.00000000000E+00 0.  1.
    9000005    2    1    2  501    0 -0.13572726904E+03 -0.68607300382E+02 -0.83048734165E+03  0.10117160455E+04  0.55743275716E+03 0.  0.
         13    1    3    3    0    0 -0.15448309198E+03 -0.11731930077E+03 -0.90231176303E+03  0.92292760374E+03  0.00000000000E+00 0.  1.
          3    1    3    3  501    0  0.18755822945E+02  0.48712000385E+02  0.71824421378E+02  0.88788441715E+02  0.00000000000E+00 0.  1.
         -1    1    1    2    0  502  0.13572726904E+03  0.68607300382E+02 -0.56113936210E+01  0.15218521927E+03  0.00000000000E+00 0. -1.
<mgrwt>
<rscale>  1 0.57780631E+03</rscale>
<asrwt>0</asrwt>
<pdfrwt beam="1">  1       21 0.25215578E-01 0.57780631E+03</pdfrwt>
<pdfrwt beam="2">0</pdfrwt>
<totfact> 0.14376169E+03</totfact>
</mgrwt>
</event>
<event>
 6    1  0.1364923E-004  0.6536037E+03  0.7818608E-02  0.9800040E-01
         21   -1    0    0  501  502  0.00000000000E+00  0.00000000000E+00  0.14830024485E+03  0.14830024485E+03  0.00000000000E+00 0.  1.
         13   -1    0    0    0    0 -0.00000000000E+00 -0.00000000000E+00 -0.10000000000E+04  0.10000000000E+04  0.00000000000E+00 0.  1.
    9000005    2    1    2  501    0  0.97240879181E+02 -0.20068118549E+02 -0.80946798889E+03  0.10404019592E+04  0.64601802893E+03 0.  0.
         13    1    3    3    0    0  0.88503339098E+02  0.73398145238E+02  0.83761174065E+02  0.14225351678E+03  0.00000000000E+00 0.  1.
          3    1    3    3  501    0  0.87375400829E+01 -0.93466263787E+02 -0.89322916295E+03  0.89814844242E+03  0.00000000000E+00 0.  1.
         -3    1    1    2    0  502 -0.97240879181E+02  0.20068118549E+02 -0.42231766260E+02  0.10789828566E+03  0.00000000000E+00 0. -1.
<mgrwt>
<rscale>  1 0.65360371E+03</rscale>
<asrwt>0</asrwt>
<pdfrwt beam="1">  1       21 0.22815422E-01 0.65360371E+03</pdfrwt>
<pdfrwt beam="2">0</pdfrwt>
<totfact> 0.17402864E+03</totfact>
</mgrwt>
</event>
<event>
 6    1  0.1364923E-004  0.7105376E+03  0.7818608E-02  0.9699379E-01
         21   -1    0    0  501  502  0.00000000000E+00  0.00000000000E+00  0.46099249094E+03  0.46099249094E+03  0.00000000000E+00 0. -1.
         13   -1    0    0    0    0 -0.00000000000E+00 -0.00000000000E+00 -0.10000000000E+04  0.10000000000E+04  0.00000000000E+00 0.  1.
    9000005    2    1    2  501    0 -0.43933039071E+02  0.26143821951E+03 -0.81300318850E+03  0.10797397049E+04  0.65922954364E+03 0.  0.
         13    1    3    3    0    0 -0.24792775141E+03  0.39520850681E+03 -0.54027769217E+03  0.71383325674E+03  0.00000000000E+00 0.  1.
          1    1    3    3  501    0  0.20399471234E+03 -0.13377028730E+03 -0.27272549633E+03  0.36590644812E+03  0.00000000000E+00 0.  1.
         -3    1    1    2    0  502  0.43933039071E+02 -0.26143821951E+03  0.27399567944E+03  0.38125278608E+03  0.00000000000E+00 0. -1.
<mgrwt>
<rscale>  1 0.71053758E+03</rscale>
<asrwt>0</asrwt>
<pdfrwt beam="1">  1       21 0.70921920E-01 0.71053758E+03</pdfrwt>
<pdfrwt beam="2">0</pdfrwt>
<totfact> 0.16191395E+02</totfact>
</mgrwt>
</event>
<event>
 6    1  0.1364923E-004  0.6714244E+03  0.7818608E-02  0.9767388E-01
         21   -1    0    0  501  502  0.00000000000E+00  0.00000000000E+00  0.23531524918E+03  0.23531524918E+03  0.00000000000E+00 0. -1.
         13   -1    0    0    0    0 -0.00000000000E+00 -0.00000000000E+00 -0.10000000000E+04  0.10000000000E+04  0.00000000000E+00 0.  1.
    9000005    2    1    2  501    0  0.59210957515E+01  0.15088506295E+03 -0.83272528481E+03  0.10696925579E+04  0.65422427873E+03 0.  0.
         13    1    3    3    0    0  0.10554416186E+03  0.34339846850E+03 -0.76072008462E+03  0.84128302337E+03  0.00000000000E+00 0.  1.
          1    1    3    3  501    0 -0.99623066113E+02 -0.19251340554E+03 -0.72005200199E+02  0.22840953454E+03  0.00000000000E+00 0.  1.
         -3    1    1    2    0  502 -0.59210957515E+01 -0.15088506295E+03  0.68040533997E+02  0.16562269127E+03  0.00000000000E+00 0. -1.
<mgrwt>
<rscale>  1 0.67142443E+03</rscale>
<asrwt>0</asrwt>
<pdfrwt beam="1">  1       21 0.36202345E-01 0.67142443E+03</pdfrwt>
<pdfrwt beam="2">0</pdfrwt>
<totfact> 0.69258980E+02</totfact>
</mgrwt>
</event>
<event>
 6    1  0.1364923E-004  0.9011284E+03  0.7818608E-02  0.9424172E-01
         21   -1    0    0  501  502  0.00000000000E+00  0.00000000000E+00  0.87874362849E+03  0.87874362849E+03  0.00000000000E+00 0. -1.
         13   -1    0    0    0    0 -0.00000000000E+00 -0.00000000000E+00 -0.10000000000E+04  0.10000000000E+04  0.00000000000E+00 0.  1.
    9000005    2    1    2  501    0  0.59048049276E+03  0.21110288237E+03 -0.60617664969E+03  0.10860398279E+04  0.64714815760E+03 0.  0.
         13    1    3    3    0    0  0.16926611307E+02  0.28392678852E+03 -0.35704600288E+03  0.45648962703E+03  0.00000000000E+00 0.  1.
          3    1    3    3  501    0  0.57355388146E+03 -0.72823906152E+02 -0.24913064681E+03  0.62955020087E+03  0.00000000000E+00 0.  1.
         -1    1    1    2    0  502 -0.59048049276E+03 -0.21110288237E+03  0.48492027818E+03  0.79270380059E+03  0.00000000000E+00 0. -1.
<mgrwt>
<rscale>  1 0.90112839E+03</rscale>
<asrwt>0</asrwt>
<pdfrwt beam="1">  1       21 0.13519132E+00 0.90112839E+03</pdfrwt>
<pdfrwt beam="2">0</pdfrwt>
<totfact> 0.32382881E+01</totfact>
</mgrwt>
</event>
<event>
 6    1  0.1364923E-004  0.6635094E+03  0.7818608E-02  0.9781755E-01
         21   -1    0    0  501  502  0.00000000000E+00  0.00000000000E+00  0.16231910861E+03  0.16231910861E+03  0.00000000000E+00 0. -1.
         13   -1    0    0    0    0 -0.00000000000E+00 -0.00000000000E+00 -0.10000000000E+04  0.10000000000E+04  0.00000000000E+00 0.  1.
    9000005    2    1    2  501    0  0.64336684033E+02  0.11957301455E+03 -0.74654992201E+03  0.99879000324E+03  0.64946729694E+03 0.  0.
         13    1    3    3    0    0  0.13278997381E+03  0.31879080115E+03 -0.70363433993E+03  0.78381250078E+03  0.00000000000E+00 0.  1.
          3    1    3    3  501    0 -0.68453289774E+02 -0.19921778660E+03 -0.42915582080E+02  0.21497750246E+03  0.00000000000E+00 0.  1.
         -1    1    1    2    0  502 -0.64336684033E+02 -0.11957301455E+03 -0.91130969380E+02  0.16352910537E+03  0.00000000000E+00 0. -1.
<mgrwt>
<rscale>  1 0.66350937E+03</rscale>
<asrwt>0</asrwt>
<pdfrwt beam="1">  1       21 0.24972170E-01 0.66350937E+03</pdfrwt>
<pdfrwt beam="2">0</pdfrwt>
<totfact> 0.14583404E+03</totfact>
</mgrwt>
</event>
<event>
 6    1  0.1364923E-004  0.6574614E+03  0.7818608E-02  0.9792878E-01
         21   -1    0    0  501  502  0.00000000000E+00  0.00000000000E+00  0.12875098220E+03  0.12875098220E+03  0.00000000000E+00 0.  1.
         13   -1    0    0    0    0 -0.00000000000E+00 -0.00000000000E+00 -0.10000000000E+04  0.10000000000E+04  0.00000000000E+00 0.  1.
    9000005    2    1    2  501    0  0.20802956245E+02 -0.10619036288E+02 -0.88435344469E+03  0.11019694041E+04  0.65704644095E+03 0.  0.
         13    1    3    3    0    0 -0.31457557352E+03 -0.48288890563E+02 -0.46901843239E+03  0.56680499145E+03  0.00000000000E+00 0.  1.
          3    1    3    3  501    0  0.33537852977E+03  0.37669854276E+02 -0.41533501230E+03  0.53516441267E+03  0.00000000000E+00 0.  1.
         -3    1    1    2    0  502 -0.20802956245E+02  0.10619036288E+02  0.13104426891E+02  0.26781578078E+02  0.00000000000E+00 0. -1.
<mgrwt>
<rscale>  1 0.65746145E+03</rscale>
<asrwt>0</asrwt>
<pdfrwt beam="1">  1       21 0.19807843E-01 0.65746145E+03</pdfrwt>
<pdfrwt beam="2">0</pdfrwt>
<totfact> 0.22855132E+03</totfact>
</mgrwt>
</event>
<event>
 6    1  0.1364923E-004  0.6555904E+03  0.7818608E-02  0.9796345E-01
         21   -1    0    0  501  502  0.00000000000E+00  0.00000000000E+00  0.36413903916E+03  0.36413903916E+03  0.00000000000E+00 0. -1.
         13   -1    0    0    0    0 -0.00000000000E+00 -0.00000000000E+00 -0.10000000000E+04  0.10000000000E+04  0.00000000000E+00 0.  1.
    9000005    2    1    2  501    0 -0.79988677656E+01 -0.56544734261E+02 -0.88902691318E+03  0.11046119919E+04  0.65309839329E+03 0.  0.
         13    1    3    3    0    0  0.10715670123E+03  0.13423256639E+02 -0.95042262434E+03  0.95653850277E+03  0.00000000000E+00 0.  1.
          1    1    3    3  501    0 -0.11515556899E+03 -0.69967990900E+02  0.61395711153E+02  0.14807348908E+03  0.00000000000E+00 0.  1.
         -3    1    1    2    0  502  0.79988677656E+01  0.56544734261E+02  0.25316595234E+03  0.25952704731E+03  0.00000000000E+00 0. -1.
<mgrwt>
<rscale>  1 0.65559042E+03</rscale>
<asrwt>0</asrwt>
<pdfrwt beam="1">  1       21 0.56021389E-01 0.65559042E+03</pdfrwt>
<pdfrwt beam="2">0</pdfrwt>
<totfact> 0.27565680E+02</totfact>
</mgrwt>
</event>
<event>
 6    1  0.1364923E-004  0.6731555E+03  0.7818608E-02  0.9764274E-01
         21   -1    0    0  501  502  0.00000000000E+00  0.00000000000E+00  0.55991305927E+03  0.55991305927E+03  0.00000000000E+00 0. -1.
         13   -1    0    0    0    0 -0.00000000000E+00 -0.00000000000E+00 -0.10000000000E+04  0.10000000000E+04  0.00000000000E+00 0.  1.
    9000005    2    1    2  501    0  0.16137642259E+02 -0.18164787130E+02 -0.88634747167E+03  0.11129915399E+04  0.67271683818E+03 0.  0.
         13    1    3    3    0    0  0.30708836349E+03 -0.16059620125E+03 -0.40854346013E+03  0.53572582695E+03  0.00000000000E+00 0.  1.
          1    1    3    3  501    0 -0.29095072123E+03  0.14243141412E+03 -0.47780401154E+03  0.57726571296E+03  0.00000000000E+00 0.  1.
         -3    1    1    2    0  502 -0.16137642259E+02  0.18164787130E+02  0.44626053095E+03  0.44692151936E+03  0.00000000000E+00 0. -1.
<mgrwt>
<rscale>  1 0.67315550E+03</rscale>
<asrwt>0</asrwt>
<pdfrwt beam="1">  1       21 0.86140468E-01 0.67315550E+03</pdfrwt>
<pdfrwt beam="2">0</pdfrwt>
<totfact> 0.10353688E+02</totfact>
</mgrwt>
</event>
<event>
 6    1  0.1364923E-004  0.6492620E+03  0.7818608E-02  0.9808165E-01
         21   -1    0    0  501  502  0.00000000000E+00  0.00000000000E+00  0.11213106233E+03  0.11213106233E+03  0.00000000000E+00 0.  1.
         13   -1    0    0    0    0 -0.00000000000E+00 -0.00000000000E+00 -0.10000000000E+04  0.10000000000E+04  0.00000000000E+00 0.  1.
    9000005    2    1    2  501    0  0.15031119317E+02  0.13299489958E+02 -0.86724163960E+03  0.10833509232E+04  0.64895173196E+03 0.  0.
         13    1    3    3    0    0  0.13014577535E+02 -0.25789544865E+03 -0.11306137441E+03  0.28189061007E+03  0.00000000000E+00 0.  1.
          1    1    3    3  501    0  0.20165417823E+01  0.27119493860E+03 -0.75418026519E+03  0.80146031316E+03  0.00000000000E+00 0.  1.
         -3    1    1    2    0  502 -0.15031119317E+02 -0.13299489958E+02 -0.20627298069E+02  0.28780139101E+02  0.00000000000E+00 0. -1.
<mgrwt>
<rscale>  1 0.64926201E+03</rscale>
<asrwt>0</asrwt>
<pdfrwt beam="1">  1       21 0.17250932E-01 0.64926201E+03</pdfrwt>
<pdfrwt beam="2">0</pdfrwt>
<totfact> 0.29739526E+03</totfact>
</mgrwt>
</event>
<event>
 6    1  0.1364923E-004  0.6556760E+03  0.7818608E-02  0.9796186E-01
         21   -1    0    0  501  502  0.00000000000E+00  0.00000000000E+00  0.13380750685E+04  0.13380750685E+04  0.00000000000E+00 0. -1.
         13   -1    0    0    0    0 -0.00000000000E+00 -0.00000000000E+00 -0.10000000000E+04  0.10000000000E+04  0.00000000000E+00 0.  1.
    9000005    2    1    2  501    0 -0.34013032415E+02 -0.80344758391E+02 -0.89080909642E+03  0.11060976104E+04  0.64984529759E+03 0.  0.
         13    1    3    3    0    0  0.14627455568E+03  0.14869556366E+03 -0.47621733823E+02  0.21394963385E+03  0.00000000000E+00 0.  1.
          3    1    3    3  501    0 -0.18028758810E+03 -0.22904032205E+03 -0.84318736260E+03  0.89214797651E+03  0.00000000000E+00 0.  1.
         -3    1    1    2    0  502  0.34013032415E+02  0.80344758391E+02  0.12288841649E+04  0.12319774581E+04  0.00000000000E+00 0. -1.
<mgrwt>
<rscale>  1 0.65567605E+03</rscale>
<asrwt>0</asrwt>
<pdfrwt beam="1">  1       21 0.20585770E+00 0.65567605E+03</pdfrwt>
<pdfrwt beam="2">0</pdfrwt>
<totfact> 0.10003391E+01</totfact>
</mgrwt>
</event>
<event>
 6    1  0.1364923E-004  0.6538639E+03  0.7818608E-02  0.9799556E-01
         21   -1    0    0  501  502  0.00000000000E+00  0.00000000000E+00  0.77834236972E+03  0.77834236972E+03  0.00000000000E+00 0. -1.
         13   -1    0    0    0    0 -0.00000000000E+00 -0.00000000000E+00 -0.10000000000E+04  0.10000000000E+04  0.00000000000E+00 0.  1.
    9000005    2    1    2  501    0 -0.14130334111E+02  0.16396357176E+02 -0.89292240183E+03  0.11067287156E+04  0.65350556798E+03 0.  0.
         13    1    3    3    0    0 -0.17563130438E+02 -0.19840998629E+03 -0.11516177726E+02  0.19951844165E+03  0.00000000000E+00 0.  1.
          3    1    3    3  501    0  0.34327963264E+01  0.21480634346E+03 -0.88140622410E+03  0.90721027395E+03  0.00000000000E+00 0.  1.
         -3    1    1    2    0  502  0.14130334111E+02 -0.16396357176E+02  0.67126477155E+03  0.67161365412E+03  0.00000000000E+00 0. -1.
<mgrwt>
<rscale>  1 0.65386393E+03</rscale>
<asrwt>0</asrwt>
<pdfrwt beam="1">  1       21 0.11974498E+00 0.65386393E+03</pdfrwt>
<pdfrwt beam="2">0</pdfrwt>
<totfact> 0.46147806E+01</totfact>
</mgrwt>
</event>
<event>
 6    1  0.1364923E-004  0.6516744E+03  0.7818608E-02  0.9803642E-01
         21   -1    0    0  501  502  0.00000000000E+00  0.00000000000E+00  0.18031869065E+03  0.18031869065E+03  0.00000000000E+00 0.  1.
         13   -1    0    0    0    0 -0.00000000000E+00 -0.00000000000E+00 -0.10000000000E+04  0.10000000000E+04  0.00000000000E+00 0.  1.
    9000005    2    1    2  501    0  0.43759838027E+02 -0.24261500196E+02 -0.88436848723E+03  0.10985386515E+04  0.64975072444E+03 0.  0.
         13    1    3    3    0    0 -0.14351651509E+03  0.99044137730E+02  0.11772014249E+02  0.17477217067E+03  0.00000000000E+00 0.  1.
          3    1    3    3  501    0  0.18727635312E+03 -0.12330563793E+03 -0.89614050148E+03  0.92376648086E+03  0.00000000000E+00 0.  1.
         -1    1    1    2    0  502 -0.43759838027E+02  0.24261500196E+02  0.64687177877E+02  0.81780039115E+02  0.00000000000E+00 0. -1.
<mgrwt>
<rscale>  1 0.65167442E+03</rscale>
<asrwt>0</asrwt>
<pdfrwt beam="1">  1       21 0.27741336E-01 0.65167442E+03</pdfrwt>
<pdfrwt beam="2">0</pdfrwt>
<totfact> 0.11860026E+03</totfact>
</mgrwt>
</event>
<event>
 6    1  0.1364923E-004  0.6565077E+03  0.7818608E-02  0.9794644E-01
         21   -1    0    0  501  502  0.00000000000E+00  0.00000000000E+00  0.25686994242E+03  0.25686994242E+03  0.00000000000E+00 0. -1.
         13   -1    0    0    0    0 -0.00000000000E+00 -0.00000000000E+00 -0.10000000000E+04  0.10000000000E+04  0.00000000000E+00 0.  1.
    9000005    2    1    2  501    0  0.94962731569E+02  0.72648646081E+02 -0.86514539272E+03  0.10860381884E+04  0.64552819460E+03 0.  0.
         13    1    3    3    0    0  0.34018847411E+03  0.10041862850E+03 -0.28307593248E+03  0.45381062396E+03  0.00000000000E+00 0.  1.
          3    1    3    3  501    0 -0.24522574254E+03 -0.27769982424E+02 -0.58206946024E+03  0.63222756446E+03  0.00000000000E+00 0.  1.
         -3    1    1    2    0  502 -0.94962731569E+02 -0.72648646081E+02  0.12201533514E+03  0.17083175400E+03  0.00000000000E+00 0. -1.
<mgrwt>
<rscale>  1 0.65650773E+03</rscale>
<asrwt>0</asrwt>
<pdfrwt beam="1">  1       21 0.39518452E-01 0.65650773E+03</pdfrwt>
<pdfrwt beam="2">0</pdfrwt>
<totfact> 0.57883004E+02</totfact>
</mgrwt>
</event>
<event>
 6    1  0.1364923E-004  0.6424036E+03  0.7818608E-02  0.9821139E-01
         21   -1    0    0  501  502  0.00000000000E+00  0.00000000000E+00  0.12339832960E+03  0.12339832960E+03  0.00000000000E+00 0.  1.
         13   -1    0    0    0    0 -0.00000000000E+00 -0.00000000000E+00 -0.10000000000E+04  0.10000000000E+04  0.00000000000E+00 0.  1.
    9000005    2    1    2  501    0 -0.12779133911E+02  0.41830318855E+02 -0.86623835621E+03  0.10784485785E+04  0.64091291526E+03 0.  0.
         13    1    3    3    0    0  0.20281382932E+03 -0.13627954448E+02 -0.82798816090E+03  0.85257466834E+03  0.00000000000E+00 0.  1.
          3    1    3    3  501    0 -0.21559296323E+03  0.55458273303E+02 -0.38250195316E+02  0.22587391021E+03  0.00000000000E+00 0.  1.
         -3    1    1    2    0  502  0.12779133911E+02 -0.41830318855E+02 -0.10363314189E+02  0.44949751057E+02  0.00000000000E+00 0. -1.
<mgrwt>
<rscale>  1 0.64240365E+03</rscale>
<asrwt>0</asrwt>
<pdfrwt beam="1">  1       21 0.18984358E-01 0.64240365E+03</pdfrwt>
<pdfrwt beam="2">0</pdfrwt>
<totfact> 0.24802166E+03</totfact>
</mgrwt>
</event>
<event>
 6    1  0.1364923E-004  0.7047166E+03  0.7818608E-02  0.9709200E-01
         21   -1    0    0  501  502  0.00000000000E+00  0.00000000000E+00  0.30643749981E+03  0.30643749981E+03  0.00000000000E+00 0. -1.
         13   -1    0    0    0    0 -0.00000000000E+00 -0.00000000000E+00 -0.10000000000E+04  0.10000000000E+04  0.00000000000E+00 0.  1.
    9000005    2    1    2  501    0 -0.20417031366E+03  0.36939558226E+02 -0.80584497677E+03  0.10705192884E+04  0.67348004593E+03 0.  0.
         13    1    3    3    0    0  0.34948477408E+02 -0.25535622569E+03 -0.11296150174E+03  0.28140451124E+03  0.00000000000E+00 0.  1.
          3    1    3    3  501    0 -0.23911879106E+03  0.29229578391E+03 -0.69288347502E+03  0.78911477714E+03  0.00000000000E+00 0.  1.
         -3    1    1    2    0  502  0.20417031366E+03 -0.36939558226E+02  0.11228247658E+03  0.23591821144E+03  0.00000000000E+00 0. -1.
<mgrwt>
<rscale>  1 0.70471655E+03</rscale>
<asrwt>0</asrwt>
<pdfrwt beam="1">  1       21 0.47144229E-01 0.70471655E+03</pdfrwt>
<pdfrwt beam="2">0</pdfrwt>
<totfact> 0.39796733E+02</totfact>
</mgrwt>
</event>
<event>
 6    1  0.1364923E-004  0.6540512E+03  0.7818608E-02  0.9799207E-01
         21   -1    0    0  501  502  0.00000000000E+00  0.00000000000E+00  0.16629523614E+03  0.16629523614E+03  0.00000000000E+00 0. -1.
         13   -1    0    0    0    0 -0.00000000000E+00 -0.00000000000E+00 -0.10000000000E+04  0.10000000000E+04  0.00000000000E+00 0.  1.
    9000005    2    1    2  501    0  0.20071541800E+02 -0.26692983395E+02 -0.88780600832E+03  0.11027159407E+04  0.65319794501E+03 0.  0.
         13    1    3    3    0    0 -0.15068964281E+03  0.19140006735E+03 -0.75920186574E+03  0.79732604823E+03  0.00000000000E+00 0.  1.
          3    1    3    3  501    0  0.17076118461E+03 -0.21809305074E+03 -0.12860414258E+03  0.30538989250E+03  0.00000000000E+00 0.  1.
         -3    1    1    2    0  502 -0.20071541800E+02  0.26692983395E+02  0.54101244465E+02  0.63579295414E+02  0.00000000000E+00 0. -1.
<mgrwt>
<rscale>  1 0.65405117E+03</rscale>
<asrwt>0</asrwt>
<pdfrwt beam="1">  1       21 0.25583882E-01 0.65405117E+03</pdfrwt>
<pdfrwt beam="2">0</pdfrwt>
<totfact> 0.13913663E+03</totfact>
</mgrwt>
</event>
<event>
 6    1  0.1364923E-004  0.8759397E+03  0.7818608E-02  0.9456168E-01
         21   -1    0    0  501  502  0.00000000000E+00  0.00000000000E+00  0.51417496859E+03  0.51417496859E+03  0.00000000000E+00 0. -1.
         13   -1    0    0    0    0 -0.00000000000E+00 -0.00000000000E+00 -0.10000000000E+04  0.10000000000E+04  0.00000000000E+00 0.  1.
    9000005    2    1    2  501    0 -0.41140174132E+03  0.37689063152E+03 -0.28327929436E+03  0.92060718267E+03  0.67525734745E+03 0.  0.
         13    1    3    3    0    0 -0.57315984337E+03  0.15668706843E+03 -0.25261583858E+03  0.64566075099E+03  0.00000000000E+00 0.  1.
          3    1    3    3  501    0  0.16175810205E+03  0.22020356309E+03 -0.30663455779E+02  0.27494643169E+03  0.00000000000E+00 0.  1.
         -1    1    1    2    0  502  0.41140174132E+03 -0.37689063152E+03 -0.20254573705E+03  0.59356778592E+03  0.00000000000E+00 0. -1.
<mgrwt>
<rscale>  1 0.87593974E+03</rscale>
<asrwt>0</asrwt>
<pdfrwt beam="1">  1       21 0.79103839E-01 0.87593974E+03</pdfrwt>
<pdfrwt beam="2">0</pdfrwt>
<totfact> 0.12372346E+02</totfact>
</mgrwt>
</event>
<event>
 6    1  0.1364923E-004  0.6470864E+03  0.7818608E-02  0.9812262E-01
         21   -1    0    0  501  502  0.00000000000E+00  0.00000000000E+00  0.16198699920E+03  0.16198699920E+03  0.00000000000E+00 0.  1.
         13   -1    0    0    0    0 -0.00000000000E+00 -0.00000000000E+00 -0.10000000000E+04  0.10000000000E+04  0.00000000000E+00 0.  1.
    9000005    2    1    2  501    0  0.21213584728E+02  0.85663437981E+02 -0.85485182065E+03  0.10721438768E+04  0.64104026126E+03 0.  0.
         13    1    3    3    0    0 -0.30895923338E+03  0.67702146776E+02 -0.40697224679E+03  0.51542778177E+03  0.00000000000E+00 0.  1.
          1    1    3    3  501    0  0.33017281811E+03  0.17961291205E+02 -0.44787957386E+03  0.55671609505E+03  0.00000000000E+00 0.  1.
         -1    1    1    2    0  502 -0.21213584728E+02 -0.85663437981E+02  0.16838819845E+02  0.89843122372E+02  0.00000000000E+00 0. -1.
<mgrwt>
<rscale>  1 0.64708644E+03</rscale>
<asrwt>0</asrwt>
<pdfrwt beam="1">  1       21 0.24921076E-01 0.64708644E+03</pdfrwt>
<pdfrwt beam="2">0</pdfrwt>
<totfact> 0.14654470E+03</totfact>
</mgrwt>
</event>
<event>
 6    1  0.1364923E-004  0.6055966E+03  0.7818608E-02  0.9893862E-01
         21   -1    0    0  501  502  0.00000000000E+00  0.00000000000E+00  0.36718629871E+03  0.36718629871E+03  0.00000000000E+00 0. -1.
         13   -1    0    0    0    0 -0.00000000000E+00 -0.00000000000E+00 -0.10000000000E+04  0.10000000000E+04  0.00000000000E+00 0.  1.
    9000005    2    1    2  501    0 -0.27260910747E+02  0.24646869239E+01 -0.90757075077E+03  0.10910691711E+04  0.60497771568E+03 0.  0.
         13    1    3    3    0    0  0.26852425740E+03  0.10526686573E+03 -0.49820542294E+03  0.57566920474E+03  0.00000000000E+00 0.  1.
          3    1    3    3  501    0 -0.29578516815E+03 -0.10280217881E+03 -0.40936532783E+03  0.51539996633E+03  0.00000000000E+00 0.  1.
         -1    1    1    2    0  502  0.27260910747E+02 -0.24646869239E+01  0.27475704948E+03  0.27611712764E+03  0.00000000000E+00 0. -1.
<mgrwt>
<rscale>  1 0.60559662E+03</rscale>
<asrwt>0</asrwt>
<pdfrwt beam="1">  1       21 0.56490198E-01 0.60559662E+03</pdfrwt>
<pdfrwt beam="2">0</pdfrwt>
<totfact> 0.27213685E+02</totfact>
</mgrwt>
</event>
<event>
 6    1  0.1364923E-004  0.6739043E+03  0.7818608E-02  0.9762930E-01
         21   -1    0    0  501  502  0.00000000000E+00  0.00000000000E+00  0.16616116204E+03  0.16616116204E+03  0.00000000000E+00 0.  1.
         13   -1    0    0    0    0 -0.00000000000E+00 -0.00000000000E+00 -0.10000000000E+04  0.10000000000E+04  0.00000000000E+00 0.  1.
    9000005    2    1    2  501    0  0.11362232324E+03 -0.76570202097E+02 -0.73522894523E+03  0.99735079764E+03  0.65982875313E+03 0.  0.
         13    1    3    3    0    0  0.26883947744E+03  0.21354162170E+03 -0.34159579163E+03  0.48431639832E+03  0.00000000000E+00 0.  1.
          3    1    3    3  501    0 -0.15521715420E+03 -0.29011182380E+03 -0.39363315360E+03  0.51303439932E+03  0.00000000000E+00 0.  1.
         -3    1    1    2    0  502 -0.11362232324E+03  0.76570202097E+02 -0.98609892723E+02  0.16881036440E+03  0.00000000000E+00 0. -1.
<mgrwt>
<rscale>  1 0.67390430E+03</rscale>
<asrwt>0</asrwt>
<pdfrwt beam="1">  1       21 0.25563255E-01 0.67390430E+03</pdfrwt>
<pdfrwt beam="2">0</pdfrwt>
<totfact> 0.13921268E+03</totfact>
</mgrwt>
</event>
<event>
 6    1  0.1364923E-004  0.7001084E+03  0.7818608E-02  0.9717047E-01
         21   -1    0    0  501  502  0.00000000000E+00  0.00000000000E+00  0.59029560733E+03  0.59029560733E+03  0.00000000000E+00 0. -1.
         13   -1    0    0    0    0 -0.00000000000E+00 -0.00000000000E+00 -0.10000000000E+04  0.10000000000E+04  0.00000000000E+00 0.  1.
    9000005    2    1    2  501    0 -0.18988793522E+03  0.15794510898E+03 -0.84039601900E+03  0.10938085860E+04  0.65509363346E+03 0.  0.
         13    1    3    3    0    0  0.23424257219E+03 -0.24784135380E+02 -0.23918531472E+03  0.33569845215E+03  0.00000000000E+00 0.  1.
          1    1    3    3  501    0 -0.42413050741E+03  0.18272924436E+03 -0.60121070428E+03  0.75811013382E+03  0.00000000000E+00 0.  1.
         -1    1    1    2    0  502  0.18988793522E+03 -0.15794510898E+03  0.43069162633E+03  0.49648702137E+03  0.00000000000E+00 0. -1.
<mgrwt>
<rscale>  1 0.70010839E+03</rscale>
<asrwt>0</asrwt>
<pdfrwt beam="1">  1       21 0.90814706E-01 0.70010839E+03</pdfrwt>
<pdfrwt beam="2">0</pdfrwt>
<totfact> 0.90956723E+01</totfact>
</mgrwt>
</event>
<event>
 6    1  0.1364923E-004  0.6576573E+03  0.7818608E-02  0.9792516E-01
         21   -1    0    0  501  502  0.00000000000E+00  0.00000000000E+00  0.20844785725E+03  0.20844785725E+03  0.00000000000E+00 0.  1.
         13   -1    0    0    0    0 -0.00000000000E+00 -0.00000000000E+00 -0.10000000000E+04  0.10000000000E+04  0.00000000000E+00 0.  1.
    9000005    2    1    2  501    0  0.78242385557E+02 -0.55842341424E+02 -0.86560905989E+03  0.10871026267E+04  0.65059421954E+03 0.  0.
         13    1    3    3    0    0 -0.25209306256E+03  0.41569148908E+02 -0.15872939247E+03  0.30078884016E+03  0.00000000000E+00 0.  1.
          3    1    3    3  501    0  0.33033544812E+03 -0.97411490332E+02 -0.70687966742E+03  0.78631378657E+03  0.00000000000E+00 0.  1.
         -3    1    1    2    0  502 -0.78242385557E+02  0.55842341424E+02  0.74056917135E+02  0.12134523052E+03  0.00000000000E+00 0. -1.
<mgrwt>
<rscale>  1 0.65765726E+03</rscale>
<asrwt>0</asrwt>
<pdfrwt beam="1">  1       21 0.32068900E-01 0.65765726E+03</pdfrwt>
<pdfrwt beam="2">0</pdfrwt>
<totfact> 0.88705381E+02</totfact>
</mgrwt>
</event>
<event>
 6    1  0.1364923E-004  0.6197559E+03  0.7818608E-02  0.9865246E-01
         21   -1    0    0  501  502  0.00000000000E+00  0.00000000000E+00  0.17949308243E+03  0.17949308243E+03  0.00000000000E+00 0. -1.
         13   -1    0    0    0    0 -0.00000000000E+00 -0.00000000000E+00 -0.10000000000E+04  0.10000000000E+04  0.00000000000E+00 0.  1.
    9000005    2    1    2  501    0 -0.10978711878E+02  0.18379621002E+02 -0.90246845689E+03  0.10947815926E+04  0.61938604862E+03 0.  0.
         13    1    3    3    0    0  0.24684348267E+03 -0.70006039144E+02 -0.72620826863E+03  0.77020192150E+03  0.00000000000E+00 0.  1.
          1    1    3    3  501    0 -0.25782219455E+03  0.88385660146E+02 -0.17626018825E+03  0.32457967109E+03  0.00000000000E+00 0.  1.
         -3    1    1    2    0  502  0.10978711878E+02 -0.18379621002E+02  0.81961539319E+02  0.84711489836E+02  0.00000000000E+00 0. -1.
<mgrwt>
<rscale>  1 0.61975594E+03</rscale>
<asrwt>0</asrwt>
<pdfrwt beam="1">  1       21 0.27614320E-01 0.61975594E+03</pdfrwt>
<pdfrwt beam="2">0</pdfrwt>
<totfact> 0.11991135E+03</totfact>
</mgrwt>
</event>
<event>
 6    1  0.1364923E-004  0.6360258E+03  0.7818608E-02  0.9833360E-01
         21   -1    0    0  501  502  0.00000000000E+00  0.00000000000E+00  0.17704575059E+03  0.17704575059E+03  0.00000000000E+00 0.  1.
         13   -1    0    0    0    0 -0.00000000000E+00 -0.00000000000E+00 -0.10000000000E+04  0.10000000000E+04  0.00000000000E+00 0.  1.
    9000005    2    1    2  501    0  0.51302872731E+02 -0.95347413438E+02 -0.85361697116E+03  0.10645143483E+04  0.62674217207E+03 0.  0.
         13    1    3    3    0    0  0.16743512047E+03 -0.48507839027E+01 -0.89582806686E+03  0.91135392414E+03  0.00000000000E+00 0.  1.
          3    1    3    3  501    0 -0.11613224774E+03 -0.90496629535E+02  0.42211095699E+02  0.15316042414E+03  0.00000000000E+00 0.  1.
         -1    1    1    2    0  502 -0.51302872731E+02  0.95347413438E+02  0.30662721756E+02  0.11253140231E+03  0.00000000000E+00 0. -1.
<mgrwt>
<rscale>  1 0.63602584E+03</rscale>
<asrwt>0</asrwt>
<pdfrwt beam="1">  1       21 0.27237807E-01 0.63602584E+03</pdfrwt>
<pdfrwt beam="2">0</pdfrwt>
<totfact> 0.12309684E+03</totfact>
</mgrwt>
</event>
<event>
 6    1  0.1364923E-004  0.6561379E+03  0.7818608E-02  0.9795329E-01
         21   -1    0    0  501  502  0.00000000000E+00  0.00000000000E+00  0.15669603479E+03  0.15669603479E+03  0.00000000000E+00 0.  1.
         13   -1    0    0    0    0 -0.00000000000E+00 -0.00000000000E+00 -0.10000000000E+04  0.10000000000E+04  0.00000000000E+00 0.  1.
    9000005    2    1    2  501    0  0.12823576268E+03  0.43822993971E+02 -0.70340679595E+03  0.96192415900E+03  0.64199073315E+03 0.  0.
         13    1    3    3    0    0  0.91204275102E+02 -0.34372366604E+02 -0.81495047826E+03  0.82075816256E+03  0.00000000000E+00 0.  1.
          3    1    3    3  501    0  0.37031487579E+02  0.78195360576E+02  0.11154368231E+03  0.14116599644E+03  0.00000000000E+00 0.  1.
         -1    1    1    2    0  502 -0.12823576268E+03 -0.43822993971E+02 -0.13989716926E+03  0.19477187579E+03  0.00000000000E+00 0. -1.
<mgrwt>
<rscale>  1 0.65613792E+03</rscale>
<asrwt>0</asrwt>
<pdfrwt beam="1">  1       21 0.24107082E-01 0.65613792E+03</pdfrwt>
<pdfrwt beam="2">0</pdfrwt>
<totfact> 0.15630928E+03</totfact>
</mgrwt>
</event>
<event>
 6    1  0.1364923E-004  0.6935316E+03  0.7818608E-02  0.9728358E-01
         21   -1    0    0  501  502  0.00000000000E+00  0.00000000000E+00  0.22289394357E+03  0.22289394357E+03  0.00000000000E+00 0. -1.
         13   -1    0    0    0    0 -0.00000000000E+00 -0.00000000000E+00 -0.10000000000E+04  0.10000000000E+04  0.00000000000E+00 0.  1.
    9000005    2    1    2  501    0  0.18716752431E+03 -0.13287229569E+03 -0.68732854662E+03  0.97642542553E+03  0.65444583542E+03 0.  0.
         13    1    3    3    0    0  0.26929878475E+03  0.10368285250E+02 -0.75220151262E+03  0.79902218517E+03  0.00000000000E+00 0.  1.
          1    1    3    3  501    0 -0.82131260448E+02 -0.14324058094E+03  0.64872966003E+02  0.17740324035E+03  0.00000000000E+00 0.  1.
         -1    1    1    2    0  502 -0.18716752431E+03  0.13287229569E+03 -0.89777509815E+02  0.24646851804E+03  0.00000000000E+00 0. -1.
<mgrwt>
<rscale>  1 0.69353160E+03</rscale>
<asrwt>0</asrwt>
<pdfrwt beam="1">  1       21 0.34291375E-01 0.69353160E+03</pdfrwt>
<pdfrwt beam="2">0</pdfrwt>
<totfact> 0.77253507E+02</totfact>
</mgrwt>
</event>
<event>
 6    1  0.1364923E-004  0.6530810E+03  0.7818608E-02  0.9801015E-01
         21   -1    0    0  501  502  0.00000000000E+00  0.00000000000E+00  0.14491927038E+03  0.14491927038E+03  0.00000000000E+00 0.  1.
         13   -1    0    0    0    0 -0.00000000000E+00 -0.00000000000E+00 -0.10000000000E+04  0.10000000000E+04  0.00000000000E+00 0.  1.
    9000005    2    1    2  501    0 -0.63695466722E+01 -0.38912870261E+02 -0.88178521636E+03  0.10972966685E+04  0.65188958294E+03 0.  0.
         13    1    3    3    0    0 -0.15215358947E+03 -0.30997136596E+03 -0.46822595263E+03  0.58178046136E+03  0.00000000000E+00 0.  1.
          3    1    3    3  501    0  0.14578404280E+03  0.27105849570E+03 -0.41355926373E+03  0.51551620715E+03  0.00000000000E+00 0.  1.
         -1    1    1    2    0  502  0.63695466722E+01  0.38912870261E+02  0.26704486741E+02  0.47622601870E+02  0.00000000000E+00 0. -1.
<mgrwt>
<rscale>  1 0.65308101E+03</rscale>
<asrwt>0</asrwt>
<pdfrwt beam="1">  1       21 0.22295272E-01 0.65308101E+03</pdfrwt>
<pdfrwt beam="2">0</pdfrwt>
<totfact> 0.18199639E+03</totfact>
</mgrwt>
</event>
<event>
 6    1  0.1364923E-004  0.6579833E+03  0.7818608E-02  0.9791913E-01
         21   -1    0    0  501  502  0.00000000000E+00  0.00000000000E+00  0.13272579096E+03  0.13272579096E+03  0.00000000000E+00 0.  1.
         13   -1    0    0    0    0 -0.00000000000E+00 -0.00000000000E+00 -0.10000000000E+04  0.10000000000E+04  0.00000000000E+00 0.  1.
    9000005    2    1    2  501    0  0.17006918171E+02 -0.42273280931E+02 -0.86538375329E+03  0.10871205350E+04  0.65640364995E+03 0.  0.
         13    1    3    3    0    0 -0.18665557250E+03 -0.84771574654E+02 -0.83263400340E+01  0.20517273345E+03  0.00000000000E+00 0.  1.
          1    1    3    3  501    0  0.20366249067E+03  0.42498293723E+02 -0.85705741326E+03  0.88194780157E+03  0.00000000000E+00 0.  1.
         -1    1    1    2    0  502 -0.17006918171E+02  0.42273280931E+02 -0.18904557463E+01  0.45605255939E+02  0.00000000000E+00 0. -1.
<mgrwt>
<rscale>  1 0.65798330E+03</rscale>
<asrwt>0</asrwt>
<pdfrwt beam="1">  1       21 0.20419352E-01 0.65798330E+03</pdfrwt>
<pdfrwt beam="2">0</pdfrwt>
<totfact> 0.21559280E+03</totfact>
</mgrwt>
</event>
<event>
 6    1  0.1364923E-004  0.6025829E+03  0.7818608E-02  0.9900062E-01
         21   -1    0    0  501  502  0.00000000000E+00  0.00000000000E+00  0.15879861665E+03  0.15879861665E+03  0.00000000000E+00 0.  1.
         13   -1    0    0    0    0 -0.00000000000E+00 -0.00000000000E+00 -0.10000000000E+04  0.10000000000E+04  0.00000000000E+00 0.  1.
    9000005    2    1    2  501    0 -0.22325034563E+02  0.19354698756E+02 -0.90570751526E+03  0.10878475590E+04  0.60185812017E+03 0.  0.
         13    1    3    3    0    0  0.18447932601E+03  0.19665324846E+03 -0.68860253080E+03  0.73951238481E+03  0.00000000000E+00 0.  1.
          3    1    3    3  501    0 -0.20680436057E+03 -0.17729854971E+03 -0.21710498446E+03  0.34833517416E+03  0.00000000000E+00 0.  1.
         -1    1    1    2    0  502  0.22325034563E+02 -0.19354698756E+02  0.64506131913E+02  0.70951057684E+02  0.00000000000E+00 0. -1.
<mgrwt>
<rscale>  1 0.60258295E+03</rscale>
<asrwt>0</asrwt>
<pdfrwt beam="1">  1       21 0.24430556E-01 0.60258295E+03</pdfrwt>
<pdfrwt beam="2">0</pdfrwt>
<totfact> 0.15271738E+03</totfact>
</mgrwt>
</event>
<event>
 6    1  0.1364923E-004  0.6497015E+03  0.7818608E-02  0.9807339E-01
         21   -1    0    0  501  502  0.00000000000E+00  0.00000000000E+00  0.43435784521E+03  0.43435784521E+03  0.00000000000E+00 0.  1.
         13   -1    0    0    0    0 -0.00000000000E+00 -0.00000000000E+00 -0.10000000000E+04  0.10000000000E+04  0.00000000000E+00 0.  1.
    9000005    2    1    2  501    0 -0.24473178586E+02  0.93879429396E+01 -0.89389436970E+03  0.11050607354E+04  0.64917256164E+03 0.  0.
         13    1    3    3    0    0 -0.79671196830E+02  0.20599729060E+03 -0.87216545244E+03  0.89969714892E+03  0.00000000000E+00 0.  1.
          1    1    3    3  501    0  0.55198018244E+02 -0.19660934766E+03 -0.21728917255E+02  0.20536358647E+03  0.00000000000E+00 0.  1.
         -3    1    1    2    0  502  0.24473178586E+02 -0.93879429396E+01  0.32825221490E+03  0.32929710981E+03  0.00000000000E+00 0. -1.
<mgrwt>
<rscale>  1 0.64970154E+03</rscale>
<asrwt>0</asrwt>
<pdfrwt beam="1">  1       21 0.66824282E-01 0.64970154E+03</pdfrwt>
<pdfrwt beam="2">0</pdfrwt>
<totfact> 0.18657500E+02</totfact>
</mgrwt>
</event>
<event>
 6    1  0.1364923E-004  0.6504543E+03  0.7818608E-02  0.9805927E-01
         21   -1    0    0  501  502  0.00000000000E+00  0.00000000000E+00  0.13583757372E+03  0.13583757372E+03  0.00000000000E+00 0.  1.
         13   -1    0    0    0    0 -0.00000000000E+00 -0.00000000000E+00 -0.10000000000E+04  0.10000000000E+04  0.00000000000E+00 0.  1.
    9000005    2    1    2  501    0 -0.55178881526E+02 -0.52460274598E+02 -0.82388556973E+03  0.10497038721E+04  0.64598297019E+03 0.  0.
         13    1    3    3    0    0  0.34117190140E+01  0.24543380571E+03 -0.10058113024E+03  0.26526582248E+03  0.00000000000E+00 0.  1.
          3    1    3    3  501    0 -0.58590600540E+02 -0.29789408031E+03 -0.72330443949E+03  0.78443804965E+03  0.00000000000E+00 0.  1.
         -3    1    1    2    0  502  0.55178881526E+02  0.52460274598E+02 -0.40276856543E+02  0.86133701594E+02  0.00000000000E+00 0. -1.
<mgrwt>
<rscale>  1 0.65045429E+03</rscale>
<asrwt>0</asrwt>
<pdfrwt beam="1">  1       21 0.20898088E-01 0.65045429E+03</pdfrwt>
<pdfrwt beam="2">0</pdfrwt>
<totfact> 0.20625577E+03</totfact>
</mgrwt>
</event>
<event>
 6    1  0.1364923E-004  0.6501709E+03  0.7818608E-02  0.9806459E-01
         21   -1    0    0  501  502  0.00000000000E+00  0.00000000000E+00  0.11875725918E+03  0.11875725918E+03  0.00000000000E+00 0.  1.
         13   -1    0    0    0    0 -0.00000000000E+00 -0.00000000000E+00 -0.10000000000E+04  0.10000000000E+04  0.00000000000E+00 0.  1.
    9000005    2    1    2  501    0  0.10443003994E+02 -0.20469063640E+02 -0.88203063215E+03  0.10957646588E+04  0.64976465937E+03 0.  0.
         13    1    3    3    0    0 -0.85484053216E+02  0.21937990269E+03 -0.73014245140E+02  0.24650790059E+03  0.00000000000E+00 0.  1.
          3    1    3    3  501    0  0.95927057210E+02 -0.23984896633E+03 -0.80901638701E+03  0.84925675823E+03  0.00000000000E+00 0.  1.
         -3    1    1    2    0  502 -0.10443003994E+02  0.20469063640E+02  0.78789132550E+00  0.22992600363E+02  0.00000000000E+00 0. -1.
<mgrwt>
<rscale>  1 0.65017086E+03</rscale>
<asrwt>0</asrwt>
<pdfrwt beam="1">  1       21 0.18270347E-01 0.65017086E+03</pdfrwt>
<pdfrwt beam="2">0</pdfrwt>
<totfact> 0.26672577E+03</totfact>
</mgrwt>
</event>
<event>
 6    1  0.1364923E-004  0.6419117E+03  0.7818608E-02  0.9822076E-01
         21   -1    0    0  501  502  0.00000000000E+00  0.00000000000E+00  0.27571726311E+03  0.27571726311E+03  0.00000000000E+00 0.  1.
         13   -1    0    0    0    0 -0.00000000000E+00 -0.00000000000E+00 -0.10000000000E+04  0.10000000000E+04  0.00000000000E+00 0.  1.
    9000005    2    1    2  501    0  0.16706333481E-01 -0.31224759577E+02 -0.89542907877E+03  0.11017458395E+04  0.64115183372E+03 0.  0.
         13    1    3    3    0    0 -0.45037120659E+02 -0.17682109591E+02 -0.99260366349E+03  0.99378218539E+03  0.00000000000E+00 0.  1.
          1    1    3    3  501    0  0.45053826992E+02 -0.13542649986E+02  0.97174584716E+02  0.10796365412E+03  0.00000000000E+00 0.  1.
         -1    1    1    2    0  502 -0.16706333481E-01  0.31224759577E+02  0.17114634188E+03  0.17397142360E+03  0.00000000000E+00 0. -1.
<mgrwt>
<rscale>  1 0.64191172E+03</rscale>
<asrwt>0</asrwt>
<pdfrwt beam="1">  1       21 0.42418039E-01 0.64191172E+03</pdfrwt>
<pdfrwt beam="2">0</pdfrwt>
<totfact> 0.50004655E+02</totfact>
</mgrwt>
</event>
<event>
 6    1  0.1364923E-004  0.5943156E+03  0.7818608E-02  0.9917270E-01
         21   -1    0    0  501  502  0.00000000000E+00  0.00000000000E+00  0.10108459478E+03  0.10108459478E+03  0.00000000000E+00 0.  1.
         13   -1    0    0    0    0 -0.00000000000E+00 -0.00000000000E+00 -0.10000000000E+04  0.10000000000E+04  0.00000000000E+00 0.  1.
    9000005    2    1    2  501    0 -0.12770529795E+02 -0.25918911504E+02 -0.89117867793E+03  0.10711725010E+04  0.59361284901E+03 0.  0.
         13    1    3    3    0    0  0.14792468077E+03 -0.18338972361E+01  0.16692443826E+02  0.14887482003E+03  0.00000000000E+00 0.  1.
          1    1    3    3  501    0 -0.16069521056E+03 -0.24085014268E+02 -0.90787112176E+03  0.92229768097E+03  0.00000000000E+00 0.  1.
         -3    1    1    2    0  502  0.12770529795E+02  0.25918911504E+02 -0.77367272892E+01  0.29912093774E+02  0.00000000000E+00 0. -1.
<mgrwt>
<rscale>  1 0.59431565E+03</rscale>
<asrwt>0</asrwt>
<pdfrwt beam="1">  1       21 0.15551476E-01 0.59431565E+03</pdfrwt>
<pdfrwt beam="2">0</pdfrwt>
<totfact> 0.36202302E+03</totfact>
</mgrwt>
</event>
<event>
 6    1  0.1364923E-004  0.6340382E+03  0.7818608E-02  0.9837200E-01
         21   -1    0    0  501  502  0.00000000000E+00  0.00000000000E+00  0.13383581194E+03  0.13383581194E+03  0.00000000000E+00 0.  1.
         13   -1    0    0    0    0 -0.00000000000E+00 -0.00000000000E+00 -0.10000000000E+04  0.10000000000E+04  0.00000000000E+00 0.  1.
    9000005    2    1    2  501    0  0.67043481116E+02  0.35691485277E+02 -0.84221659202E+03  0.10541978949E+04  0.62947255949E+03 0.  0.
         13    1    3    3    0    0 -0.73019742067E+02 -0.13492699472E+03  0.28406428095E+02  0.15602596512E+03  0.00000000000E+00 0.  1.
          3    1    3    3  501    0  0.14006322318E+03  0.17061847999E+03 -0.87062302011E+03  0.89817192973E+03  0.00000000000E+00 0.  1.
         -3    1    1    2    0  502 -0.67043481116E+02 -0.35691485277E+02 -0.23947596045E+02  0.79637917086E+02  0.00000000000E+00 0. -1.
<mgrwt>
<rscale>  1 0.63403818E+03</rscale>
<asrwt>0</asrwt>
<pdfrwt beam="1">  1       21 0.20590124E-01 0.63403818E+03</pdfrwt>
<pdfrwt beam="2">0</pdfrwt>
<totfact> 0.21237715E+03</totfact>
</mgrwt>
</event>
<event>
 6    1  0.1364923E-004  0.6595404E+03  0.7818608E-02  0.9789040E-01
         21   -1    0    0  501  502  0.00000000000E+00  0.00000000000E+00  0.48808529174E+03  0.48808529174E+03  0.00000000000E+00 0. -1.
         13   -1    0    0    0    0 -0.00000000000E+00 -0.00000000000E+00 -0.10000000000E+04  0.10000000000E+04  0.00000000000E+00 0.  1.
    9000005    2    1    2  501    0  0.53210179414E+02 -0.63481288388E+01 -0.88915175195E+03  0.11070611336E+04  0.65735979011E+03 0.  0.
         13    1    3    3    0    0 -0.18456517432E+03 -0.24311576025E+03 -0.55563066965E+03  0.63395190473E+03  0.00000000000E+00 0.  1.
          3    1    3    3  501    0  0.23777535374E+03  0.23676763141E+03 -0.33352108230E+03  0.47310922889E+03  0.00000000000E+00 0.  1.
         -3    1    1    2    0  502 -0.53210179414E+02  0.63481288388E+01  0.37723704369E+03  0.38102415811E+03  0.00000000000E+00 0. -1.
<mgrwt>
<rscale>  1 0.65954038E+03</rscale>
<asrwt>0</asrwt>
<pdfrwt beam="1">  1       21 0.75090043E-01 0.65954038E+03</pdfrwt>
<pdfrwt beam="2">0</pdfrwt>
<totfact> 0.14290729E+02</totfact>
</mgrwt>
</event>
<event>
 6    1  0.1364923E-004  0.6433257E+03  0.7818608E-02  0.9819384E-01
         21   -1    0    0  501  502  0.00000000000E+00  0.00000000000E+00  0.33437728727E+03  0.33437728727E+03  0.00000000000E+00 0. -1.
         13   -1    0    0    0    0 -0.00000000000E+00 -0.00000000000E+00 -0.10000000000E+04  0.10000000000E+04  0.00000000000E+00 0.  1.
    9000005    2    1    2  501    0  0.61196668512E+02  0.40141335269E+02 -0.89011349429E+03  0.10982576777E+04  0.63914907087E+03 0.  0.
         13    1    3    3    0    0 -0.27447893785E+03  0.66283513599E+02 -0.26003471454E+03  0.38386227252E+03  0.00000000000E+00 0.  1.
          1    1    3    3  501    0  0.33567560636E+03 -0.26142178330E+02 -0.63007877975E+03  0.71439540515E+03  0.00000000000E+00 0.  1.
         -1    1    1    2    0  502 -0.61196668512E+02 -0.40141335269E+02  0.22449078156E+03  0.23611960960E+03  0.00000000000E+00 0. -1.
<mgrwt>
<rscale>  1 0.64332565E+03</rscale>
<asrwt>0</asrwt>
<pdfrwt beam="1">  1       21 0.51442658E-01 0.64332565E+03</pdfrwt>
<pdfrwt beam="2">0</pdfrwt>
<totfact> 0.33202160E+02</totfact>
</mgrwt>
</event>
<event>
 6    1  0.1364923E-004  0.5500209E+03  0.7818608E-02  0.1001489E+00
         21   -1    0    0  501  502  0.00000000000E+00  0.00000000000E+00  0.13213027215E+03  0.13213027215E+03  0.00000000000E+00 0.  1.
         13   -1    0    0    0    0 -0.00000000000E+00 -0.00000000000E+00 -0.10000000000E+04  0.10000000000E+04  0.00000000000E+00 0.  1.
    9000005    2    1    2  501    0 -0.28947343935E+02  0.11997684313E+02 -0.91966688515E+03  0.10715923613E+04  0.54912759531E+03 0.  0.
         13    1    3    3    0    0  0.33291296016E+01 -0.79084062129E+02  0.52275414644E+02  0.94858267763E+02  0.00000000000E+00 0.  1.
          3    1    3    3  501    0 -0.32276473536E+02  0.91081746443E+02 -0.97194229980E+03  0.97673409350E+03  0.00000000000E+00 0.  1.
         -3    1    1    2    0  502  0.28947343935E+02 -0.11997684313E+02  0.51797157298E+02  0.60537910882E+02  0.00000000000E+00 0. -1.
<mgrwt>
<rscale>  1 0.55002092E+03</rscale>
<asrwt>0</asrwt>
<pdfrwt beam="1">  1       21 0.20327734E-01 0.55002092E+03</pdfrwt>
<pdfrwt beam="2">0</pdfrwt>
<totfact> 0.21847320E+03</totfact>
</mgrwt>
</event>
<event>
 6    1  0.1364923E-004  0.6899384E+03  0.7818608E-02  0.9734595E-01
         21   -1    0    0  501  502  0.00000000000E+00  0.00000000000E+00  0.30243117351E+03  0.30243117351E+03  0.00000000000E+00 0.  1.
         13   -1    0    0    0    0 -0.00000000000E+00 -0.00000000000E+00 -0.10000000000E+04  0.10000000000E+04  0.00000000000E+00 0.  1.
    9000005    2    1    2  501    0 -0.23130388845E+03  0.46048830209E+02 -0.79023100326E+03  0.10490376799E+04  0.64837722960E+03 0.  0.
         13    1    3    3    0    0  0.19229960687E+03  0.10417156004E+03 -0.10805505873E+03  0.24394005092E+03  0.00000000000E+00 0.  1.
          1    1    3    3  501    0 -0.42360349532E+03 -0.58122729830E+02 -0.68217594453E+03  0.80509762903E+03  0.00000000000E+00 0.  1.
         -1    1    1    2    0  502  0.23130388845E+03 -0.46048830209E+02  0.92662176765E+02  0.25339349356E+03  0.00000000000E+00 0. -1.
<mgrwt>
<rscale>  1 0.68993841E+03</rscale>
<asrwt>0</asrwt>
<pdfrwt beam="1">  1       21 0.46527872E-01 0.68993841E+03</pdfrwt>
<pdfrwt beam="2">0</pdfrwt>
<totfact> 0.40977728E+02</totfact>
</mgrwt>
</event>
<event>
 6    1  0.1364923E-004  0.7310582E+03  0.7818608E-02  0.9665545E-01
         21   -1    0    0  501  502  0.00000000000E+00  0.00000000000E+00  0.14851219170E+03  0.14851219170E+03  0.00000000000E+00 0.  1.
         13   -1    0    0    0    0 -0.00000000000E+00 -0.00000000000E+00 -0.10000000000E+04  0.10000000000E+04  0.00000000000E+00 0.  1.
    9000005    2    1    2  501    0  0.51240919198E+01  0.28665775682E+02 -0.84730334785E+03  0.11190929340E+04  0.73047795905E+03 0.  0.
         13    1    3    3    0    0 -0.67285925217E+02  0.27533241086E+03 -0.58437998154E+02  0.28939649588E+03  0.00000000000E+00 0.  1.
          1    1    3    3  501    0  0.72410017137E+02 -0.24666663518E+03 -0.78886534970E+03  0.82969643813E+03  0.00000000000E+00 0.  1.
         -3    1    1    2    0  502 -0.51240919198E+01 -0.28665775682E+02 -0.41844604514E+01  0.29419257685E+02  0.00000000000E+00 0. -1.
<mgrwt>
<rscale>  1 0.73105816E+03</rscale>
<asrwt>0</asrwt>
<pdfrwt beam="1">  1       21 0.22848029E-01 0.73105816E+03</pdfrwt>
<pdfrwt beam="2">0</pdfrwt>
<totfact> 0.17295408E+03</totfact>
</mgrwt>
</event>
<event>
 6    1  0.1364923E-004  0.6557457E+03  0.7818608E-02  0.9796057E-01
         21   -1    0    0  501  502  0.00000000000E+00  0.00000000000E+00  0.50678510318E+03  0.50678510318E+03  0.00000000000E+00 0. -1.
         13   -1    0    0    0    0 -0.00000000000E+00 -0.00000000000E+00 -0.10000000000E+04  0.10000000000E+04  0.00000000000E+00 0.  1.
    9000005    2    1    2  501    0 -0.86616638619E+02 -0.34833896495E+02 -0.88644338431E+03  0.11026261174E+04  0.64906597407E+03 0.  0.
         13    1    3    3    0    0 -0.11313718215E+03  0.25649711871E+03 -0.70424264636E+03  0.75798977489E+03  0.00000000000E+00 0.  1.
          1    1    3    3  501    0  0.26520543530E+02 -0.29133101521E+03 -0.18220073796E+03  0.34463634248E+03  0.00000000000E+00 0.  1.
         -3    1    1    2    0  502  0.86616638619E+02  0.34833896495E+02  0.39322848749E+03  0.40415898580E+03  0.00000000000E+00 0. -1.
<mgrwt>
<rscale>  1 0.65574574E+03</rscale>
<asrwt>0</asrwt>
<pdfrwt beam="1">  1       21 0.77966937E-01 0.65574574E+03</pdfrwt>
<pdfrwt beam="2">0</pdfrwt>
<totfact> 0.13108142E+02</totfact>
</mgrwt>
</event>
<event>
 6    1  0.1364923E-004  0.6729380E+03  0.7818608E-02  0.9764665E-01
         21   -1    0    0  501  502  0.00000000000E+00  0.00000000000E+00  0.28516305612E+03  0.28516305612E+03  0.00000000000E+00 0. -1.
         13   -1    0    0    0    0 -0.00000000000E+00 -0.00000000000E+00 -0.10000000000E+04  0.10000000000E+04  0.00000000000E+00 0.  1.
    9000005    2    1    2  501    0 -0.97848882080E+02  0.23208902683E+02 -0.87023125110E+03  0.11000672766E+04  0.66538148886E+03 0.  0.
         13    1    3    3    0    0 -0.11873652647E+03 -0.31225809686E+03 -0.38412077542E+03  0.50906998721E+03  0.00000000000E+00 0.  1.
          1    1    3    3  501    0  0.20887644391E+02  0.33546699954E+03 -0.48611047568E+03  0.59099728936E+03  0.00000000000E+00 0.  1.
         -3    1    1    2    0  502  0.97848882080E+02 -0.23208902683E+02  0.15539430722E+03  0.18509577954E+03  0.00000000000E+00 0. -1.
<mgrwt>
<rscale>  1 0.67293802E+03</rscale>
<asrwt>0</asrwt>
<pdfrwt beam="1">  1       21 0.43871238E-01 0.67293802E+03</pdfrwt>
<pdfrwt beam="2">0</pdfrwt>
<totfact> 0.46468725E+02</totfact>
</mgrwt>
</event>
<event>
 6    1  0.1364923E-004  0.6232935E+03  0.7818608E-02  0.9858224E-01
         21   -1    0    0  501  502  0.00000000000E+00  0.00000000000E+00  0.11262361976E+03  0.11262361976E+03  0.00000000000E+00 0.  1.
         13   -1    0    0    0    0 -0.00000000000E+00 -0.00000000000E+00 -0.10000000000E+04  0.10000000000E+04  0.00000000000E+00 0.  1.
    9000005    2    1    2  501    0 -0.18407305043E+02  0.17303447763E+02 -0.89071825782E+03  0.10871401677E+04  0.62278125470E+03 0.  0.
         13    1    3    3    0    0  0.22721418290E+03 -0.15976401469E+03 -0.23103852610E+03  0.36128883991E+03  0.00000000000E+00 0.  1.
          3    1    3    3  501    0 -0.24562148794E+03  0.17706746245E+03 -0.65967973171E+03  0.72585132778E+03  0.00000000000E+00 0.  1.
         -3    1    1    2    0  502  0.18407305043E+02 -0.17303447763E+02  0.33418775745E+01  0.25483452065E+02  0.00000000000E+00 0. -1.
<mgrwt>
<rscale>  1 0.62329345E+03</rscale>
<asrwt>0</asrwt>
<pdfrwt beam="1">  1       21 0.17326710E-01 0.62329345E+03</pdfrwt>
<pdfrwt beam="2">0</pdfrwt>
<totfact> 0.29518450E+03</totfact>
</mgrwt>
</event>
<event>
 6    1  0.1364923E-004  0.6715112E+03  0.7818608E-02  0.9767232E-01
         21   -1    0    0  501  502  0.00000000000E+00  0.00000000000E+00  0.18985998316E+03  0.18985998316E+03  0.00000000000E+00 0. -1.
         13   -1    0    0    0    0 -0.00000000000E+00 -0.00000000000E+00 -0.10000000000E+04  0.10000000000E+04  0.00000000000E+00 0.  1.
    9000005    2    1    2  501    0 -0.10123349548E+02 -0.17992325887E+02 -0.88572762642E+03  0.11115037918E+04  0.67119374629E+03 0.  0.
         13    1    3    3    0    0 -0.18849916585E+03  0.26903492739E+03 -0.50486399120E+03  0.60232829694E+03  0.00000000000E+00 0.  1.
          1    1    3    3  501    0  0.17837581630E+03 -0.28702725328E+03 -0.38086363522E+03  0.50917549489E+03  0.00000000000E+00 0.  1.
         -1    1    1    2    0  502  0.10123349548E+02  0.17992325887E+02  0.75587609582E+02  0.78356191326E+02  0.00000000000E+00 0. -1.
<mgrwt>
<rscale>  1 0.67151117E+03</rscale>
<asrwt>0</asrwt>
<pdfrwt beam="1">  1       21 0.29209227E-01 0.67151117E+03</pdfrwt>
<pdfrwt beam="2">0</pdfrwt>
<totfact> 0.10690623E+03</totfact>
</mgrwt>
</event>
<event>
 6    1  0.1364923E-004  0.7118405E+03  0.7818608E-02  0.9697195E-01
         21   -1    0    0  501  502  0.00000000000E+00  0.00000000000E+00  0.26331459826E+03  0.26331459826E+03  0.00000000000E+00 0. -1.
         13   -1    0    0    0    0 -0.00000000000E+00 -0.00000000000E+00 -0.10000000000E+04  0.10000000000E+04  0.00000000000E+00 0.  1.
    9000005    2    1    2  501    0  0.14753214130E+03  0.23481056501E+03 -0.67119217534E+03  0.97837408366E+03  0.65560291121E+03 0.  0.
         13    1    3    3    0    0  0.47474525787E+02 -0.21497588765E+03 -0.36125907948E+03  0.42305624375E+03  0.00000000000E+00 0.  1.
          1    1    3    3  501    0  0.10005761551E+03  0.44978645265E+03 -0.30993309586E+03  0.55531783991E+03  0.00000000000E+00 0.  1.
         -3    1    1    2    0  502 -0.14753214130E+03 -0.23481056501E+03 -0.65493226398E+02  0.28494051460E+03  0.00000000000E+00 0. -1.
<mgrwt>
<rscale>  1 0.71184051E+03</rscale>
<asrwt>0</asrwt>
<pdfrwt beam="1">  1       21 0.40509937E-01 0.71184051E+03</pdfrwt>
<pdfrwt beam="2">0</pdfrwt>
<totfact> 0.54742754E+02</totfact>
</mgrwt>
</event>
<event>
 6    1  0.1364923E-004  0.6805104E+03  0.7818608E-02  0.9751155E-01
         21   -1    0    0  501  502  0.00000000000E+00  0.00000000000E+00  0.31383120429E+03  0.31383120429E+03  0.00000000000E+00 0. -1.
         13   -1    0    0    0    0 -0.00000000000E+00 -0.00000000000E+00 -0.10000000000E+04  0.10000000000E+04  0.00000000000E+00 0.  1.
    9000005    2    1    2  501    0 -0.19321741641E+03 -0.84533671382E+02 -0.81881549498E+03  0.10646845438E+04  0.64700498561E+03 0.  0.
         13    1    3    3    0    0 -0.42195586533E+03  0.22797852296E+02 -0.44680005478E+03  0.61497705917E+03  0.00000000000E+00 0.  1.
          3    1    3    3  501    0  0.22873844892E+03 -0.10733152368E+03 -0.37201544020E+03  0.44970748463E+03  0.00000000000E+00 0.  1.
         -3    1    1    2    0  502  0.19321741641E+03  0.84533671382E+02  0.13264669927E+03  0.24914666048E+03  0.00000000000E+00 0. -1.
<mgrwt>
<rscale>  1 0.68051037E+03</rscale>
<asrwt>0</asrwt>
<pdfrwt beam="1">  1       21 0.48281722E-01 0.68051037E+03</pdfrwt>
<pdfrwt beam="2">0</pdfrwt>
<totfact> 0.37904421E+02</totfact>
</mgrwt>
</event>
<event>
 6    1  0.1364923E-004  0.6648506E+03  0.7818608E-02  0.9779305E-01
         21   -1    0    0  501  502  0.00000000000E+00  0.00000000000E+00  0.14740937242E+03  0.14740937242E+03  0.00000000000E+00 0.  1.
         13   -1    0    0    0    0 -0.00000000000E+00 -0.00000000000E+00 -0.10000000000E+04  0.10000000000E+04  0.00000000000E+00 0.  1.
    9000005    2    1    2  501    0  0.47603961278E+02  0.35403069439E+02 -0.86064814436E+03  0.10875391959E+04  0.66219842937E+03 0.  0.
         13    1    3    3    0    0  0.17957981265E+01  0.17499561331E+03  0.36223187267E+02  0.17871432194E+03  0.00000000000E+00 0.  1.
          3    1    3    3  501    0  0.45808163151E+02 -0.13959254387E+03 -0.89687133163E+03  0.90882487400E+03  0.00000000000E+00 0.  1.
         -3    1    1    2    0  502 -0.47603961278E+02 -0.35403069439E+02  0.80575167799E+01  0.59870176479E+02  0.00000000000E+00 0. -1.
<mgrwt>
<rscale>  1 0.66485057E+03</rscale>
<asrwt>0</asrwt>
<pdfrwt beam="1">  1       21 0.22678364E-01 0.66485057E+03</pdfrwt>
<pdfrwt beam="2">0</pdfrwt>
<totfact> 0.17598604E+03</totfact>
</mgrwt>
</event>
<event>
 6    1  0.1364923E-004  0.6607151E+03  0.7818608E-02  0.9786878E-01
         21   -1    0    0  501  502  0.00000000000E+00  0.00000000000E+00  0.17166655723E+03  0.17166655723E+03  0.00000000000E+00 0. -1.
         13   -1    0    0    0    0 -0.00000000000E+00 -0.00000000000E+00 -0.10000000000E+04  0.10000000000E+04  0.00000000000E+00 0.  1.
    9000005    2    1    2  501    0 -0.23737471507E+02 -0.52759208035E+02 -0.87563204421E+03  0.10969393247E+04  0.65817733446E+03 0.  0.
         13    1    3    3    0    0  0.13306907098E+03  0.15273005168E+03 -0.20509656508E+02  0.20360376310E+03  0.00000000000E+00 0.  1.
          3    1    3    3  501    0 -0.15680654249E+03 -0.20548925972E+03 -0.85512238771E+03  0.89333556158E+03  0.00000000000E+00 0.  1.
         -1    1    1    2    0  502  0.23737471507E+02  0.52759208035E+02  0.47298601448E+02  0.74727232553E+02  0.00000000000E+00 0. -1.
<mgrwt>
<rscale>  1 0.66071507E+03</rscale>
<asrwt>0</asrwt>
<pdfrwt beam="1">  1       21 0.26410239E-01 0.66071507E+03</pdfrwt>
<pdfrwt beam="2">0</pdfrwt>
<totfact> 0.13064900E+03</totfact>
</mgrwt>
</event>
<event>
 6    1  0.1364923E-004  0.6613632E+03  0.7818608E-02  0.9785688E-01
         21   -1    0    0  501  502  0.00000000000E+00  0.00000000000E+00  0.17080236291E+03  0.17080236291E+03  0.00000000000E+00 0.  1.
         13   -1    0    0    0    0 -0.00000000000E+00 -0.00000000000E+00 -0.10000000000E+04  0.10000000000E+04  0.00000000000E+00 0.  1.
    9000005    2    1    2  501    0  0.77592060668E+01 -0.11610355661E+03 -0.82086127815E+03  0.10541415897E+04  0.65104609049E+03 0.  0.
         13    1    3    3    0    0  0.16984072199E+03  0.20366224298E+03 -0.52943035766E+03  0.59213231940E+03  0.00000000000E+00 0.  1.
          3    1    3    3  501    0 -0.16208151593E+03 -0.31976579959E+03 -0.29143092048E+03  0.46200927026E+03  0.00000000000E+00 0.  1.
         -3    1    1    2    0  502 -0.77592060668E+01  0.11610355661E+03 -0.83363589405E+01  0.11666077326E+03  0.00000000000E+00 0. -1.
<mgrwt>
<rscale>  1 0.66136318E+03</rscale>
<asrwt>0</asrwt>
<pdfrwt beam="1">  1       21 0.26277286E-01 0.66136318E+03</pdfrwt>
<pdfrwt beam="2">0</pdfrwt>
<totfact> 0.13195094E+03</totfact>
</mgrwt>
</event>
<event>
 6    1  0.1364923E-004  0.6187077E+03  0.7818608E-02  0.9867336E-01
         21   -1    0    0  501  502  0.00000000000E+00  0.00000000000E+00  0.12545357245E+03  0.12545357245E+03  0.00000000000E+00 0.  1.
         13   -1    0    0    0    0 -0.00000000000E+00 -0.00000000000E+00 -0.10000000000E+04  0.10000000000E+04  0.00000000000E+00 0.  1.
    9000005    2    1    2  501    0  0.39208510541E+02 -0.29074209079E+02 -0.88064748324E+03  0.10762617051E+04  0.61677925646E+03 0.  0.
         13    1    3    3    0    0 -0.77546545985E+02  0.27442597717E+03 -0.32429251768E+03  0.43184339842E+03  0.00000000000E+00 0.  1.
          1    1    3    3  501    0  0.11675505653E+03 -0.30350018625E+03 -0.55635496556E+03  0.64441830668E+03  0.00000000000E+00 0.  1.
         -1    1    1    2    0  502 -0.39208510541E+02  0.29074209079E+02  0.61010556941E+01  0.49191867346E+02  0.00000000000E+00 0. -1.
<mgrwt>
<rscale>  1 0.61870774E+03</rscale>
<asrwt>0</asrwt>
<pdfrwt beam="1">  1       21 0.19300549E-01 0.61870774E+03</pdfrwt>
<pdfrwt beam="2">0</pdfrwt>
<totfact> 0.24053969E+03</totfact>
</mgrwt>
</event>
<event>
 6    1  0.1364923E-004  0.6559355E+03  0.7818608E-02  0.9795705E-01
         21   -1    0    0  501  502  0.00000000000E+00  0.00000000000E+00  0.36390212891E+03  0.36390212891E+03  0.00000000000E+00 0. -1.
         13   -1    0    0    0    0 -0.00000000000E+00 -0.00000000000E+00 -0.10000000000E+04  0.10000000000E+04  0.00000000000E+00 0.  1.
    9000005    2    1    2  501    0  0.22483590138E+02 -0.23781041268E+02 -0.89127959509E+03  0.11066303621E+04  0.65511860902E+03 0.  0.
         13    1    3    3    0    0 -0.20371738573E+03 -0.23722493876E+03 -0.61805629466E+03  0.69265433528E+03  0.00000000000E+00 0.  1.
          1    1    3    3  501    0  0.22620097587E+03  0.21344389749E+03 -0.27322330043E+03  0.41397602679E+03  0.00000000000E+00 0.  1.
         -1    1    1    2    0  502 -0.22483590138E+02  0.23781041268E+02  0.25518172400E+03  0.25727176684E+03  0.00000000000E+00 0. -1.
<mgrwt>
<rscale>  1 0.65593555E+03</rscale>
<asrwt>0</asrwt>
<pdfrwt beam="1">  1       21 0.55984941E-01 0.65593555E+03</pdfrwt>
<pdfrwt beam="2">0</pdfrwt>
<totfact> 0.27603885E+02</totfact>
</mgrwt>
</event>
<event>
 6    1  0.1364923E-004  0.6486775E+03  0.7818608E-02  0.9809264E-01
         21   -1    0    0  501  502  0.00000000000E+00  0.00000000000E+00  0.18786046127E+03  0.18786046127E+03  0.00000000000E+00 0.  1.
         13   -1    0    0    0    0 -0.00000000000E+00 -0.00000000000E+00 -0.10000000000E+04  0.10000000000E+04  0.00000000000E+00 0.  1.
    9000005    2    1    2  501    0  0.18381924479E+03 -0.88301870576E+02 -0.70304493691E+03  0.95658493890E+03  0.61578878434E+03 0.  0.
         13    1    3    3    0    0 -0.10657425424E+03  0.13427459571E+03 -0.51988522919E+03  0.54741975691E+03  0.00000000000E+00 0.  1.
          1    1    3    3  501    0  0.29039349903E+03 -0.22257646629E+03 -0.18315970772E+03  0.40916518199E+03  0.00000000000E+00 0.  1.
         -1    1    1    2    0  502 -0.18381924479E+03  0.88301870576E+02 -0.10909460181E+03  0.23127552237E+03  0.00000000000E+00 0. -1.
<mgrwt>
<rscale>  1 0.64867755E+03</rscale>
<asrwt>0</asrwt>
<pdfrwt beam="1">  1       21 0.28901609E-01 0.64867755E+03</pdfrwt>
<pdfrwt beam="2">0</pdfrwt>
<totfact> 0.10933853E+03</totfact>
</mgrwt>
</event>
<event>
 6    1  0.1364923E-004  0.6603860E+03  0.7818608E-02  0.9787483E-01
         21   -1    0    0  501  502  0.00000000000E+00  0.00000000000E+00  0.16637505273E+03  0.16637505273E+03  0.00000000000E+00 0.  1.
         13   -1    0    0    0    0 -0.00000000000E+00 -0.00000000000E+00 -0.10000000000E+04  0.10000000000E+04  0.00000000000E+00 0.  1.
    9000005    2    1    2  501    0 -0.56409165997E+02  0.45369098125E+02 -0.86433260057E+03  0.10877410331E+04  0.65640639972E+03 0.  0.
         13    1    3    3    0    0 -0.17636600790E+03 -0.27011068562E+03 -0.40659328634E+03  0.51902105133E+03  0.00000000000E+00 0.  1.
          3    1    3    3  501    0  0.11995684190E+03  0.31547978374E+03 -0.45773931423E+03  0.56871998176E+03  0.00000000000E+00 0.  1.
         -1    1    1    2    0  502  0.56409165997E+02 -0.45369098125E+02  0.30707653295E+02  0.78634019636E+02  0.00000000000E+00 0. -1.
<mgrwt>
<rscale>  1 0.66038603E+03</rscale>
<asrwt>0</asrwt>
<pdfrwt beam="1">  1       21 0.25596161E-01 0.66038603E+03</pdfrwt>
<pdfrwt beam="2">0</pdfrwt>
<totfact> 0.13895891E+03</totfact>
</mgrwt>
</event>
<event>
 6    1  0.1364923E-004  0.6493201E+03  0.7818608E-02  0.9808056E-01
         21   -1    0    0  501  502  0.00000000000E+00  0.00000000000E+00  0.20079065041E+03  0.20079065041E+03  0.00000000000E+00 0.  1.
         13   -1    0    0    0    0 -0.00000000000E+00 -0.00000000000E+00 -0.10000000000E+04  0.10000000000E+04  0.00000000000E+00 0.  1.
    9000005    2    1    2  501    0 -0.11811027358E+02 -0.27872630394E+02 -0.89193321984E+03  0.11032504023E+04  0.64861405903E+03 0.  0.
         13    1    3    3    0    0 -0.32031593009E+03 -0.21312039974E+02 -0.31936284155E+03  0.45282350058E+03  0.00000000000E+00 0.  1.
          3    1    3    3  501    0  0.30850490273E+03 -0.65605904200E+01 -0.57257037829E+03  0.65042690169E+03  0.00000000000E+00 0.  1.
         -3    1    1    2    0  502  0.11811027358E+02  0.27872630394E+02  0.92723870253E+02  0.97540248139E+02  0.00000000000E+00 0. -1.
<mgrwt>
<rscale>  1 0.64932009E+03</rscale>
<asrwt>0</asrwt>
<pdfrwt beam="1">  1       21 0.30890868E-01 0.64932009E+03</pdfrwt>
<pdfrwt beam="2">0</pdfrwt>
<totfact> 0.95700029E+02</totfact>
</mgrwt>
</event>
<event>
 6    1  0.1364923E-004  0.6451247E+03  0.7818608E-02  0.9815971E-01
         21   -1    0    0  501  502  0.00000000000E+00  0.00000000000E+00  0.13549870754E+03  0.13549870754E+03  0.00000000000E+00 0.  1.
         13   -1    0    0    0    0 -0.00000000000E+00 -0.00000000000E+00 -0.10000000000E+04  0.10000000000E+04  0.00000000000E+00 0.  1.
    9000005    2    1    2  501    0 -0.34505294520E+02  0.11120425823E+02 -0.88397378585E+03  0.10943470706E+04  0.64410525363E+03 0.  0.
         13    1    3    3    0    0 -0.12198680476E+03  0.24410121296E+03 -0.13370317018E+03  0.30387945048E+03  0.00000000000E+00 0.  1.
          1    1    3    3  501    0  0.87481510245E+02 -0.23298078714E+03 -0.75027061566E+03  0.79046762017E+03  0.00000000000E+00 0.  1.
         -1    1    1    2    0  502  0.34505294520E+02 -0.11120425823E+02  0.19472493389E+02  0.41151636895E+02  0.00000000000E+00 0. -1.
<mgrwt>
<rscale>  1 0.64512468E+03</rscale>
<asrwt>0</asrwt>
<pdfrwt beam="1">  1       21 0.20845954E-01 0.64512468E+03</pdfrwt>
<pdfrwt beam="2">0</pdfrwt>
<totfact> 0.20729616E+03</totfact>
</mgrwt>
</event>
<event>
 6    1  0.1364923E-004  0.6665789E+03  0.7818608E-02  0.9776158E-01
         21   -1    0    0  501  502  0.00000000000E+00  0.00000000000E+00  0.16124612875E+03  0.16124612875E+03  0.00000000000E+00 0.  1.
         13   -1    0    0    0    0 -0.00000000000E+00 -0.00000000000E+00 -0.10000000000E+04  0.10000000000E+04  0.00000000000E+00 0.  1.
    9000005    2    1    2  501    0 -0.34076364036E+02  0.23302425826E+02 -0.87928705844E+03  0.11033916484E+04  0.66529932883E+03 0.  0.
         13    1    3    3    0    0 -0.27822902341E+03 -0.49517474928E+02 -0.78057444760E+03  0.83015651418E+03  0.00000000000E+00 0.  1.
          3    1    3    3  501    0  0.24415265937E+03  0.72819900754E+02 -0.98712610842E+02  0.27323513420E+03  0.00000000000E+00 0.  1.
         -1    1    1    2    0  502  0.34076364036E+02 -0.23302425826E+02  0.40533187191E+02  0.57854480372E+02  0.00000000000E+00 0. -1.
<mgrwt>
<rscale>  1 0.66657888E+03</rscale>
<asrwt>0</asrwt>
<pdfrwt beam="1">  1       21 0.24807096E-01 0.66657888E+03</pdfrwt>
<pdfrwt beam="2">0</pdfrwt>
<totfact> 0.14771934E+03</totfact>
</mgrwt>
</event>
<event>
 6    1  0.1364923E-004  0.6369434E+03  0.7818608E-02  0.9831592E-01
         21   -1    0    0  501  502  0.00000000000E+00  0.00000000000E+00  0.16213922945E+03  0.16213922945E+03  0.00000000000E+00 0. -1.
         13   -1    0    0    0    0 -0.00000000000E+00 -0.00000000000E+00 -0.10000000000E+04  0.10000000000E+04  0.00000000000E+00 0.  1.
    9000005    2    1    2  501    0 -0.36056344969E+02  0.10933590237E+02 -0.89206949320E+03  0.10961226481E+04  0.63582802350E+03 0.  0.
         13    1    3    3    0    0 -0.27807548806E+03 -0.14456216787E+03 -0.64421978093E+03  0.71641002476E+03  0.00000000000E+00 0.  1.
          1    1    3    3  501    0  0.24201914309E+03  0.15549575811E+03 -0.24784971227E+03  0.37971262329E+03  0.00000000000E+00 0.  1.
         -3    1    1    2    0  502  0.36056344969E+02 -0.10933590237E+02  0.54208722654E+02  0.66016581400E+02  0.00000000000E+00 0. -1.
<mgrwt>
<rscale>  1 0.63694339E+03</rscale>
<asrwt>0</asrwt>
<pdfrwt beam="1">  1       21 0.24944496E-01 0.63694339E+03</pdfrwt>
<pdfrwt beam="2">0</pdfrwt>
<totfact> 0.14635325E+03</totfact>
</mgrwt>
</event>
<event>
 6    1  0.1364923E-004  0.6734479E+03  0.7818608E-02  0.9763749E-01
         21   -1    0    0  501  502  0.00000000000E+00  0.00000000000E+00  0.19563949642E+03  0.19563949642E+03  0.00000000000E+00 0. -1.
         13   -1    0    0    0    0 -0.00000000000E+00 -0.00000000000E+00 -0.10000000000E+04  0.10000000000E+04  0.00000000000E+00 0.  1.
    9000005    2    1    2  501    0  0.14771237813E+03 -0.11949189430E+03 -0.72561535884E+03  0.98997458140E+03  0.64609191557E+03 0.  0.
         13    1    3    3    0    0 -0.14923388704E+02  0.79722794952E+02  0.97960777203E+02  0.12717997262E+03  0.00000000000E+00 0.  1.
          3    1    3    3  501    0  0.16263576683E+03 -0.19921468925E+03 -0.82357613605E+03  0.86279460878E+03  0.00000000000E+00 0.  1.
         -3    1    1    2    0  502 -0.14771237813E+03  0.11949189430E+03 -0.78745144732E+02  0.20566491503E+03  0.00000000000E+00 0. -1.
<mgrwt>
<rscale>  1 0.67344786E+03</rscale>
<asrwt>0</asrwt>
<pdfrwt beam="1">  1       21 0.30098383E-01 0.67344786E+03</pdfrwt>
<pdfrwt beam="2">0</pdfrwt>
<totfact> 0.10066971E+03</totfact>
</mgrwt>
</event>
<event>
 6    1  0.1364923E-004  0.6518518E+03  0.7818608E-02  0.9803311E-01
         21   -1    0    0  501  502  0.00000000000E+00  0.00000000000E+00  0.44280923462E+03  0.44280923462E+03  0.00000000000E+00 0. -1.
         13   -1    0    0    0    0 -0.00000000000E+00 -0.00000000000E+00 -0.10000000000E+04  0.10000000000E+04  0.00000000000E+00 0.  1.
    9000005    2    1    2  501    0 -0.92454904661E+02 -0.35769135929E+02 -0.88567299051E+03  0.10996942208E+04  0.64426965834E+03 0.  0.
         13    1    3    3    0    0  0.17465017930E+03  0.15294407943E+03 -0.10798523426E+03  0.25603786318E+03  0.00000000000E+00 0.  1.
          1    1    3    3  501    0 -0.26710508396E+03 -0.18871321536E+03 -0.77768775625E+03  0.84365635762E+03  0.00000000000E+00 0.  1.
         -3    1    1    2    0  502  0.92454904661E+02  0.35769135929E+02  0.32848222513E+03  0.34311501382E+03  0.00000000000E+00 0. -1.
<mgrwt>
<rscale>  1 0.65185177E+03</rscale>
<asrwt>0</asrwt>
<pdfrwt beam="1">  1       21 0.68124496E-01 0.65185177E+03</pdfrwt>
<pdfrwt beam="2">0</pdfrwt>
<totfact> 0.17859447E+02</totfact>
</mgrwt>
</event>
<event>
 6    1  0.1364923E-004  0.6723699E+03  0.7818608E-02  0.9765686E-01
         21   -1    0    0  501  502  0.00000000000E+00  0.00000000000E+00  0.22155759340E+03  0.22155759340E+03  0.00000000000E+00 0.  1.
         13   -1    0    0    0    0 -0.00000000000E+00 -0.00000000000E+00 -0.10000000000E+04  0.10000000000E+04  0.00000000000E+00 0.  1.
    9000005    2    1    2  501    0 -0.11470593052E+03  0.11096757618E+03 -0.81627479908E+03  0.10575376453E+04  0.65315394059E+03 0.  0.
         13    1    3    3    0    0  0.43048790534E+02 -0.20779405238E+03 -0.61119334481E+03  0.64698444441E+03  0.00000000000E+00 0.  1.
          3    1    3    3  501    0 -0.15775472105E+03  0.31876162856E+03 -0.20508145427E+03  0.41055320087E+03  0.00000000000E+00 0.  1.
         -3    1    1    2    0  502  0.11470593052E+03 -0.11096757618E+03  0.37832392486E+02  0.16401994812E+03  0.00000000000E+00 0. -1.
<mgrwt>
<rscale>  1 0.67236993E+03</rscale>
<asrwt>0</asrwt>
<pdfrwt beam="1">  1       21 0.34085783E-01 0.67236993E+03</pdfrwt>
<pdfrwt beam="2">0</pdfrwt>
<totfact> 0.78316909E+02</totfact>
</mgrwt>
</event>
<event>
 6    1  0.1364923E-004  0.6521323E+03  0.7818608E-02  0.9802786E-01
         21   -1    0    0  501  502  0.00000000000E+00  0.00000000000E+00  0.28077787960E+03  0.28077787960E+03  0.00000000000E+00 0. -1.
         13   -1    0    0    0    0 -0.00000000000E+00 -0.00000000000E+00 -0.10000000000E+04  0.10000000000E+04  0.00000000000E+00 0.  1.
    9000005    2    1    2  501    0  0.21724737804E+02 -0.47681626145E+02 -0.88931607237E+03  0.11027962676E+04  0.65002386848E+03 0.  0.
         13    1    3    3    0    0 -0.12427394444E+03  0.14789446029E+03 -0.82924957828E+03  0.85145266911E+03  0.00000000000E+00 0.  1.
          3    1    3    3  501    0  0.14599868225E+03 -0.19557608643E+03 -0.60066494090E+02  0.25134359851E+03  0.00000000000E+00 0.  1.
         -3    1    1    2    0  502 -0.21724737804E+02  0.47681626145E+02  0.17009395197E+03  0.17798161198E+03  0.00000000000E+00 0. -1.
<mgrwt>
<rscale>  1 0.65213230E+03</rscale>
<asrwt>0</asrwt>
<pdfrwt beam="1">  1       21 0.43196596E-01 0.65213230E+03</pdfrwt>
<pdfrwt beam="2">0</pdfrwt>
<totfact> 0.48092145E+02</totfact>
</mgrwt>
</event>
<event>
 6    1  0.1364923E-004  0.6650022E+03  0.7818608E-02  0.9779029E-01
         21   -1    0    0  501  502  0.00000000000E+00  0.00000000000E+00  0.28261939779E+03  0.28261939779E+03  0.00000000000E+00 0. -1.
         13   -1    0    0    0    0 -0.00000000000E+00 -0.00000000000E+00 -0.10000000000E+04  0.10000000000E+04  0.00000000000E+00 0.  1.
    9000005    2    1    2  501    0  0.95265624205E+01 -0.35367090181E+02 -0.88727508331E+03  0.11088214658E+04  0.66399275831E+03 0.  0.
         13    1    3    3    0    0  0.24344685262E+03  0.14387088754E+03 -0.16184985569E+03  0.32582292449E+03  0.00000000000E+00 0.  1.
          3    1    3    3  501    0 -0.23392029020E+03 -0.17923797772E+03 -0.72542522762E+03  0.78299854131E+03  0.00000000000E+00 0.  1.
         -3    1    1    2    0  502 -0.95265624205E+01  0.35367090181E+02  0.16989448110E+03  0.17379793200E+03  0.00000000000E+00 0. -1.
<mgrwt>
<rscale>  1 0.66500223E+03</rscale>
<asrwt>0</asrwt>
<pdfrwt beam="1">  1       21 0.43479906E-01 0.66500223E+03</pdfrwt>
<pdfrwt beam="2">0</pdfrwt>
<totfact> 0.47384456E+02</totfact>
</mgrwt>
</event>
<event>
 6    1  0.1364923E-004  0.6485067E+03  0.7818608E-02  0.9809585E-01
         21   -1    0    0  501  502  0.00000000000E+00  0.00000000000E+00  0.15755363413E+03  0.15755363413E+03  0.00000000000E+00 0.  1.
         13   -1    0    0    0    0 -0.00000000000E+00 -0.00000000000E+00 -0.10000000000E+04  0.10000000000E+04  0.00000000000E+00 0.  1.
    9000005    2    1    2  501    0  0.30624400695E+02  0.12587014734E+02 -0.88901573012E+03  0.11004135209E+04  0.64766091563E+03 0.  0.
         13    1    3    3    0    0 -0.25158414245E+03  0.18166386654E+03 -0.52425145856E+03  0.60920926859E+03  0.00000000000E+00 0.  1.
          3    1    3    3  501    0  0.28220854314E+03 -0.16907685180E+03 -0.36476427156E+03  0.49120425227E+03  0.00000000000E+00 0.  1.
         -3    1    1    2    0  502 -0.30624400695E+02 -0.12587014734E+02  0.46569364245E+02  0.57140113266E+02  0.00000000000E+00 0. -1.
<mgrwt>
<rscale>  1 0.64850671E+03</rscale>
<asrwt>0</asrwt>
<pdfrwt beam="1">  1       21 0.24239020E-01 0.64850671E+03</pdfrwt>
<pdfrwt beam="2">0</pdfrwt>
<totfact> 0.15471040E+03</totfact>
</mgrwt>
</event>
<event>
 6    1  0.1364923E-004  0.6539024E+03  0.7818608E-02  0.9799484E-01
         21   -1    0    0  501  502  0.00000000000E+00  0.00000000000E+00  0.13154451087E+03  0.13154451087E+03  0.00000000000E+00 0.  1.
         13   -1    0    0    0    0 -0.00000000000E+00 -0.00000000000E+00 -0.10000000000E+04  0.10000000000E+04  0.00000000000E+00 0.  1.
    9000005    2    1    2  501    0 -0.12938797852E+02  0.62579801330E+02 -0.83116856019E+03  0.10575583021E+04  0.65077242011E+03 0.  0.
         13    1    3    3    0    0 -0.49042611869E+02  0.11578237583E+03 -0.93065087988E+03  0.93910691434E+03  0.00000000000E+00 0.  1.
          1    1    3    3  501    0  0.36103814017E+02 -0.53202574503E+02  0.99482319693E+02  0.11845138772E+03  0.00000000000E+00 0.  1.
         -3    1    1    2    0  502  0.12938797852E+02 -0.62579801330E+02 -0.37286928947E+02  0.73986208814E+02  0.00000000000E+00 0. -1.
<mgrwt>
<rscale>  1 0.65390243E+03</rscale>
<asrwt>0</asrwt>
<pdfrwt beam="1">  1       21 0.20237616E-01 0.65390243E+03</pdfrwt>
<pdfrwt beam="2">0</pdfrwt>
<totfact> 0.21936271E+03</totfact>
</mgrwt>
</event>
<event>
 6    1  0.1364923E-004  0.6444172E+03  0.7818608E-02  0.9817312E-01
         21   -1    0    0  501  502  0.00000000000E+00  0.00000000000E+00  0.25440776918E+03  0.25440776918E+03  0.00000000000E+00 0. -1.
         13   -1    0    0    0    0 -0.00000000000E+00 -0.00000000000E+00 -0.10000000000E+04  0.10000000000E+04  0.00000000000E+00 0.  1.
    9000005    2    1    2  501    0 -0.96944171952E+02  0.34042290452E+02 -0.87655853886E+03  0.10879468913E+04  0.63617333823E+03 0.  0.
         13    1    3    3    0    0 -0.16536649905E+03  0.28028014148E+03 -0.71505684707E+03  0.78562671242E+03  0.00000000000E+00 0.  1.
          1    1    3    3  501    0  0.68422327093E+02 -0.24623785103E+03 -0.16150169179E+03  0.30232017891E+03  0.00000000000E+00 0.  1.
         -1    1    1    2    0  502  0.96944171952E+02 -0.34042290452E+02  0.13096630804E+03  0.16646087786E+03  0.00000000000E+00 0. -1.
<mgrwt>
<rscale>  1 0.64441723E+03</rscale>
<asrwt>0</asrwt>
<pdfrwt beam="1">  1       21 0.39139656E-01 0.64441723E+03</pdfrwt>
<pdfrwt beam="2">0</pdfrwt>
<totfact> 0.59105654E+02</totfact>
</mgrwt>
</event>
<event>
 6    1  0.1364923E-004  0.6499251E+03  0.7818608E-02  0.9806920E-01
         21   -1    0    0  501  502  0.00000000000E+00  0.00000000000E+00  0.44608175073E+03  0.44608175073E+03  0.00000000000E+00 0. -1.
         13   -1    0    0    0    0 -0.00000000000E+00 -0.00000000000E+00 -0.10000000000E+04  0.10000000000E+04  0.00000000000E+00 0.  1.
    9000005    2    1    2  501    0 -0.10325400670E+02 -0.12198912112E+03 -0.88217692250E+03  0.10957366122E+04  0.63829040496E+03 0.  0.
         13    1    3    3    0    0  0.17815676310E+03 -0.26576706436E+03 -0.76928226627E+03  0.83316695202E+03  0.00000000000E+00 0.  1.
          3    1    3    3  501    0 -0.18848216377E+03  0.14377794324E+03 -0.11289465623E+03  0.26256966014E+03  0.00000000000E+00 0.  1.
         -1    1    1    2    0  502  0.10325400670E+02  0.12198912112E+03  0.32825867322E+03  0.35034513857E+03  0.00000000000E+00 0. -1.
<mgrwt>
<rscale>  1 0.64992507E+03</rscale>
<asrwt>0</asrwt>
<pdfrwt beam="1">  1       21 0.68627960E-01 0.64992507E+03</pdfrwt>
<pdfrwt beam="2">0</pdfrwt>
<totfact> 0.17568570E+02</totfact>
</mgrwt>
</event>
<event>
 6    1  0.1364923E-004  0.6172397E+03  0.7818608E-02  0.9870271E-01
         21   -1    0    0  501  502  0.00000000000E+00  0.00000000000E+00  0.73255908699E+03  0.73255908699E+03  0.00000000000E+00 0. -1.
         13   -1    0    0    0    0 -0.00000000000E+00 -0.00000000000E+00 -0.10000000000E+04  0.10000000000E+04  0.00000000000E+00 0.  1.
    9000005    2    1    2  501    0  0.62318936051E+02 -0.14041469140E+02 -0.90299986563E+03  0.10937977897E+04  0.61392510521E+03 0.  0.
         13    1    3    3    0    0 -0.67196118788E+01 -0.30668946651E+03 -0.55291936209E+03  0.63231590445E+03  0.00000000000E+00 0.  1.
          1    1    3    3  501    0  0.69038547930E+02  0.29264799737E+03 -0.35008050354E+03  0.46148188526E+03  0.00000000000E+00 0.  1.
         -1    1    1    2    0  502 -0.62318936051E+02  0.14041469140E+02  0.63555895262E+03  0.63876129728E+03  0.00000000000E+00 0. -1.
<mgrwt>
<rscale>  1 0.61723970E+03</rscale>
<asrwt>0</asrwt>
<pdfrwt beam="1">  1       21 0.11270139E+00 0.61723970E+03</pdfrwt>
<pdfrwt beam="2">0</pdfrwt>
<totfact> 0.54144584E+01</totfact>
</mgrwt>
</event>
<event>
 6    1  0.1364923E-004  0.6254325E+03  0.7818608E-02  0.9854003E-01
         21   -1    0    0  501  502  0.00000000000E+00  0.00000000000E+00  0.21552541925E+03  0.21552541925E+03  0.00000000000E+00 0. -1.
         13   -1    0    0    0    0 -0.00000000000E+00 -0.00000000000E+00 -0.10000000000E+04  0.10000000000E+04  0.00000000000E+00 0.  1.
    9000005    2    1    2  501    0  0.68672805089E+01 -0.29585665877E+02 -0.90005428457E+03  0.10960216992E+04  0.62469462846E+03 0.  0.
         13    1    3    3    0    0 -0.15819618179E+03  0.93935721658E+02 -0.12026099274E+02  0.18437618827E+03  0.00000000000E+00 0.  1.
          1    1    3    3  501    0  0.16506346230E+03 -0.12352138753E+03 -0.88802818529E+03  0.91164551095E+03  0.00000000000E+00 0.  1.
         -1    1    1    2    0  502 -0.68672805089E+01  0.29585665877E+02  0.11557970381E+03  0.11950372003E+03  0.00000000000E+00 0. -1.
<mgrwt>
<rscale>  1 0.62543253E+03</rscale>
<asrwt>0</asrwt>
<pdfrwt beam="1">  1       21 0.33157756E-01 0.62543253E+03</pdfrwt>
<pdfrwt beam="2">0</pdfrwt>
<totfact> 0.83101151E+02</totfact>
</mgrwt>
</event>
<event>
 6    1  0.1364923E-004  0.7406047E+03  0.7818608E-02  0.9650206E-01
         21   -1    0    0  501  502  0.00000000000E+00  0.00000000000E+00  0.33106591263E+03  0.33106591263E+03  0.00000000000E+00 0. -1.
         13   -1    0    0    0    0 -0.00000000000E+00 -0.00000000000E+00 -0.10000000000E+04  0.10000000000E+04  0.00000000000E+00 0.  1.
    9000005    2    1    2  501    0  0.33384110623E+03 -0.13210671213E+03 -0.62552680499E+03  0.96942208265E+03  0.64776023571E+03 0.  0.
         13    1    3    3    0    0  0.29373609656E+03  0.22116205580E+03 -0.21339562299E+03  0.42512497134E+03  0.00000000000E+00 0.  1.
          1    1    3    3  501    0  0.40105009664E+02 -0.35326876793E+03 -0.41213118200E+03  0.54429711131E+03  0.00000000000E+00 0.  1.
         -1    1    1    2    0  502 -0.33384110623E+03  0.13210671213E+03 -0.43407282384E+02  0.36164382998E+03  0.00000000000E+00 0. -1.
<mgrwt>
<rscale>  1 0.74060475E+03</rscale>
<asrwt>0</asrwt>
<pdfrwt beam="1">  1       21 0.50933216E-01 0.74060475E+03</pdfrwt>
<pdfrwt beam="2">0</pdfrwt>
<totfact> 0.33621399E+02</totfact>
</mgrwt>
</event>
<event>
 6    1  0.1364923E-004  0.6522399E+03  0.7818608E-02  0.9802585E-01
         21   -1    0    0  501  502  0.00000000000E+00  0.00000000000E+00  0.16296235676E+03  0.16296235676E+03  0.00000000000E+00 0. -1.
         13   -1    0    0    0    0 -0.00000000000E+00 -0.00000000000E+00 -0.10000000000E+04  0.10000000000E+04  0.00000000000E+00 0.  1.
    9000005    2    1    2  501    0 -0.23311381272E+02  0.25669071744E+01 -0.89094537631E+03  0.11041741505E+04  0.65181813536E+03 0.  0.
         13    1    3    3    0    0  0.50760787788E+02 -0.36918445285E+02  0.95436729767E+02  0.11422696077E+03  0.00000000000E+00 0.  1.
          3    1    3    3  501    0 -0.74072169060E+02  0.39485352459E+02 -0.98638210607E+03  0.98994718974E+03  0.00000000000E+00 0.  1.
         -1    1    1    2    0  502  0.23311381272E+02 -0.25669071744E+01  0.53907733070E+02  0.58788206249E+02  0.00000000000E+00 0. -1.
<mgrwt>
<rscale>  1 0.65223990E+03</rscale>
<asrwt>0</asrwt>
<pdfrwt beam="1">  1       21 0.25071131E-01 0.65223990E+03</pdfrwt>
<pdfrwt beam="2">0</pdfrwt>
<totfact> 0.14479150E+03</totfact>
</mgrwt>
</event>
<event>
 6    1  0.1364923E-004  0.6535921E+03  0.7818608E-02  0.9800062E-01
         21   -1    0    0  501  502  0.00000000000E+00  0.00000000000E+00  0.12328569783E+03  0.12328569783E+03  0.00000000000E+00 0.  1.
         13   -1    0    0    0    0 -0.00000000000E+00 -0.00000000000E+00 -0.10000000000E+04  0.10000000000E+04  0.00000000000E+00 0.  1.
    9000005    2    1    2  501    0 -0.33667545498E+02 -0.17533967694E+02 -0.86376684294E+03  0.10831785869E+04  0.65248888773E+03 0.  0.
         13    1    3    3    0    0  0.27753929162E+03 -0.11257374514E+03 -0.25693335739E+03  0.39460823183E+03  0.00000000000E+00 0.  1.
          3    1    3    3  501    0 -0.31120683712E+03  0.95039777443E+02 -0.60683348555E+03  0.68857035512E+03  0.00000000000E+00 0.  1.
         -1    1    1    2    0  502  0.33667545498E+02  0.17533967694E+02 -0.12947459229E+02  0.40107110884E+02  0.00000000000E+00 0. -1.
<mgrwt>
<rscale>  1 0.65359215E+03</rscale>
<asrwt>0</asrwt>
<pdfrwt beam="1">  1       21 0.18967030E-01 0.65359215E+03</pdfrwt>
<pdfrwt beam="2">0</pdfrwt>
<totfact> 0.24835322E+03</totfact>
</mgrwt>
</event>
<event>
 6    1  0.1364923E-004  0.6226093E+03  0.7818608E-02  0.9859578E-01
         21   -1    0    0  501  502  0.00000000000E+00  0.00000000000E+00  0.17947479550E+03  0.17947479550E+03  0.00000000000E+00 0.  1.
         13   -1    0    0    0    0 -0.00000000000E+00 -0.00000000000E+00 -0.10000000000E+04  0.10000000000E+04  0.00000000000E+00 0.  1.
    9000005    2    1    2  501    0  0.50636460021E+02  0.58187020030E+02 -0.88284926811E+03  0.10803079195E+04  0.61781274706E+03 0.  0.
         13    1    3    3    0    0 -0.93072951563E+02  0.18474140087E+03 -0.33398456592E+02  0.20954096594E+03  0.00000000000E+00 0.  1.
          3    1    3    3  501    0  0.14370941158E+03 -0.12655438084E+03 -0.84945081151E+03  0.87076695359E+03  0.00000000000E+00 0.  1.
         -1    1    1    2    0  502 -0.50636460021E+02 -0.58187020030E+02  0.62324063604E+02  0.99166875960E+02  0.00000000000E+00 0. -1.
<mgrwt>
<rscale>  1 0.62260932E+03</rscale>
<asrwt>0</asrwt>
<pdfrwt beam="1">  1       21 0.27611506E-01 0.62260932E+03</pdfrwt>
<pdfrwt beam="2">0</pdfrwt>
<totfact> 0.11991484E+03</totfact>
</mgrwt>
</event>
<event>
 6    1  0.1364923E-004  0.6689399E+03  0.7818608E-02  0.9771875E-01
         21   -1    0    0  501  502  0.00000000000E+00  0.00000000000E+00  0.19848662642E+03  0.19848662642E+03  0.00000000000E+00 0.  1.
         13   -1    0    0    0    0 -0.00000000000E+00 -0.00000000000E+00 -0.10000000000E+04  0.10000000000E+04  0.00000000000E+00 0.  1.
    9000005    2    1    2  501    0 -0.53043933142E+02 -0.16370595598E+03 -0.77598842956E+03  0.10245187511E+04  0.64642658494E+03 0.  0.
         13    1    3    3    0    0  0.12930154729E+03 -0.46218614301E+02  0.67909234736E+02  0.15318849370E+03  0.00000000000E+00 0.  1.
          1    1    3    3  501    0 -0.18234548043E+03 -0.11748734168E+03 -0.84389766430E+03  0.87133025742E+03  0.00000000000E+00 0.  1.
         -3    1    1    2    0  502  0.53043933142E+02  0.16370595598E+03 -0.25524944022E+02  0.17396787530E+03  0.00000000000E+00 0. -1.
<mgrwt>
<rscale>  1 0.66893993E+03</rscale>
<asrwt>0</asrwt>
<pdfrwt beam="1">  1       21 0.30536403E-01 0.66893993E+03</pdfrwt>
<pdfrwt beam="2">0</pdfrwt>
<totfact> 0.97821624E+02</totfact>
</mgrwt>
</event>
<event>
 6    1  0.1364923E-004  0.6631457E+03  0.7818608E-02  0.9782420E-01
         21   -1    0    0  501  502  0.00000000000E+00  0.00000000000E+00  0.14871531613E+03  0.14871531613E+03  0.00000000000E+00 0.  1.
         13   -1    0    0    0    0 -0.00000000000E+00 -0.00000000000E+00 -0.10000000000E+04  0.10000000000E+04  0.00000000000E+00 0.  1.
    9000005    2    1    2  501    0  0.10564107774E+03 -0.22026679225E+02 -0.74136083603E+03  0.99467485317E+03  0.65430647440E+03 0.  0.
         13    1    3    3    0    0  0.30824842382E+03  0.12045736068E+03 -0.17026648969E+03  0.37217972008E+03  0.00000000000E+00 0.  1.
          3    1    3    3  501    0 -0.20260734608E+03 -0.14248403990E+03 -0.57109434633E+03  0.62249513309E+03  0.00000000000E+00 0.  1.
         -3    1    1    2    0  502 -0.10564107774E+03  0.22026679225E+02 -0.10992384784E+03  0.15404046296E+03  0.00000000000E+00 0. -1.
<mgrwt>
<rscale>  1 0.66314567E+03</rscale>
<asrwt>0</asrwt>
<pdfrwt beam="1">  1       21 0.22879279E-01 0.66314567E+03</pdfrwt>
<pdfrwt beam="2">0</pdfrwt>
<totfact> 0.17300978E+03</totfact>
</mgrwt>
</event>
<event>
 6    1  0.1364923E-004  0.6235161E+03  0.7818608E-02  0.9857784E-01
         21   -1    0    0  501  502  0.00000000000E+00  0.00000000000E+00  0.16088455892E+03  0.16088455892E+03  0.00000000000E+00 0.  1.
         13   -1    0    0    0    0 -0.00000000000E+00 -0.00000000000E+00 -0.10000000000E+04  0.10000000000E+04  0.00000000000E+00 0.  1.
    9000005    2    1    2  501    0  0.73323245353E+02 -0.11166564772E+03 -0.81333142475E+03  0.10248318828E+04  0.60903765587E+03 0.  0.
         13    1    3    3    0    0  0.19174573288E+03 -0.31683688343E+03 -0.37779146963E+03  0.52903537812E+03  0.00000000000E+00 0.  1.
          3    1    3    3  501    0 -0.11842248753E+03  0.20517123571E+03 -0.43553995512E+03  0.49579650465E+03  0.00000000000E+00 0.  1.
         -1    1    1    2    0  502 -0.73323245353E+02  0.11166564772E+03 -0.25784016334E+02  0.13605267615E+03  0.00000000000E+00 0. -1.
<mgrwt>
<rscale>  1 0.62351614E+03</rscale>
<asrwt>0</asrwt>
<pdfrwt beam="1">  1       21 0.24751470E-01 0.62351614E+03</pdfrwt>
<pdfrwt beam="2">0</pdfrwt>
<totfact> 0.14870252E+03</totfact>
</mgrwt>
</event>
<event>
 6    1  0.1364923E-004  0.6487007E+03  0.7818608E-02  0.9809220E-01
         21   -1    0    0  501  502  0.00000000000E+00  0.00000000000E+00  0.28133074594E+03  0.28133074594E+03  0.00000000000E+00 0. -1.
         13   -1    0    0    0    0 -0.00000000000E+00 -0.00000000000E+00 -0.10000000000E+04  0.10000000000E+04  0.00000000000E+00 0.  1.
    9000005    2    1    2  501    0 -0.33949230281E+02  0.15453976076E+02 -0.89261111818E+03  0.11034342937E+04  0.64762740574E+03 0.  0.
         13    1    3    3    0    0 -0.57933088556E+02 -0.29487756059E+03 -0.25586598338E+03  0.39468521627E+03  0.00000000000E+00 0.  1.
          3    1    3    3  501    0  0.23983858275E+02  0.31033153667E+03 -0.63674513480E+03  0.70874907746E+03  0.00000000000E+00 0.  1.
         -3    1    1    2    0  502  0.33949230281E+02 -0.15453976076E+02  0.17394186412E+03  0.17789645221E+03  0.00000000000E+00 0. -1.
<mgrwt>
<rscale>  1 0.64870073E+03</rscale>
<asrwt>0</asrwt>
<pdfrwt beam="1">  1       21 0.43281652E-01 0.64870073E+03</pdfrwt>
<pdfrwt beam="2">0</pdfrwt>
<totfact> 0.47908075E+02</totfact>
</mgrwt>
</event>
<event>
 6    1  0.1364923E-004  0.6675079E+03  0.7818608E-02  0.9774470E-01
         21   -1    0    0  501  502  0.00000000000E+00  0.00000000000E+00  0.19516120647E+03  0.19516120647E+03  0.00000000000E+00 0.  1.
         13   -1    0    0    0    0 -0.00000000000E+00 -0.00000000000E+00 -0.10000000000E+04  0.10000000000E+04  0.00000000000E+00 0.  1.
    9000005    2    1    2  501    0 -0.80343573920E+01  0.39801430906E+02 -0.88310068281E+03  0.11069930256E+04  0.66627174484E+03 0.  0.
         13    1    3    3    0    0 -0.23754993322E+03 -0.18467080591E+03 -0.22819436285E+03  0.37763202270E+03  0.00000000000E+00 0.  1.
          3    1    3    3  501    0  0.22951557583E+03  0.22447223682E+03 -0.65490631996E+03  0.72936100292E+03  0.00000000000E+00 0.  1.
         -3    1    1    2    0  502  0.80343573920E+01 -0.39801430906E+02  0.78261889281E+02  0.88168180851E+02  0.00000000000E+00 0. -1.
<mgrwt>
<rscale>  1 0.66750786E+03</rscale>
<asrwt>0</asrwt>
<pdfrwt beam="1">  1       21 0.30024800E-01 0.66750786E+03</pdfrwt>
<pdfrwt beam="2">0</pdfrwt>
<totfact> 0.10120144E+03</totfact>
</mgrwt>
</event>
<event>
 6    1  0.1364923E-004  0.6448920E+03  0.7818608E-02  0.9816412E-01
         21   -1    0    0  501  502  0.00000000000E+00  0.00000000000E+00  0.16611927972E+03  0.16611927972E+03  0.00000000000E+00 0.  1.
         13   -1    0    0    0    0 -0.00000000000E+00 -0.00000000000E+00 -0.10000000000E+04  0.10000000000E+04  0.00000000000E+00 0.  1.
    9000005    2    1    2  501    0 -0.20695969461E+02 -0.12639672817E+02 -0.89340593244E+03  0.11018438150E+04  0.64443583705E+03 0.  0.
         13    1    3    3    0    0 -0.26541213936E+03 -0.20094891724E+03 -0.51816685524E+03  0.61589038061E+03  0.00000000000E+00 0.  1.
          3    1    3    3  501    0  0.24471616990E+03  0.18830924443E+03 -0.37523907720E+03  0.48595343440E+03  0.00000000000E+00 0.  1.
         -1    1    1    2    0  502  0.20695969461E+02  0.12639672817E+02  0.59525212159E+02  0.64275464707E+02  0.00000000000E+00 0. -1.
<mgrwt>
<rscale>  1 0.64489195E+03</rscale>
<asrwt>0</asrwt>
<pdfrwt beam="1">  1       21 0.25556812E-01 0.64489195E+03</pdfrwt>
<pdfrwt beam="2">0</pdfrwt>
<totfact> 0.13949462E+03</totfact>
</mgrwt>
</event>
<event>
 6    1  0.1364923E-004  0.6428936E+03  0.7818608E-02  0.9820206E-01
         21   -1    0    0  501  502  0.00000000000E+00  0.00000000000E+00  0.12015344312E+03  0.12015344312E+03  0.00000000000E+00 0.  1.
         13   -1    0    0    0    0 -0.00000000000E+00 -0.00000000000E+00 -0.10000000000E+04  0.10000000000E+04  0.00000000000E+00 0.  1.
    9000005    2    1    2  501    0 -0.21387711172E+02  0.27672513839E+02 -0.87354408226E+03  0.10846158096E+04  0.64194157718E+03 0.  0.
         13    1    3    3    0    0 -0.19568384270E+03 -0.56748979705E+02 -0.86723567784E+03  0.89084809811E+03  0.00000000000E+00 0.  1.
          1    1    3    3  501    0  0.17429613153E+03  0.84421493544E+02 -0.63084044211E+01  0.19376771146E+03  0.00000000000E+00 0.  1.
         -3    1    1    2    0  502  0.21387711172E+02 -0.27672513839E+02 -0.63024746219E+01  0.35537633541E+02  0.00000000000E+00 0. -1.
<mgrwt>
<rscale>  1 0.64289361E+03</rscale>
<asrwt>0</asrwt>
<pdfrwt beam="1">  1       21 0.18485145E-01 0.64289361E+03</pdfrwt>
<pdfrwt beam="2">0</pdfrwt>
<totfact> 0.26093089E+03</totfact>
</mgrwt>
</event>
<event>
 6    1  0.1364923E-004  0.6296995E+03  0.7818608E-02  0.9845635E-01
         21   -1    0    0  501  502  0.00000000000E+00  0.00000000000E+00  0.13860659615E+03  0.13860659615E+03  0.00000000000E+00 0. -1.
         13   -1    0    0    0    0 -0.00000000000E+00 -0.00000000000E+00 -0.10000000000E+04  0.10000000000E+04  0.00000000000E+00 0.  1.
    9000005    2    1    2  501    0  0.64224376086E+02  0.58906975297E+01 -0.86953798540E+03  0.10736004041E+04  0.62638809755E+03 0.  0.
         13    1    3    3    0    0 -0.55667205207E+02  0.25082035420E+03 -0.71588553670E+03  0.76059305116E+03  0.00000000000E+00 0.  1.
          3    1    3    3  501    0  0.11989158129E+03 -0.24492965667E+03 -0.15365244870E+03  0.31300735291E+03  0.00000000000E+00 0.  1.
         -1    1    1    2    0  502 -0.64224376086E+02 -0.58906975297E+01  0.81445815534E+01  0.65006192087E+02  0.00000000000E+00 0. -1.
<mgrwt>
<rscale>  1 0.62969955E+03</rscale>
<asrwt>0</asrwt>
<pdfrwt beam="1">  1       21 0.21324091E-01 0.62969955E+03</pdfrwt>
<pdfrwt beam="2">0</pdfrwt>
<totfact> 0.19856641E+03</totfact>
</mgrwt>
</event>
<event>
 6    1  0.1364923E-004  0.6677850E+03  0.7818608E-02  0.9773967E-01
         21   -1    0    0  501  502  0.00000000000E+00  0.00000000000E+00  0.23643135290E+03  0.23643135290E+03  0.00000000000E+00 0. -1.
         13   -1    0    0    0    0 -0.00000000000E+00 -0.00000000000E+00 -0.10000000000E+04  0.10000000000E+04  0.00000000000E+00 0.  1.
    9000005    2    1    2  501    0 -0.10436478824E+03  0.15439671195E+03 -0.80458835480E+03  0.10456095247E+04  0.64125385289E+03 0.  0.
         13    1    3    3    0    0  0.33755984941E+02  0.34624173769E+03 -0.21146156081E+03  0.40711030341E+03  0.00000000000E+00 0.  1.
          1    1    3    3  501    0 -0.13812077318E+03 -0.19184502574E+03 -0.59312679398E+03  0.63849922132E+03  0.00000000000E+00 0.  1.
         -3    1    1    2    0  502  0.10436478824E+03 -0.15439671195E+03  0.41019707693E+02  0.19082182817E+03  0.00000000000E+00 0. -1.
<mgrwt>
<rscale>  1 0.66778504E+03</rscale>
<asrwt>0</asrwt>
<pdfrwt beam="1">  1       21 0.36374053E-01 0.66778504E+03</pdfrwt>
<pdfrwt beam="2">0</pdfrwt>
<totfact> 0.68608695E+02</totfact>
</mgrwt>
</event>
<event>
 6    1  0.1364923E-004  0.6468341E+03  0.7818608E-02  0.9812738E-01
         21   -1    0    0  501  502  0.00000000000E+00  0.00000000000E+00  0.26886347412E+03  0.26886347412E+03  0.00000000000E+00 0. -1.
         13   -1    0    0    0    0 -0.00000000000E+00 -0.00000000000E+00 -0.10000000000E+04  0.10000000000E+04  0.00000000000E+00 0.  1.
    9000005    2    1    2  501    0  0.25142625625E+02  0.77889290133E+02 -0.88405377121E+03  0.10954201777E+04  0.64163494470E+03 0.  0.
         13    1    3    3    0    0  0.55414886268E+02  0.63481697008E+02 -0.98523357339E+03  0.98883058691E+03  0.00000000000E+00 0.  1.
          1    1    3    3  501    0 -0.30272260644E+02  0.14407593125E+02  0.10117980218E+03  0.10658959083E+03  0.00000000000E+00 0.  1.
         -3    1    1    2    0  502 -0.25142625625E+02 -0.77889290133E+02  0.15291724533E+03  0.17344329638E+03  0.00000000000E+00 0. -1.
<mgrwt>
<rscale>  1 0.64683406E+03</rscale>
<asrwt>0</asrwt>
<pdfrwt beam="1">  1       21 0.41363610E-01 0.64683406E+03</pdfrwt>
<pdfrwt beam="2">0</pdfrwt>
<totfact> 0.52683288E+02</totfact>
</mgrwt>
</event>
<event>
 6    1  0.1364923E-004  0.6119325E+03  0.7818608E-02  0.9880955E-01
         21   -1    0    0  501  502  0.00000000000E+00  0.00000000000E+00  0.12546764783E+03  0.12546764783E+03  0.00000000000E+00 0.  1.
         13   -1    0    0    0    0 -0.00000000000E+00 -0.00000000000E+00 -0.10000000000E+04  0.10000000000E+04  0.00000000000E+00 0.  1.
    9000005    2    1    2  501    0  0.72621666480E+02 -0.58606128847E+02 -0.79219592181E+03  0.10010173664E+04  0.60477500325E+03 0.  0.
         13    1    3    3    0    0 -0.14273775005E+03  0.21502104179E+03 -0.27126812561E+03  0.37442557295E+03  0.00000000000E+00 0.  1.
          3    1    3    3  501    0  0.21535941653E+03 -0.27362717064E+03 -0.52092779620E+03  0.62659179348E+03  0.00000000000E+00 0.  1.
         -3    1    1    2    0  502 -0.72621666480E+02  0.58606128847E+02 -0.82336430351E+02  0.12445028141E+03  0.00000000000E+00 0. -1.
<mgrwt>
<rscale>  1 0.61193250E+03</rscale>
<asrwt>0</asrwt>
<pdfrwt beam="1">  1       21 0.19302714E-01 0.61193250E+03</pdfrwt>
<pdfrwt beam="2">0</pdfrwt>
<totfact> 0.24055210E+03</totfact>
</mgrwt>
</event>
<event>
 6    1  0.1364923E-004  0.6297106E+03  0.7818608E-02  0.9845614E-01
         21   -1    0    0  501  502  0.00000000000E+00  0.00000000000E+00  0.31093730161E+03  0.31093730161E+03  0.00000000000E+00 0. -1.
         13   -1    0    0    0    0 -0.00000000000E+00 -0.00000000000E+00 -0.10000000000E+04  0.10000000000E+04  0.00000000000E+00 0.  1.
    9000005    2    1    2  501    0  0.18756605093E+02  0.11132281563E+02 -0.90024875824E+03  0.10986278817E+04  0.62933270828E+03 0.  0.
         13    1    3    3    0    0  0.25516028884E+03  0.10360021677E+03 -0.16556770708E+03  0.32132918252E+03  0.00000000000E+00 0.  1.
          1    1    3    3  501    0 -0.23640368375E+03 -0.92467935204E+02 -0.73468105116E+03  0.77729869913E+03  0.00000000000E+00 0.  1.
         -1    1    1    2    0  502 -0.18756605093E+02 -0.11132281563E+02  0.21118605985E+03  0.21230941995E+03  0.00000000000E+00 0. -1.
<mgrwt>
<rscale>  1 0.62971056E+03</rscale>
<asrwt>0</asrwt>
<pdfrwt beam="1">  1       21 0.47836507E-01 0.62971056E+03</pdfrwt>
<pdfrwt beam="2">0</pdfrwt>
<totfact> 0.38841997E+02</totfact>
</mgrwt>
</event>
<event>
 6    1  0.1364923E-004  0.6465085E+03  0.7818608E-02  0.9813353E-01
         21   -1    0    0  501  502  0.00000000000E+00  0.00000000000E+00  0.25222732942E+03  0.25222732942E+03  0.00000000000E+00 0. -1.
         13   -1    0    0    0    0 -0.00000000000E+00 -0.00000000000E+00 -0.10000000000E+04  0.10000000000E+04  0.00000000000E+00 0.  1.
    9000005    2    1    2  501    0  0.12440334611E+03 -0.16761834063E+01 -0.86592621306E+03  0.10806485961E+04  0.63442429000E+03 0.  0.
         13    1    3    3    0    0  0.34658864027E+03  0.32139710301E+02 -0.75206249173E+03  0.82870660550E+03  0.00000000000E+00 0.  1.
          1    1    3    3  501    0 -0.22218529416E+03 -0.33815893707E+02 -0.11386372134E+03  0.25194199063E+03  0.00000000000E+00 0.  1.
         -1    1    1    2    0  502 -0.12440334611E+03  0.16761834063E+01  0.11815354249E+03  0.17157873329E+03  0.00000000000E+00 0. -1.
<mgrwt>
<rscale>  1 0.64650845E+03</rscale>
<asrwt>0</asrwt>
<pdfrwt beam="1">  1       21 0.38804203E-01 0.64650845E+03</pdfrwt>
<pdfrwt beam="2">0</pdfrwt>
<totfact> 0.60156606E+02</totfact>
</mgrwt>
</event>
<event>
 6    1  0.1364923E-004  0.5514993E+03  0.7818608E-02  0.1001148E+00
         21   -1    0    0  501  502  0.00000000000E+00  0.00000000000E+00  0.33388544499E+03  0.33388544499E+03  0.00000000000E+00 0. -1.
         13   -1    0    0    0    0 -0.00000000000E+00 -0.00000000000E+00 -0.10000000000E+04  0.10000000000E+04  0.00000000000E+00 0.  1.
    9000005    2    1    2  501    0  0.34049719502E+02 -0.10118155007E+02 -0.92264517219E+03  0.10749072258E+04  0.55035413133E+03 0.  0.
         13    1    3    3    0    0 -0.16838803778E+03 -0.11744630885E+03 -0.77639753763E+03  0.80308237633E+03  0.00000000000E+00 0.  1.
          1    1    3    3  501    0  0.20243775729E+03  0.10732815384E+03 -0.14624763456E+03  0.27182484948E+03  0.00000000000E+00 0.  1.
         -1    1    1    2    0  502 -0.34049719502E+02  0.10118155007E+02  0.25653061718E+03  0.25897821918E+03  0.00000000000E+00 0. -1.
<mgrwt>
<rscale>  1 0.55149926E+03</rscale>
<asrwt>0</asrwt>
<pdfrwt beam="1">  1       21 0.51366990E-01 0.55149926E+03</pdfrwt>
<pdfrwt beam="2">0</pdfrwt>
<totfact> 0.33635427E+02</totfact>
</mgrwt>
</event>
<event>
 6    1  0.1364923E-004  0.6427001E+03  0.7818608E-02  0.9820574E-01
         21   -1    0    0  501  502  0.00000000000E+00  0.00000000000E+00  0.18211978019E+03  0.18211978019E+03  0.00000000000E+00 0.  1.
         13   -1    0    0    0    0 -0.00000000000E+00 -0.00000000000E+00 -0.10000000000E+04  0.10000000000E+04  0.00000000000E+00 0.  1.
    9000005    2    1    2  501    0 -0.34234592714E+02 -0.25418722764E+02 -0.89032215706E+03  0.10980605566E+04  0.64128412091E+03 0.  0.
         13    1    3    3    0    0  0.70328357726E+02  0.23996066775E+03 -0.12145603002E+03  0.27799058832E+03  0.00000000000E+00 0.  1.
          3    1    3    3  501    0 -0.10456295044E+03 -0.26537939051E+03 -0.76886612703E+03  0.82006996824E+03  0.00000000000E+00 0.  1.
         -1    1    1    2    0  502  0.34234592714E+02  0.25418722764E+02  0.72441937249E+02  0.84059223632E+02  0.00000000000E+00 0. -1.
<mgrwt>
<rscale>  1 0.64270012E+03</rscale>
<asrwt>0</asrwt>
<pdfrwt beam="1">  1       21 0.28018427E-01 0.64270012E+03</pdfrwt>
<pdfrwt beam="2">0</pdfrwt>
<totfact> 0.11634458E+03</totfact>
</mgrwt>
</event>
<event>
 6    1  0.1364923E-004  0.6465114E+03  0.7818608E-02  0.9813347E-01
         21   -1    0    0  501  502  0.00000000000E+00  0.00000000000E+00  0.49038874179E+03  0.49038874179E+03  0.00000000000E+00 0. -1.
         13   -1    0    0    0    0 -0.00000000000E+00 -0.00000000000E+00 -0.10000000000E+04  0.10000000000E+04  0.00000000000E+00 0.  1.
    9000005    2    1    2  501    0 -0.92669563166E+01  0.29966190191E+02 -0.89480161838E+03  0.11039233972E+04  0.64575001471E+03 0.  0.
         13    1    3    3    0    0 -0.32520299458E+03  0.22842465536E+02 -0.38932814064E+03  0.50779441412E+03  0.00000000000E+00 0.  1.
          3    1    3    3  501    0  0.31593603826E+03  0.71237246551E+01 -0.50547347774E+03  0.59612898304E+03  0.00000000000E+00 0.  1.
         -3    1    1    2    0  502  0.92669563166E+01 -0.29966190191E+02  0.38519036017E+03  0.38646534464E+03  0.00000000000E+00 0. -1.
<mgrwt>
<rscale>  1 0.64651135E+03</rscale>
<asrwt>0</asrwt>
<pdfrwt beam="1">  1       21 0.75444420E-01 0.64651135E+03</pdfrwt>
<pdfrwt beam="2">0</pdfrwt>
<totfact> 0.14159656E+02</totfact>
</mgrwt>
</event>
<event>
 6    1  0.1364923E-004  0.6514113E+03  0.7818608E-02  0.9804135E-01
         21   -1    0    0  501  502  0.00000000000E+00  0.00000000000E+00  0.14421880827E+03  0.14421880827E+03  0.00000000000E+00 0.  1.
         13   -1    0    0    0    0 -0.00000000000E+00 -0.00000000000E+00 -0.10000000000E+04  0.10000000000E+04  0.00000000000E+00 0.  1.
    9000005    2    1    2  501    0 -0.38481563997E+02 -0.15088535017E+02 -0.88109556492E+03  0.10957491049E+04  0.65009861689E+03 0.  0.
         13    1    3    3    0    0  0.26700952396E+03  0.29706367122E+02 -0.66964343375E+03  0.72152538590E+03  0.00000000000E+00 0.  1.
          1    1    3    3  501    0 -0.30549108796E+03 -0.44794902139E+02 -0.21145213117E+03  0.37422371899E+03  0.00000000000E+00 0.  1.
         -1    1    1    2    0  502  0.38481563997E+02  0.15088535017E+02  0.25314373191E+02  0.48469703389E+02  0.00000000000E+00 0. -1.
<mgrwt>
<rscale>  1 0.65141132E+03</rscale>
<asrwt>0</asrwt>
<pdfrwt beam="1">  1       21 0.22187508E-01 0.65141132E+03</pdfrwt>
<pdfrwt beam="2">0</pdfrwt>
<totfact> 0.18372668E+03</totfact>
</mgrwt>
</event>
<event>
 6    1  0.1364923E-004  0.6494446E+03  0.7818608E-02  0.9807822E-01
         21   -1    0    0  501  502  0.00000000000E+00  0.00000000000E+00  0.13100297852E+03  0.13100297852E+03  0.00000000000E+00 0.  1.
         13   -1    0    0    0    0 -0.00000000000E+00 -0.00000000000E+00 -0.10000000000E+04  0.10000000000E+04  0.00000000000E+00 0.  1.
    9000005    2    1    2  501    0  0.30935356200E+02 -0.15782774833E+02 -0.88078235793E+03  0.10943289223E+04  0.64851533203E+03 0.  0.
         13    1    3    3    0    0  0.37137351277E+02 -0.28598916973E+03 -0.17205734741E+03  0.33581649581E+03  0.00000000000E+00 0.  1.
          3    1    3    3  501    0 -0.62019950763E+01  0.27020639490E+03 -0.70872501052E+03  0.75851242648E+03  0.00000000000E+00 0.  1.
         -1    1    1    2    0  502 -0.30935356200E+02  0.15782774833E+02  0.11785336455E+02  0.36674056226E+02  0.00000000000E+00 0. -1.
<mgrwt>
<rscale>  1 0.64944455E+03</rscale>
<asrwt>0</asrwt>
<pdfrwt beam="1">  1       21 0.20154304E-01 0.64944455E+03</pdfrwt>
<pdfrwt beam="2">0</pdfrwt>
<totfact> 0.22114566E+03</totfact>
</mgrwt>
</event>
<event>
 6    1  0.1364923E-004  0.6371823E+03  0.7818608E-02  0.9831132E-01
         21   -1    0    0  501  502  0.00000000000E+00  0.00000000000E+00  0.33762837382E+03  0.33762837382E+03  0.00000000000E+00 0. -1.
         13   -1    0    0    0    0 -0.00000000000E+00 -0.00000000000E+00 -0.10000000000E+04  0.10000000000E+04  0.00000000000E+00 0.  1.
    9000005    2    1    2  501    0 -0.85270139075E+02  0.31916490324E+02 -0.88878714739E+03  0.10935922142E+04  0.63064386031E+03 0.  0.
         13    1    3    3    0    0  0.73167535339E+02 -0.18314782877E+03 -0.78104113086E+03  0.80555686547E+03  0.00000000000E+00 0.  1.
          1    1    3    3  501    0 -0.15843767441E+03  0.21506431909E+03 -0.10774601653E+03  0.28803534870E+03  0.00000000000E+00 0.  1.
         -3    1    1    2    0  502  0.85270139075E+02 -0.31916490324E+02  0.22641552121E+03  0.24403615965E+03  0.00000000000E+00 0. -1.
<mgrwt>
<rscale>  1 0.63718234E+03</rscale>
<asrwt>0</asrwt>
<pdfrwt beam="1">  1       21 0.51942825E-01 0.63718234E+03</pdfrwt>
<pdfrwt beam="2">0</pdfrwt>
<totfact> 0.32537132E+02</totfact>
</mgrwt>
</event>
<event>
 6    1  0.1364923E-004  0.6553332E+03  0.7818608E-02  0.9796823E-01
         21   -1    0    0  501  502  0.00000000000E+00  0.00000000000E+00  0.14595762345E+03  0.14595762345E+03  0.00000000000E+00 0.  1.
         13   -1    0    0    0    0 -0.00000000000E+00 -0.00000000000E+00 -0.10000000000E+04  0.10000000000E+04  0.00000000000E+00 0.  1.
    9000005    2    1    2  501    0  0.28114934705E+02  0.17338894432E+02 -0.88464055704E+03  0.11009316813E+04  0.65450024065E+03 0.  0.
         13    1    3    3    0    0  0.22168336639E+03 -0.10873108167E+03 -0.73620352027E+02  0.25765465120E+03  0.00000000000E+00 0.  1.
          3    1    3    3  501    0 -0.19356843168E+03  0.12606997610E+03 -0.81102020501E+03  0.84327703014E+03  0.00000000000E+00 0.  1.
         -1    1    1    2    0  502 -0.28114934705E+02 -0.17338894432E+02  0.30598180491E+02  0.45025942111E+02  0.00000000000E+00 0. -1.
<mgrwt>
<rscale>  1 0.65533324E+03</rscale>
<asrwt>0</asrwt>
<pdfrwt beam="1">  1       21 0.22455018E-01 0.65533324E+03</pdfrwt>
<pdfrwt beam="2">0</pdfrwt>
<totfact> 0.17947641E+03</totfact>
</mgrwt>
</event>
<event>
 6    1  0.1364923E-004  0.7216800E+03  0.7818608E-02  0.9680858E-01
         21   -1    0    0  501  502  0.00000000000E+00  0.00000000000E+00  0.34898259263E+03  0.34898259263E+03  0.00000000000E+00 0. -1.
         13   -1    0    0    0    0 -0.00000000000E+00 -0.00000000000E+00 -0.10000000000E+04  0.10000000000E+04  0.00000000000E+00 0.  1.
    9000005    2    1    2  501    0  0.40904394959E+03  0.47279043254E+01 -0.59651390623E+03  0.93629634690E+03  0.59454411369E+03 0.  0.
         13    1    3    3    0    0  0.14888843548E+03 -0.21999646866E+03 -0.52027509463E+03  0.58416811496E+03  0.00000000000E+00 0.  1.
          3    1    3    3  501    0  0.26015551412E+03  0.22472437299E+03 -0.76238811602E+02  0.35212823195E+03  0.00000000000E+00 0.  1.
         -1    1    1    2    0  502 -0.40904394959E+03 -0.47279043254E+01 -0.54503501138E+02  0.41268624573E+03  0.00000000000E+00 0. -1.
<mgrwt>
<rscale>  1 0.72167999E+03</rscale>
<asrwt>0</asrwt>
<pdfrwt beam="1">  1       21 0.53689628E-01 0.72167999E+03</pdfrwt>
<pdfrwt beam="2">0</pdfrwt>
<totfact> 0.30046788E+02</totfact>
</mgrwt>
</event>
<event>
 6    1  0.1364923E-004  0.6998960E+03  0.7818608E-02  0.9717410E-01
         21   -1    0    0  501  502  0.00000000000E+00  0.00000000000E+00  0.26387391576E+03  0.26387391576E+03  0.00000000000E+00 0. -1.
         13   -1    0    0    0    0 -0.00000000000E+00 -0.00000000000E+00 -0.10000000000E+04  0.10000000000E+04  0.00000000000E+00 0.  1.
    9000005    2    1    2  501    0 -0.13854665736E+03 -0.22199915844E+03 -0.71625370797E+03  0.10014358965E+04  0.64913456079E+03 0.  0.
         13    1    3    3    0    0 -0.13871341670E+03 -0.40606459797E+03 -0.69411663469E+03  0.81604397691E+03  0.00000000000E+00 0.  1.
          1    1    3    3  501    0  0.16675933757E+00  0.18406543953E+03 -0.22137073279E+02  0.18539191959E+03  0.00000000000E+00 0.  1.
         -3    1    1    2    0  502  0.13854665736E+03  0.22199915844E+03 -0.19872376267E+02  0.26243801926E+03  0.00000000000E+00 0. -1.
<mgrwt>
<rscale>  1 0.69989605E+03</rscale>
<asrwt>0</asrwt>
<pdfrwt beam="1">  1       21 0.40595986E-01 0.69989605E+03</pdfrwt>
<pdfrwt beam="2">0</pdfrwt>
<totfact> 0.54550432E+02</totfact>
</mgrwt>
</event>
<event>
 6    1  0.1364923E-004  0.6566327E+03  0.7818608E-02  0.9794412E-01
         21   -1    0    0  501  502  0.00000000000E+00  0.00000000000E+00  0.14022892828E+03  0.14022892828E+03  0.00000000000E+00 0.  1.
         13   -1    0    0    0    0 -0.00000000000E+00 -0.00000000000E+00 -0.10000000000E+04  0.10000000000E+04  0.00000000000E+00 0.  1.
    9000005    2    1    2  501    0 -0.62239553152E+02 -0.42266965844E+02 -0.83229786450E+03  0.10601350116E+04  0.65230840034E+03 0.  0.
         13    1    3    3    0    0 -0.12187815288E+03 -0.23492590552E+03 -0.81594557066E+03  0.85779463714E+03  0.00000000000E+00 0.  1.
          1    1    3    3  501    0  0.59638599728E+02  0.19265893968E+03 -0.16352293844E+02  0.20234037444E+03  0.00000000000E+00 0.  1.
         -3    1    1    2    0  502  0.62239553152E+02  0.42266965844E+02 -0.27473207214E+02  0.80093916703E+02  0.00000000000E+00 0. -1.
<mgrwt>
<rscale>  1 0.65663270E+03</rscale>
<asrwt>0</asrwt>
<pdfrwt beam="1">  1       21 0.21573681E-01 0.65663270E+03</pdfrwt>
<pdfrwt beam="2">0</pdfrwt>
<totfact> 0.19392836E+03</totfact>
</mgrwt>
</event>
<event>
 6    1  0.1364923E-004  0.6502628E+03  0.7818608E-02  0.9806286E-01
         21   -1    0    0  501  502  0.00000000000E+00  0.00000000000E+00  0.14315158603E+03  0.14315158603E+03  0.00000000000E+00 0.  1.
         13   -1    0    0    0    0 -0.00000000000E+00 -0.00000000000E+00 -0.10000000000E+04  0.10000000000E+04  0.00000000000E+00 0.  1.
    9000005    2    1    2  501    0 -0.38372593846E+02  0.48363163625E+02 -0.86360762029E+03  0.10810457214E+04  0.64732548098E+03 0.  0.
         13    1    3    3    0    0  0.50874574675E+02 -0.57721666017E+02 -0.92587830879E+03  0.92906977981E+03  0.00000000000E+00 0.  1.
          3    1    3    3  501    0 -0.89247168521E+02  0.10608482964E+03  0.62270688494E+02  0.15197594157E+03  0.00000000000E+00 0.  1.
         -1    1    1    2    0  502  0.38372593846E+02 -0.48363163625E+02  0.67592063277E+01  0.62105864655E+02  0.00000000000E+00 0. -1.
<mgrwt>
<rscale>  1 0.65026282E+03</rscale>
<asrwt>0</asrwt>
<pdfrwt beam="1">  1       21 0.22023320E-01 0.65026282E+03</pdfrwt>
<pdfrwt beam="2">0</pdfrwt>
<totfact> 0.18639751E+03</totfact>
</mgrwt>
</event>
<event>
 6    1  0.1364923E-004  0.6590183E+03  0.7818608E-02  0.9790003E-01
         21   -1    0    0  501  502  0.00000000000E+00  0.00000000000E+00  0.23507959480E+03  0.23507959480E+03  0.00000000000E+00 0.  1.
         13   -1    0    0    0    0 -0.00000000000E+00 -0.00000000000E+00 -0.10000000000E+04  0.10000000000E+04  0.00000000000E+00 0.  1.
    9000005    2    1    2  501    0  0.16182686045E+02 -0.71979028559E+02 -0.87937311345E+03  0.10989095456E+04  0.65487575679E+03 0.  0.
         13    1    3    3    0    0 -0.15960887002E+03  0.84445702604E+01  0.35590716436E+02  0.16374675952E+03  0.00000000000E+00 0.  1.
          3    1    3    3  501    0  0.17579155607E+03 -0.80423598819E+02 -0.91496382988E+03  0.93516278606E+03  0.00000000000E+00 0.  1.
         -1    1    1    2    0  502 -0.16182686045E+02  0.71979028559E+02  0.11445270825E+03  0.13617004922E+03  0.00000000000E+00 0. -1.
<mgrwt>
<rscale>  1 0.65901830E+03</rscale>
<asrwt>0</asrwt>
<pdfrwt beam="1">  1       21 0.36166090E-01 0.65901830E+03</pdfrwt>
<pdfrwt beam="2">0</pdfrwt>
<totfact> 0.69464055E+02</totfact>
</mgrwt>
</event>
<event>
 6    1  0.1364923E-004  0.6524098E+03  0.7818608E-02  0.9802268E-01
         21   -1    0    0  501  502  0.00000000000E+00  0.00000000000E+00  0.31491452872E+03  0.31491452872E+03  0.00000000000E+00 0. -1.
         13   -1    0    0    0    0 -0.00000000000E+00 -0.00000000000E+00 -0.10000000000E+04  0.10000000000E+04  0.00000000000E+00 0.  1.
    9000005    2    1    2  501    0 -0.44880929912E+01 -0.26609632824E+02 -0.89262378555E+03  0.11056291555E+04  0.65185151032E+03 0.  0.
         13    1    3    3    0    0 -0.12034899455E+03  0.36585609396E+02  0.63176138538E+02  0.14076083186E+03  0.00000000000E+00 0.  1.
          1    1    3    3  501    0  0.11586090156E+03 -0.63195242221E+02 -0.95579992409E+03  0.96486832368E+03  0.00000000000E+00 0.  1.
         -3    1    1    2    0  502  0.44880929912E+01  0.26609632824E+02  0.20753831427E+03  0.20928537318E+03  0.00000000000E+00 0. -1.
<mgrwt>
<rscale>  1 0.65240985E+03</rscale>
<asrwt>0</asrwt>
<pdfrwt beam="1">  1       21 0.48448388E-01 0.65240985E+03</pdfrwt>
<pdfrwt beam="2">0</pdfrwt>
<totfact> 0.37723184E+02</totfact>
</mgrwt>
</event>
<event>
 6    1  0.1364923E-004  0.7728873E+03  0.7818608E-02  0.9600113E-01
         21   -1    0    0  501  502  0.00000000000E+00  0.00000000000E+00  0.66606849945E+03  0.66606849945E+03  0.00000000000E+00 0. -1.
         13   -1    0    0    0    0 -0.00000000000E+00 -0.00000000000E+00 -0.10000000000E+04  0.10000000000E+04  0.00000000000E+00 0.  1.
    9000005    2    1    2  501    0 -0.38164872889E+03 -0.70092151681E+02 -0.76404113535E+03  0.10867905351E+04  0.66842063759E+03 0.  0.
         13    1    3    3    0    0 -0.29727383498E+03 -0.21335022905E+03 -0.83065977929E+03  0.90768150919E+03  0.00000000000E+00 0.  1.
          1    1    3    3  501    0 -0.84374893915E+02  0.14325807737E+03  0.66618643936E+02  0.17910902594E+03  0.00000000000E+00 0.  1.
         -1    1    1    2    0  502  0.38164872889E+03  0.70092151681E+02  0.43010963481E+03  0.57927796432E+03  0.00000000000E+00 0. -1.
<mgrwt>
<rscale>  1 0.77288732E+03</rscale>
<asrwt>0</asrwt>
<pdfrwt beam="1">  1       21 0.10247207E+00 0.77288732E+03</pdfrwt>
<pdfrwt beam="2">0</pdfrwt>
<totfact> 0.67131558E+01</totfact>
</mgrwt>
</event>
<event>
 6    1  0.1364923E-004  0.7259960E+03  0.7818608E-02  0.9673780E-01
         21   -1    0    0  501  502  0.00000000000E+00  0.00000000000E+00  0.92792403855E+03  0.92792403855E+03  0.00000000000E+00 0. -1.
         13   -1    0    0    0    0 -0.00000000000E+00 -0.00000000000E+00 -0.10000000000E+04  0.10000000000E+04  0.00000000000E+00 0.  1.
    9000005    2    1    2  501    0 -0.23355968533E+03  0.18571642361E+03 -0.83632962988E+03  0.11074824585E+04  0.66183791777E+03 0.  0.
         13    1    3    3    0    0 -0.50772419542E+01 -0.10512187889E+03 -0.70833095776E+03  0.71610692884E+03  0.00000000000E+00 0.  1.
          1    1    3    3  501    0 -0.22848244338E+03  0.29083830250E+03 -0.12799867212E+03  0.39137552964E+03  0.00000000000E+00 0.  1.
         -3    1    1    2    0  502  0.23355968533E+03 -0.18571642361E+03  0.76425366842E+03  0.82044158007E+03  0.00000000000E+00 0. -1.
<mgrwt>
<rscale>  1 0.72599597E+03</rscale>
<asrwt>0</asrwt>
<pdfrwt beam="1">  1       21 0.14275754E+00 0.72599597E+03</pdfrwt>
<pdfrwt beam="2">0</pdfrwt>
<totfact> 0.28676459E+01</totfact>
</mgrwt>
</event>
<event>
 6    1  0.1364923E-004  0.6669604E+03  0.7818608E-02  0.9775465E-01
         21   -1    0    0  501  502  0.00000000000E+00  0.00000000000E+00  0.17332825637E+03  0.17332825637E+03  0.00000000000E+00 0.  1.
         13   -1    0    0    0    0 -0.00000000000E+00 -0.00000000000E+00 -0.10000000000E+04  0.10000000000E+04  0.00000000000E+00 0.  1.
    9000005    2    1    2  501    0  0.12162760461E+02 -0.31144080031E+02 -0.88374825133E+03  0.11071798309E+04  0.66612185052E+03 0.  0.
         13    1    3    3    0    0  0.15929999569E+03 -0.30687009303E+03 -0.37470001076E+03  0.50984884102E+03  0.00000000000E+00 0.  1.
          3    1    3    3  501    0 -0.14713723523E+03  0.27572601300E+03 -0.50904824057E+03  0.59733098987E+03  0.00000000000E+00 0.  1.
         -3    1    1    2    0  502 -0.12162760461E+02  0.31144080031E+02  0.57076507698E+02  0.66148425484E+02  0.00000000000E+00 0. -1.
<mgrwt>
<rscale>  1 0.66696042E+03</rscale>
<asrwt>0</asrwt>
<pdfrwt beam="1">  1       21 0.26665885E-01 0.66696042E+03</pdfrwt>
<pdfrwt beam="2">0</pdfrwt>
<totfact> 0.12814513E+03</totfact>
</mgrwt>
</event>
<event>
 6    1  0.1364923E-004  0.6416145E+03  0.7818608E-02  0.9822643E-01
         21   -1    0    0  501  502  0.00000000000E+00  0.00000000000E+00  0.13394905107E+03  0.13394905107E+03  0.00000000000E+00 0.  1.
         13   -1    0    0    0    0 -0.00000000000E+00 -0.00000000000E+00 -0.10000000000E+04  0.10000000000E+04  0.00000000000E+00 0.  1.
    9000005    2    1    2  501    0 -0.11178728035E+02 -0.32615011556E+02 -0.88614797080E+03  0.10940417431E+04  0.64068744847E+03 0.  0.
         13    1    3    3    0    0 -0.26308002712E+03 -0.19500282312E+03 -0.57709579527E+03  0.66353353993E+03  0.00000000000E+00 0.  1.
          1    1    3    3  501    0  0.25190129908E+03  0.16238781156E+03 -0.30905217552E+03  0.43050820320E+03  0.00000000000E+00 0.  1.
         -3    1    1    2    0  502  0.11178728035E+02  0.32615011556E+02  0.20097021867E+02  0.39907307943E+02  0.00000000000E+00 0. -1.
<mgrwt>
<rscale>  1 0.64161446E+03</rscale>
<asrwt>0</asrwt>
<pdfrwt beam="1">  1       21 0.20607546E-01 0.64161446E+03</pdfrwt>
<pdfrwt beam="2">0</pdfrwt>
<totfact> 0.21196527E+03</totfact>
</mgrwt>
</event>
<event>
 6    1  0.1364923E-004  0.6549664E+03  0.7818608E-02  0.9797504E-01
         21   -1    0    0  501  502  0.00000000000E+00  0.00000000000E+00  0.12085032112E+03  0.12085032112E+03  0.00000000000E+00 0.  1.
         13   -1    0    0    0    0 -0.00000000000E+00 -0.00000000000E+00 -0.10000000000E+04  0.10000000000E+04  0.00000000000E+00 0.  1.
    9000005    2    1    2  501    0  0.24412254992E+02  0.29416655610E+02 -0.84832004167E+03  0.10717406036E+04  0.65384992968E+03 0.  0.
         13    1    3    3    0    0 -0.10041183857E+02  0.33763653724E+03 -0.36357767678E+03  0.49627410139E+03  0.00000000000E+00 0.  1.
          1    1    3    3  501    0  0.34453438849E+02 -0.30821988163E+03 -0.48474236489E+03  0.57546650224E+03  0.00000000000E+00 0.  1.
         -3    1    1    2    0  502 -0.24412254992E+02 -0.29416655610E+02 -0.30829637212E+02  0.49109717488E+02  0.00000000000E+00 0. -1.
<mgrwt>
<rscale>  1 0.65496643E+03</rscale>
<asrwt>0</asrwt>
<pdfrwt beam="1">  1       21 0.18592357E-01 0.65496643E+03</pdfrwt>
<pdfrwt beam="2">0</pdfrwt>
<totfact> 0.25796684E+03</totfact>
</mgrwt>
</event>
<event>
 6    1  0.1364923E-004  0.6489907E+03  0.7818608E-02  0.9808675E-01
         21   -1    0    0  501  502  0.00000000000E+00  0.00000000000E+00  0.14428080453E+03  0.14428080453E+03  0.00000000000E+00 0.  1.
         13   -1    0    0    0    0 -0.00000000000E+00 -0.00000000000E+00 -0.10000000000E+04  0.10000000000E+04  0.00000000000E+00 0.  1.
    9000005    2    1    2  501    0 -0.22338282553E+02  0.22759799730E+02 -0.88735671495E+03  0.10993593176E+04  0.64820672799E+03 0.  0.
         13    1    3    3    0    0 -0.19925360394E+03  0.25223981195E+03 -0.27947455583E+03  0.42594946739E+03  0.00000000000E+00 0.  1.
          3    1    3    3  501    0  0.17691532138E+03 -0.22948001222E+03 -0.60788215912E+03  0.67340985018E+03  0.00000000000E+00 0.  1.
         -1    1    1    2    0  502  0.22338282553E+02 -0.22759799730E+02  0.31637519481E+02  0.44921486953E+02  0.00000000000E+00 0. -1.
<mgrwt>
<rscale>  1 0.64899073E+03</rscale>
<asrwt>0</asrwt>
<pdfrwt beam="1">  1       21 0.22197046E-01 0.64899073E+03</pdfrwt>
<pdfrwt beam="2">0</pdfrwt>
<totfact> 0.18359387E+03</totfact>
</mgrwt>
</event>
<event>
 6    1  0.1364923E-004  0.6612705E+03  0.7818608E-02  0.9785858E-01
         21   -1    0    0  501  502  0.00000000000E+00  0.00000000000E+00  0.28599000595E+03  0.28599000595E+03  0.00000000000E+00 0. -1.
         13   -1    0    0    0    0 -0.00000000000E+00 -0.00000000000E+00 -0.10000000000E+04  0.10000000000E+04  0.00000000000E+00 0.  1.
    9000005    2    1    2  501    0  0.20255933859E+02 -0.38542518610E+02 -0.88769857420E+03  0.11069270241E+04  0.65983547149E+03 0.  0.
         13    1    3    3    0    0  0.96273564211E+02 -0.46566015219E+02  0.81661949227E+02  0.13455729966E+03  0.00000000000E+00 0.  1.
          1    1    3    3  501    0 -0.76017630352E+02  0.80234966090E+01 -0.96936052343E+03  0.97236972444E+03  0.00000000000E+00 0.  1.
         -1    1    1    2    0  502 -0.20255933859E+02  0.38542518610E+02  0.17368858015E+03  0.17906298186E+03  0.00000000000E+00 0. -1.
<mgrwt>
<rscale>  1 0.66127050E+03</rscale>
<asrwt>0</asrwt>
<pdfrwt beam="1">  1       21 0.43998461E-01 0.66127050E+03</pdfrwt>
<pdfrwt beam="2">0</pdfrwt>
<totfact> 0.46232079E+02</totfact>
</mgrwt>
</event>
<event>
 6    1  0.1364923E-004  0.6673435E+03  0.7818608E-02  0.9774769E-01
         21   -1    0    0  501  502  0.00000000000E+00  0.00000000000E+00  0.24102022623E+03  0.24102022623E+03  0.00000000000E+00 0. -1.
         13   -1    0    0    0    0 -0.00000000000E+00 -0.00000000000E+00 -0.10000000000E+04  0.10000000000E+04  0.00000000000E+00 0.  1.
    9000005    2    1    2  501    0  0.57304396995E+02  0.19419576773E+03 -0.79221775789E+03  0.10358360316E+04  0.63588640371E+03 0.  0.
         13    1    3    3    0    0  0.20991245930E+03 -0.63332832891E+02 -0.68276020679E+03  0.71710235550E+03  0.00000000000E+00 0.  1.
          1    1    3    3  501    0 -0.15260806230E+03  0.25752860062E+03 -0.10945755111E+03  0.31873367615E+03  0.00000000000E+00 0.  1.
         -3    1    1    2    0  502 -0.57304396995E+02 -0.19419576773E+03  0.33237984122E+02  0.20518419458E+03  0.00000000000E+00 0. -1.
<mgrwt>
<rscale>  1 0.66734347E+03</rscale>
<asrwt>0</asrwt>
<pdfrwt beam="1">  1       21 0.37080034E-01 0.66734347E+03</pdfrwt>
<pdfrwt beam="2">0</pdfrwt>
<totfact> 0.65956607E+02</totfact>
</mgrwt>
</event>
<event>
 6    1  0.1364923E-004  0.6541242E+03  0.7818608E-02  0.9799071E-01
         21   -1    0    0  501  502  0.00000000000E+00  0.00000000000E+00  0.17240417739E+03  0.17240417739E+03  0.00000000000E+00 0.  1.
         13   -1    0    0    0    0 -0.00000000000E+00 -0.00000000000E+00 -0.10000000000E+04  0.10000000000E+04  0.00000000000E+00 0.  1.
    9000005    2    1    2  501    0  0.36392715864E+02 -0.72473476586E+01 -0.88715257325E+03  0.11022332406E+04  0.65307080378E+03 0.  0.
         13    1    3    3    0    0  0.23369575705E+03  0.19412820329E+03 -0.21165949749E+03  0.37026910356E+03  0.00000000000E+00 0.  1.
          1    1    3    3  501    0 -0.19730304118E+03 -0.20137555094E+03 -0.67549307577E+03  0.73196413709E+03  0.00000000000E+00 0.  1.
         -1    1    1    2    0  502 -0.36392715864E+02  0.72473476586E+01  0.59556750642E+02  0.70170936741E+02  0.00000000000E+00 0. -1.
<mgrwt>
<rscale>  1 0.65412417E+03</rscale>
<asrwt>0</asrwt>
<pdfrwt beam="1">  1       21 0.26523719E-01 0.65412417E+03</pdfrwt>
<pdfrwt beam="2">0</pdfrwt>
<totfact> 0.12959555E+03</totfact>
</mgrwt>
</event>
<event>
 6    1  0.1364923E-004  0.6471444E+03  0.7818608E-02  0.9812152E-01
         21   -1    0    0  501  502  0.00000000000E+00  0.00000000000E+00  0.12433889395E+03  0.12433889395E+03  0.00000000000E+00 0.  1.
         13   -1    0    0    0    0 -0.00000000000E+00 -0.00000000000E+00 -0.10000000000E+04  0.10000000000E+04  0.00000000000E+00 0.  1.
    9000005    2    1    2  501    0 -0.27230440841E+02  0.36318137369E+02 -0.86006841183E+03  0.10763426845E+04  0.64555046076E+03 0.  0.
         13    1    3    3    0    0 -0.75495590107E+02 -0.13143907130E+03 -0.88687418758E+03  0.89973420419E+03  0.00000000000E+00 0.  1.
          1    1    3    3  501    0  0.48265149266E+02  0.16775720867E+03  0.26805775751E+02  0.17660848029E+03  0.00000000000E+00 0.  1.
         -1    1    1    2    0  502  0.27230440841E+02 -0.36318137369E+02 -0.15592694226E+02  0.47996209471E+02  0.00000000000E+00 0. -1.
<mgrwt>
<rscale>  1 0.64714442E+03</rscale>
<asrwt>0</asrwt>
<pdfrwt beam="1">  1       21 0.19129060E-01 0.64714442E+03</pdfrwt>
<pdfrwt beam="2">0</pdfrwt>
<totfact> 0.24441039E+03</totfact>
</mgrwt>
</event>
<event>
 6    1  0.1364923E-004  0.6456173E+03  0.7818608E-02  0.9815038E-01
         21   -1    0    0  501  502  0.00000000000E+00  0.00000000000E+00  0.12846289096E+03  0.12846289096E+03  0.00000000000E+00 0.  1.
         13   -1    0    0    0    0 -0.00000000000E+00 -0.00000000000E+00 -0.10000000000E+04  0.10000000000E+04  0.00000000000E+00 0.  1.
    9000005    2    1    2  501    0  0.22634241344E+02  0.43798241985E+01 -0.88959254859E+03  0.10991799499E+04  0.64520552382E+03 0.  0.
         13    1    3    3    0    0 -0.14905323914E+02 -0.79769973348E+02 -0.97210841045E+03  0.97548971240E+03  0.00000000000E+00 0.  1.
          3    1    3    3  501    0  0.37539565258E+02  0.84149797546E+02  0.82515861867E+02  0.12369023747E+03  0.00000000000E+00 0.  1.
         -3    1    1    2    0  502 -0.22634241344E+02 -0.43798241985E+01  0.18055439548E+02  0.29282941084E+02  0.00000000000E+00 0. -1.
<mgrwt>
<rscale>  1 0.64561727E+03</rscale>
<asrwt>0</asrwt>
<pdfrwt beam="1">  1       21 0.19763521E-01 0.64561727E+03</pdfrwt>
<pdfrwt beam="2">0</pdfrwt>
<totfact> 0.22963894E+03</totfact>
</mgrwt>
</event>
<event>
 6    1  0.1364923E-004  0.6479623E+03  0.7818608E-02  0.9810610E-01
         21   -1    0    0  501  502  0.00000000000E+00  0.00000000000E+00  0.27053737544E+03  0.27053737544E+03  0.00000000000E+00 0. -1.
         13   -1    0    0    0    0 -0.00000000000E+00 -0.00000000000E+00 -0.10000000000E+04  0.10000000000E+04  0.00000000000E+00 0.  1.
    9000005    2    1    2  501    0 -0.14205821134E+03  0.63384041455E+02 -0.85349015373E+03  0.10715878841E+04  0.62901278100E+03 0.  0.
         13    1    3    3    0    0 -0.39335096666E+03  0.32792688725E+02 -0.51083442244E+03  0.64556343651E+03  0.00000000000E+00 0.  1.
          1    1    3    3  501    0  0.25129275532E+03  0.30591352731E+02 -0.34265573130E+03  0.42602444757E+03  0.00000000000E+00 0.  1.
         -3    1    1    2    0  502  0.14205821134E+03 -0.63384041455E+02  0.12402752917E+03  0.19894949136E+03  0.00000000000E+00 0. -1.
<mgrwt>
<rscale>  1 0.64796231E+03</rscale>
<asrwt>0</asrwt>
<pdfrwt beam="1">  1       21 0.41621133E-01 0.64796231E+03</pdfrwt>
<pdfrwt beam="2">0</pdfrwt>
<totfact> 0.52000382E+02</totfact>
</mgrwt>
</event>
<event>
 6    1  0.1364923E-004  0.6554919E+03  0.7818608E-02  0.9796528E-01
         21   -1    0    0  501  502  0.00000000000E+00  0.00000000000E+00  0.18051823625E+03  0.18051823625E+03  0.00000000000E+00 0. -1.
         13   -1    0    0    0    0 -0.00000000000E+00 -0.00000000000E+00 -0.10000000000E+04  0.10000000000E+04  0.00000000000E+00 0.  1.
    9000005    2    1    2  501    0 -0.88061715835E+02 -0.79585465856E+02 -0.83418845665E+03  0.10609147288E+04  0.64465569761E+03 0.  0.
         13    1    3    3    0    0 -0.13732263891E+03 -0.32125186056E+02 -0.93141754530E+03  0.94203406437E+03  0.00000000000E+00 0.  1.
          1    1    3    3  501    0  0.49260923078E+02 -0.47460279800E+02  0.97229088654E+02  0.11888066446E+03  0.00000000000E+00 0.  1.
         -3    1    1    2    0  502  0.88061715835E+02  0.79585465856E+02  0.14706692900E+02  0.11960350742E+03  0.00000000000E+00 0. -1.
<mgrwt>
<rscale>  1 0.65549194E+03</rscale>
<asrwt>0</asrwt>
<pdfrwt beam="1">  1       21 0.27772036E-01 0.65549194E+03</pdfrwt>
<pdfrwt beam="2">0</pdfrwt>
<totfact> 0.11831405E+03</totfact>
</mgrwt>
</event>
<event>
 6    1  0.1364923E-004  0.6530636E+03  0.7818608E-02  0.9801047E-01
         21   -1    0    0  501  502  0.00000000000E+00  0.00000000000E+00  0.12214495353E+03  0.12214495353E+03  0.00000000000E+00 0.  1.
         13   -1    0    0    0    0 -0.00000000000E+00 -0.00000000000E+00 -0.10000000000E+04  0.10000000000E+04  0.00000000000E+00 0.  1.
    9000005    2    1    2  501    0  0.79685271912E+01  0.25612185383E+02 -0.87929151761E+03  0.10952833654E+04  0.65251252569E+03 0.  0.
         13    1    3    3    0    0  0.32798206989E+03  0.22652534585E+02 -0.50802718154E+03  0.60512560075E+03  0.00000000000E+00 0.  1.
          1    1    3    3  501    0 -0.32001354270E+03  0.29596507976E+01 -0.37126433607E+03  0.49015776469E+03  0.00000000000E+00 0.  1.
         -1    1    1    2    0  502 -0.79685271912E+01 -0.25612185383E+02  0.14364711406E+01  0.26861588095E+02  0.00000000000E+00 0. -1.
<mgrwt>
<rscale>  1 0.65306361E+03</rscale>
<asrwt>0</asrwt>
<pdfrwt beam="1">  1       21 0.18791531E-01 0.65306361E+03</pdfrwt>
<pdfrwt beam="2">0</pdfrwt>
<totfact> 0.25280108E+03</totfact>
</mgrwt>
</event>
<event>
 6    1  0.1364923E-004  0.6322557E+03  0.7818608E-02  0.9840657E-01
         21   -1    0    0  501  502  0.00000000000E+00  0.00000000000E+00  0.11930219746E+03  0.11930219746E+03  0.00000000000E+00 0.  1.
         13   -1    0    0    0    0 -0.00000000000E+00 -0.00000000000E+00 -0.10000000000E+04  0.10000000000E+04  0.00000000000E+00 0.  1.
    9000005    2    1    2  501    0 -0.28492395909E+02  0.51108737826E+02 -0.80301402412E+03  0.10220464052E+04  0.62954222388E+03 0.  0.
         13    1    3    3    0    0 -0.32550077083E+03  0.67960633981E+02 -0.38066882246E+03  0.50544846619E+03  0.00000000000E+00 0.  1.
          1    1    3    3  501    0  0.29700837492E+03 -0.16851896155E+02 -0.42234520166E+03  0.51659793896E+03  0.00000000000E+00 0.  1.
         -3    1    1    2    0  502  0.28492395909E+02 -0.51108737826E+02 -0.77683778423E+02  0.97255792304E+02  0.00000000000E+00 0. -1.
<mgrwt>
<rscale>  1 0.63225575E+03</rscale>
<asrwt>0</asrwt>
<pdfrwt beam="1">  1       21 0.18354184E-01 0.63225575E+03</pdfrwt>
<pdfrwt beam="2">0</pdfrwt>
<totfact> 0.26458013E+03</totfact>
</mgrwt>
</event>
<event>
 6    1  0.1364923E-004  0.6351372E+03  0.7818608E-02  0.9835075E-01
         21   -1    0    0  501  502  0.00000000000E+00  0.00000000000E+00  0.13925456922E+03  0.13925456922E+03  0.00000000000E+00 0.  1.
         13   -1    0    0    0    0 -0.00000000000E+00 -0.00000000000E+00 -0.10000000000E+04  0.10000000000E+04  0.00000000000E+00 0.  1.
    9000005    2    1    2  501    0  0.19186380091E+02 -0.22156331269E+02 -0.89289740140E+03  0.10957485994E+04  0.63446056098E+03 0.  0.
         13    1    3    3    0    0 -0.72034469437E+02  0.26043619516E+03 -0.67604310851E+03  0.72804550758E+03  0.00000000000E+00 0.  1.
          3    1    3    3  501    0  0.91220849527E+02 -0.28259252643E+03 -0.21685429289E+03  0.36770309181E+03  0.00000000000E+00 0.  1.
         -3    1    1    2    0  502 -0.19186380091E+02  0.22156331269E+02  0.32151970621E+02  0.43505969832E+02  0.00000000000E+00 0. -1.
<mgrwt>
<rscale>  1 0.63513717E+03</rscale>
<asrwt>0</asrwt>
<pdfrwt beam="1">  1       21 0.21423779E-01 0.63513717E+03</pdfrwt>
<pdfrwt beam="2">0</pdfrwt>
<totfact> 0.19674091E+03</totfact>
</mgrwt>
</event>
<event>
 6    1  0.1364923E-004  0.6517585E+03  0.7818608E-02  0.9803485E-01
         21   -1    0    0  501  502  0.00000000000E+00  0.00000000000E+00  0.15753823135E+03  0.15753823135E+03  0.00000000000E+00 0.  1.
         13   -1    0    0    0    0 -0.00000000000E+00 -0.00000000000E+00 -0.10000000000E+04  0.10000000000E+04  0.00000000000E+00 0.  1.
    9000005    2    1    2  501    0  0.31099690077E+02  0.29676690707E+02 -0.88364560050E+03  0.10980066876E+04  0.65033932840E+03 0.  0.
         13    1    3    3    0    0  0.15367567467E+03  0.29336211006E+03 -0.30416103668E+03  0.44965706582E+03  0.00000000000E+00 0.  1.
          3    1    3    3  501    0 -0.12257598460E+03 -0.26368541935E+03 -0.57948456381E+03  0.64834962179E+03  0.00000000000E+00 0.  1.
         -3    1    1    2    0  502 -0.31099690077E+02 -0.29676690707E+02  0.41183831850E+02  0.59531543740E+02  0.00000000000E+00 0. -1.
<mgrwt>
<rscale>  1 0.65175850E+03</rscale>
<asrwt>0</asrwt>
<pdfrwt beam="1">  1       21 0.24236650E-01 0.65175850E+03</pdfrwt>
<pdfrwt beam="2">0</pdfrwt>
<totfact> 0.15471466E+03</totfact>
</mgrwt>
</event>
<event>
 6    1  0.1364923E-004  0.6797497E+03  0.7818608E-02  0.9752504E-01
         21   -1    0    0  501  502  0.00000000000E+00  0.00000000000E+00  0.30449998124E+03  0.30449998124E+03  0.00000000000E+00 0.  1.
         13   -1    0    0    0    0 -0.00000000000E+00 -0.00000000000E+00 -0.10000000000E+04  0.10000000000E+04  0.00000000000E+00 0.  1.
    9000005    2    1    2  501    0 -0.59599493384E+02  0.19189177795E+03 -0.82231542495E+03  0.10668937917E+04  0.64937289027E+03 0.  0.
         13    1    3    3    0    0  0.26832721046E+03  0.22212303471E+03 -0.46447159205E+03  0.58057901636E+03  0.00000000000E+00 0.  1.
          1    1    3    3  501    0 -0.32792670384E+03 -0.30231256755E+02 -0.35784383290E+03  0.48631477535E+03  0.00000000000E+00 0.  1.
         -1    1    1    2    0  502  0.59599493384E+02 -0.19189177795E+03  0.12681540619E+03  0.23760618953E+03  0.00000000000E+00 0. -1.
<mgrwt>
<rscale>  1 0.67974974E+03</rscale>
<asrwt>0</asrwt>
<pdfrwt beam="1">  1       21 0.46846150E-01 0.67974974E+03</pdfrwt>
<pdfrwt beam="2">0</pdfrwt>
<totfact> 0.40424153E+02</totfact>
</mgrwt>
</event>
<event>
 6    1  0.1364923E-004  0.6550599E+03  0.7818608E-02  0.9797331E-01
         21   -1    0    0  501  502  0.00000000000E+00  0.00000000000E+00  0.16151904806E+03  0.16151904806E+03  0.00000000000E+00 0.  1.
         13   -1    0    0    0    0 -0.00000000000E+00 -0.00000000000E+00 -0.10000000000E+04  0.10000000000E+04  0.00000000000E+00 0.  1.
    9000005    2    1    2  501    0  0.80242969624E+02 -0.12246626863E+03 -0.71788273911E+03  0.97183285967E+03  0.63848771240E+03 0.  0.
         13    1    3    3    0    0 -0.92461803410E+02 -0.38548623987E+02 -0.76709904713E+03  0.77361238977E+03  0.00000000000E+00 0.  1.
          1    1    3    3  501    0  0.17270477303E+03 -0.83917644646E+02  0.49216308017E+02  0.19822046990E+03  0.00000000000E+00 0.  1.
         -1    1    1    2    0  502 -0.80242969624E+02  0.12246626863E+03 -0.12059821283E+03  0.18968618839E+03  0.00000000000E+00 0. -1.
<mgrwt>
<rscale>  1 0.65505991E+03</rscale>
<asrwt>0</asrwt>
<pdfrwt beam="1">  1       21 0.24849084E-01 0.65505991E+03</pdfrwt>
<pdfrwt beam="2">0</pdfrwt>
<totfact> 0.14731695E+03</totfact>
</mgrwt>
</event>
<event>
 6    1  0.1364923E-004  0.6486154E+03  0.7818608E-02  0.9809381E-01
         21   -1    0    0  501  502  0.00000000000E+00  0.00000000000E+00  0.15764413789E+03  0.15764413789E+03  0.00000000000E+00 0.  1.
         13   -1    0    0    0    0 -0.00000000000E+00 -0.00000000000E+00 -0.10000000000E+04  0.10000000000E+04  0.00000000000E+00 0.  1.
    9000005    2    1    2  501    0  0.21436305083E+02  0.10826220160E+02 -0.89176979576E+03  0.11027036332E+04  0.64817066565E+03 0.  0.
         13    1    3    3    0    0 -0.13395175463E+03  0.79412319112E+02 -0.91775807618E+03  0.93087554238E+03  0.00000000000E+00 0.  1.
          3    1    3    3  501    0  0.15538805972E+03 -0.68586098952E+02  0.25988280427E+02  0.17182809081E+03  0.00000000000E+00 0.  1.
         -1    1    1    2    0  502 -0.21436305083E+02 -0.10826220160E+02  0.49413933646E+02  0.54940504702E+02  0.00000000000E+00 0. -1.
<mgrwt>
<rscale>  1 0.64861540E+03</rscale>
<asrwt>0</asrwt>
<pdfrwt beam="1">  1       21 0.24252944E-01 0.64861540E+03</pdfrwt>
<pdfrwt beam="2">0</pdfrwt>
<totfact> 0.15453605E+03</totfact>
</mgrwt>
</event>
<event>
 6    1  0.1364923E-004  0.8206938E+03  0.7818608E-02  0.9530537E-01
         21   -1    0    0  501  502  0.00000000000E+00  0.00000000000E+00  0.43222888155E+03  0.43222888155E+03  0.00000000000E+00 0. -1.
         13   -1    0    0    0    0 -0.00000000000E+00 -0.00000000000E+00 -0.10000000000E+04  0.10000000000E+04  0.00000000000E+00 0.  1.
    9000005    2    1    2  501    0  0.28503421353E+03  0.40280512721E+03 -0.37768392587E+03  0.90342871686E+03  0.65577574306E+03 0.  0.
         13    1    3    3    0    0  0.87286766481E+02  0.51979868725E+03 -0.41475311487E+03  0.67069352253E+03  0.00000000000E+00 0.  1.
          1    1    3    3  501    0  0.19774744705E+03 -0.11699356004E+03  0.37069188996E+02  0.23273519433E+03  0.00000000000E+00 0.  1.
         -3    1    1    2    0  502 -0.28503421353E+03 -0.40280512721E+03 -0.19008719258E+03  0.52880016469E+03  0.00000000000E+00 0. -1.
<mgrwt>
<rscale>  1 0.82069379E+03</rscale>
<asrwt>0</asrwt>
<pdfrwt beam="1">  1       21 0.66496749E-01 0.82069379E+03</pdfrwt>
<pdfrwt beam="2">0</pdfrwt>
<totfact> 0.18537826E+02</totfact>
</mgrwt>
</event>
<event>
 6    1  0.1364923E-004  0.6389133E+03  0.7818608E-02  0.9827808E-01
         21   -1    0    0  501  502  0.00000000000E+00  0.00000000000E+00  0.12249720133E+03  0.12249720133E+03  0.00000000000E+00 0.  1.
         13   -1    0    0    0    0 -0.00000000000E+00 -0.00000000000E+00 -0.10000000000E+04  0.10000000000E+04  0.00000000000E+00 0.  1.
    9000005    2    1    2  501    0 -0.14240343579E+02 -0.38219030493E+02 -0.87248098865E+03  0.10814034031E+04  0.63761019676E+03 0.  0.
         13    1    3    3    0    0 -0.11733473985E+03  0.11380226517E+03  0.24964963720E+02  0.16535309537E+03  0.00000000000E+00 0.  1.
          1    1    3    3  501    0  0.10309439627E+03 -0.15202129566E+03 -0.89744595237E+03  0.91605030773E+03  0.00000000000E+00 0.  1.
         -3    1    1    2    0  502  0.14240343579E+02  0.38219030493E+02 -0.50218100200E+01  0.41093798230E+02  0.00000000000E+00 0. -1.
<mgrwt>
<rscale>  1 0.63891333E+03</rscale>
<asrwt>0</asrwt>
<pdfrwt beam="1">  1       21 0.18845723E-01 0.63891333E+03</pdfrwt>
<pdfrwt beam="2">0</pdfrwt>
<totfact> 0.25154495E+03</totfact>
</mgrwt>
</event>
<event>
 6    1  0.1364923E-004  0.6087408E+03  0.7818608E-02  0.9887436E-01
         21   -1    0    0  501  502  0.00000000000E+00  0.00000000000E+00  0.14008307677E+03  0.14008307677E+03  0.00000000000E+00 0.  1.
         13   -1    0    0    0    0 -0.00000000000E+00 -0.00000000000E+00 -0.10000000000E+04  0.10000000000E+04  0.00000000000E+00 0.  1.
    9000005    2    1    2  501    0  0.10420001630E+02  0.62086518854E+02 -0.88345332522E+03  0.10728724044E+04  0.60547675933E+03 0.  0.
         13    1    3    3    0    0  0.13780241597E+03  0.27261144068E+03 -0.70674572425E+03  0.76993247897E+03  0.00000000000E+00 0.  1.
          1    1    3    3  501    0 -0.12738241434E+03 -0.21052492183E+03 -0.17670760097E+03  0.30293992546E+03  0.00000000000E+00 0.  1.
         -3    1    1    2    0  502 -0.10420001630E+02 -0.62086518854E+02  0.23536401988E+02  0.67210672337E+02  0.00000000000E+00 0. -1.
<mgrwt>
<rscale>  1 0.60874085E+03</rscale>
<asrwt>0</asrwt>
<pdfrwt beam="1">  1       21 0.21551242E-01 0.60874085E+03</pdfrwt>
<pdfrwt beam="2">0</pdfrwt>
<totfact> 0.19473461E+03</totfact>
</mgrwt>
</event>
<event>
 6    1  0.1364923E-004  0.6485644E+03  0.7818608E-02  0.9809477E-01
         21   -1    0    0  501  502  0.00000000000E+00  0.00000000000E+00  0.13468909779E+03  0.13468909779E+03  0.00000000000E+00 0.  1.
         13   -1    0    0    0    0 -0.00000000000E+00 -0.00000000000E+00 -0.10000000000E+04  0.10000000000E+04  0.00000000000E+00 0.  1.
    9000005    2    1    2  501    0  0.21648887662E+02 -0.31129499414E+02 -0.88072319298E+03  0.10937591726E+04  0.64745506786E+03 0.  0.
         13    1    3    3    0    0  0.15334860575E+03  0.11242672064E+03 -0.87859126752E+03  0.89893168693E+03  0.00000000000E+00 0.  1.
          1    1    3    3  501    0 -0.13169971809E+03 -0.14355622005E+03 -0.21319254501E+01  0.19482748565E+03  0.00000000000E+00 0.  1.
         -1    1    1    2    0  502 -0.21648887662E+02  0.31129499414E+02  0.15412290764E+02  0.40929925205E+02  0.00000000000E+00 0. -1.
<mgrwt>
<rscale>  1 0.64856440E+03</rscale>
<asrwt>0</asrwt>
<pdfrwt beam="1">  1       21 0.20721399E-01 0.64856440E+03</pdfrwt>
<pdfrwt beam="2">0</pdfrwt>
<totfact> 0.20967074E+03</totfact>
</mgrwt>
</event>
<event>
 6    1  0.1364923E-004  0.5568611E+03  0.7818608E-02  0.9999182E-01
         21   -1    0    0  501  502  0.00000000000E+00  0.00000000000E+00  0.11904879123E+03  0.11904879123E+03  0.00000000000E+00 0.  1.
         13   -1    0    0    0    0 -0.00000000000E+00 -0.00000000000E+00 -0.10000000000E+04  0.10000000000E+04  0.00000000000E+00 0.  1.
    9000005    2    1    2  501    0  0.30776751455E+02 -0.80906332034E+02 -0.86836316023E+03  0.10315759271E+04  0.55009205805E+03 0.  0.
         13    1    3    3    0    0  0.16988626841E+03 -0.25860515701E+03 -0.63811516451E+03  0.70917482655E+03  0.00000000000E+00 0.  1.
          1    1    3    3  501    0 -0.13910951695E+03  0.17769882498E+03 -0.23024799571E+03  0.32240110055E+03  0.00000000000E+00 0.  1.
         -3    1    1    2    0  502 -0.30776751455E+02  0.80906332034E+02 -0.12588048544E+02  0.87472864132E+02  0.00000000000E+00 0. -1.
<mgrwt>
<rscale>  1 0.55686113E+03</rscale>
<asrwt>0</asrwt>
<pdfrwt beam="1">  1       21 0.18315198E-01 0.55686113E+03</pdfrwt>
<pdfrwt beam="2">0</pdfrwt>
<totfact> 0.26639075E+03</totfact>
</mgrwt>
</event>
<event>
 6    1  0.1364923E-004  0.7044132E+03  0.7818608E-02  0.9709715E-01
         21   -1    0    0  501  502  0.00000000000E+00  0.00000000000E+00  0.35422513899E+03  0.35422513899E+03  0.00000000000E+00 0. -1.
         13   -1    0    0    0    0 -0.00000000000E+00 -0.00000000000E+00 -0.10000000000E+04  0.10000000000E+04  0.00000000000E+00 0.  1.
    9000005    2    1    2  501    0 -0.24514542484E+03 -0.13196266270E+03 -0.77499675356E+03  0.10472907467E+04  0.64706067441E+03 0.  0.
         13    1    3    3    0    0  0.16340693887E+03  0.12038299143E+03 -0.12224542376E+03  0.23693424389E+03  0.00000000000E+00 0.  1.
          1    1    3    3  501    0 -0.40855236371E+03 -0.25234565413E+03 -0.65275132980E+03  0.81035650279E+03  0.00000000000E+00 0.  1.
         -3    1    1    2    0  502  0.24514542484E+03  0.13196266270E+03  0.12922189255E+03  0.30693439231E+03  0.00000000000E+00 0. -1.
<mgrwt>
<rscale>  1 0.70441319E+03</rscale>
<asrwt>0</asrwt>
<pdfrwt beam="1">  1       21 0.54496174E-01 0.70441319E+03</pdfrwt>
<pdfrwt beam="2">0</pdfrwt>
<totfact> 0.29134769E+02</totfact>
</mgrwt>
</event>
<event>
 6    1  0.1364923E-004  0.6795088E+03  0.7818608E-02  0.9752931E-01
         21   -1    0    0  501  502  0.00000000000E+00  0.00000000000E+00  0.24310351824E+03  0.24310351824E+03  0.00000000000E+00 0.  1.
         13   -1    0    0    0    0 -0.00000000000E+00 -0.00000000000E+00 -0.10000000000E+04  0.10000000000E+04  0.00000000000E+00 0.  1.
    9000005    2    1    2  501    0  0.20169670931E+03 -0.70106032624E+02 -0.77270905887E+03  0.10289856630E+04  0.64508587533E+03 0.  0.
         13    1    3    3    0    0  0.29751662177E+03  0.22142974526E+03 -0.38584293260E+03  0.53518411874E+03  0.00000000000E+00 0.  1.
          3    1    3    3  501    0 -0.95819912457E+02 -0.29153577789E+03 -0.38686612627E+03  0.49380154421E+03  0.00000000000E+00 0.  1.
         -1    1    1    2    0  502 -0.20169670931E+03  0.70106032624E+02  0.15812577103E+02  0.21411785528E+03  0.00000000000E+00 0. -1.
<mgrwt>
<rscale>  1 0.67950880E+03</rscale>
<asrwt>0</asrwt>
<pdfrwt beam="1">  1       21 0.37400540E-01 0.67950880E+03</pdfrwt>
<pdfrwt beam="2">0</pdfrwt>
<totfact> 0.64741369E+02</totfact>
</mgrwt>
</event>
<event>
 6    1  0.1364923E-004  0.6582180E+03  0.7818608E-02  0.9791480E-01
         21   -1    0    0  501  502  0.00000000000E+00  0.00000000000E+00  0.11982446723E+03  0.11982446723E+03  0.00000000000E+00 0.  1.
         13   -1    0    0    0    0 -0.00000000000E+00 -0.00000000000E+00 -0.10000000000E+04  0.10000000000E+04  0.00000000000E+00 0.  1.
    9000005    2    1    2  501    0  0.64588513045E+01  0.19494604617E+02 -0.88044237080E+03  0.10992860259E+04  0.65789759240E+03 0.  0.
         13    1    3    3    0    0  0.78477639342E+02 -0.57836162272E+02  0.84234902085E+02  0.12883819415E+03  0.00000000000E+00 0.  1.
          1    1    3    3  501    0 -0.72018788037E+02  0.77330766889E+02 -0.96467727289E+03  0.97044783176E+03  0.00000000000E+00 0.  1.
         -3    1    1    2    0  502 -0.64588513045E+01 -0.19494604617E+02  0.26683803165E+00  0.20538441320E+02  0.00000000000E+00 0. -1.
<mgrwt>
<rscale>  1 0.65821805E+03</rscale>
<asrwt>0</asrwt>
<pdfrwt beam="1">  1       21 0.18434533E-01 0.65821805E+03</pdfrwt>
<pdfrwt beam="2">0</pdfrwt>
<totfact> 0.26215580E+03</totfact>
</mgrwt>
</event>
<event>
 6    1  0.1364923E-004  0.6496584E+03  0.7818608E-02  0.9807420E-01
         21   -1    0    0  501  502  0.00000000000E+00  0.00000000000E+00  0.24047385861E+03  0.24047385861E+03  0.00000000000E+00 0. -1.
         13   -1    0    0    0    0 -0.00000000000E+00 -0.00000000000E+00 -0.10000000000E+04  0.10000000000E+04  0.00000000000E+00 0.  1.
    9000005    2    1    2  501    0 -0.46396000877E+02 -0.33521333950E+02 -0.88774035838E+03  0.11000631960E+04  0.64713199785E+03 0.  0.
         13    1    3    3    0    0 -0.18941782242E+03 -0.28021205821E+03 -0.32432832388E+03  0.46860086501E+03  0.00000000000E+00 0.  1.
          3    1    3    3  501    0  0.14302182154E+03  0.24669072426E+03 -0.56341203450E+03  0.63146233102E+03  0.00000000000E+00 0.  1.
         -3    1    1    2    0  502  0.46396000877E+02  0.33521333950E+02  0.12821421700E+03  0.14041066258E+03  0.00000000000E+00 0. -1.
<mgrwt>
<rscale>  1 0.64965844E+03</rscale>
<asrwt>0</asrwt>
<pdfrwt beam="1">  1       21 0.36995977E-01 0.64965844E+03</pdfrwt>
<pdfrwt beam="2">0</pdfrwt>
<totfact> 0.66352790E+02</totfact>
</mgrwt>
</event>
<event>
 6    1  0.1364923E-004  0.6481162E+03  0.7818608E-02  0.9810320E-01
         21   -1    0    0  501  502  0.00000000000E+00  0.00000000000E+00  0.25553129326E+03  0.25553129326E+03  0.00000000000E+00 0. -1.
         13   -1    0    0    0    0 -0.00000000000E+00 -0.00000000000E+00 -0.10000000000E+04  0.10000000000E+04  0.00000000000E+00 0.  1.
    9000005    2    1    2  501    0  0.37896372086E+02  0.38233497641E+02 -0.88964706973E+03  0.11006936608E+04  0.64587668389E+03 0.  0.
         13    1    3    3    0    0  0.68060861368E+02  0.31923771113E+03 -0.66086545840E+03  0.73708083082E+03  0.00000000000E+00 0.  1.
          3    1    3    3  501    0 -0.30164489282E+02 -0.28100421349E+03 -0.22878161133E+03  0.36361282994E+03  0.00000000000E+00 0.  1.
         -1    1    1    2    0  502 -0.37896372086E+02 -0.38233497641E+02  0.14517836298E+03  0.15483763250E+03  0.00000000000E+00 0. -1.
<mgrwt>
<rscale>  1 0.64811621E+03</rscale>
<asrwt>0</asrwt>
<pdfrwt beam="1">  1       21 0.39312506E-01 0.64811621E+03</pdfrwt>
<pdfrwt beam="2">0</pdfrwt>
<totfact> 0.58551959E+02</totfact>
</mgrwt>
</event>
<event>
 6    1  0.1364923E-004  0.6528845E+03  0.7818608E-02  0.9801382E-01
         21   -1    0    0  501  502  0.00000000000E+00  0.00000000000E+00  0.12992815970E+03  0.12992815970E+03  0.00000000000E+00 0.  1.
         13   -1    0    0    0    0 -0.00000000000E+00 -0.00000000000E+00 -0.10000000000E+04  0.10000000000E+04  0.00000000000E+00 0.  1.
    9000005    2    1    2  501    0 -0.37093309281E+00 -0.31861911888E+02 -0.88072731137E+03  0.10963296763E+04  0.65210646616E+03 0.  0.
         13    1    3    3    0    0 -0.25185283361E+03  0.11250890474E+03 -0.15866837565E+03  0.31821966764E+03  0.00000000000E+00 0.  1.
          1    1    3    3  501    0  0.25148190052E+03 -0.14437081663E+03 -0.72205893572E+03  0.77811000870E+03  0.00000000000E+00 0.  1.
         -1    1    1    2    0  502  0.37093309281E+00  0.31861911888E+02  0.10655471072E+02  0.33598483363E+02  0.00000000000E+00 0. -1.
<mgrwt>
<rscale>  1 0.65288449E+03</rscale>
<asrwt>0</asrwt>
<pdfrwt beam="1">  1       21 0.19988947E-01 0.65288449E+03</pdfrwt>
<pdfrwt beam="2">0</pdfrwt>
<totfact> 0.22463797E+03</totfact>
</mgrwt>
</event>
<event>
 6    1  0.1364923E-004  0.6659095E+03  0.7818608E-02  0.9777376E-01
         21   -1    0    0  501  502  0.00000000000E+00  0.00000000000E+00  0.18755372502E+03  0.18755372502E+03  0.00000000000E+00 0.  1.
         13   -1    0    0    0    0 -0.00000000000E+00 -0.00000000000E+00 -0.10000000000E+04  0.10000000000E+04  0.00000000000E+00 0.  1.
    9000005    2    1    2  501    0  0.11960702632E+03  0.10877613609E+03 -0.77463930869E+03  0.10215192249E+04  0.64598558789E+03 0.  0.
         13    1    3    3    0    0  0.29093549934E+03 -0.84493915557E+02 -0.13494269253E+03  0.33165074523E+03  0.00000000000E+00 0.  1.
          3    1    3    3  501    0 -0.17132847303E+03  0.19327005165E+03 -0.63969661615E+03  0.68986847968E+03  0.00000000000E+00 0.  1.
         -1    1    1    2    0  502 -0.11960702632E+03 -0.10877613609E+03 -0.37806966292E+02  0.16603450011E+03  0.00000000000E+00 0. -1.
<mgrwt>
<rscale>  1 0.66590950E+03</rscale>
<asrwt>0</asrwt>
<pdfrwt beam="1">  1       21 0.28854418E-01 0.66590950E+03</pdfrwt>
<pdfrwt beam="2">0</pdfrwt>
<totfact> 0.10958196E+03</totfact>
</mgrwt>
</event>
<event>
 6    1  0.1364923E-004  0.6391594E+03  0.7818608E-02  0.9827336E-01
         21   -1    0    0  501  502  0.00000000000E+00  0.00000000000E+00  0.12239201826E+03  0.12239201826E+03  0.00000000000E+00 0.  1.
         13   -1    0    0    0    0 -0.00000000000E+00 -0.00000000000E+00 -0.10000000000E+04  0.10000000000E+04  0.00000000000E+00 0.  1.
    9000005    2    1    2  501    0 -0.55582502901E+02  0.60493680725E+01 -0.83773698757E+03  0.10537210225E+04  0.63670929270E+03 0.  0.
         13    1    3    3    0    0 -0.19786801969E+03 -0.25856972557E+03 -0.32888694588E+03  0.46279226373E+03  0.00000000000E+00 0.  1.
          3    1    3    3  501    0  0.14228551679E+03  0.26461909364E+03 -0.50885004169E+03  0.59092875877E+03  0.00000000000E+00 0.  1.
         -3    1    1    2    0  502  0.55582502901E+02 -0.60493680725E+01 -0.39870994169E+02  0.68670995761E+02  0.00000000000E+00 0. -1.
<mgrwt>
<rscale>  1 0.63915940E+03</rscale>
<asrwt>0</asrwt>
<pdfrwt beam="1">  1       21 0.18829541E-01 0.63915940E+03</pdfrwt>
<pdfrwt beam="2">0</pdfrwt>
<totfact> 0.25195495E+03</totfact>
</mgrwt>
</event>
<event>
 6    1  0.1364923E-004  0.6327817E+03  0.7818608E-02  0.9839635E-01
         21   -1    0    0  501  502  0.00000000000E+00  0.00000000000E+00  0.12747415959E+03  0.12747415959E+03  0.00000000000E+00 0.  1.
         13   -1    0    0    0    0 -0.00000000000E+00 -0.00000000000E+00 -0.10000000000E+04  0.10000000000E+04  0.00000000000E+00 0.  1.
    9000005    2    1    2  501    0 -0.45772994853E+02 -0.54440575341E+02 -0.83304634721E+03  0.10461256889E+04  0.62877165733E+03 0.  0.
         13    1    3    3    0    0 -0.26832578159E+03 -0.18055042758E+03 -0.24784817552E+03  0.40746275912E+03  0.00000000000E+00 0.  1.
          3    1    3    3  501    0  0.22255278673E+03  0.12610985224E+03 -0.58519817169E+03  0.63866292977E+03  0.00000000000E+00 0.  1.
         -3    1    1    2    0  502  0.45772994853E+02  0.54440575341E+02 -0.39479493206E+02  0.81348470699E+02  0.00000000000E+00 0. -1.
<mgrwt>
<rscale>  1 0.63278175E+03</rscale>
<asrwt>0</asrwt>
<pdfrwt beam="1">  1       21 0.19611409E-01 0.63278175E+03</pdfrwt>
<pdfrwt beam="2">0</pdfrwt>
<totfact> 0.23317695E+03</totfact>
</mgrwt>
</event>
<event>
 6    1  0.1364923E-004  0.6098299E+03  0.7818608E-02  0.9885219E-01
         21   -1    0    0  501  502  0.00000000000E+00  0.00000000000E+00  0.20072903160E+03  0.20072903160E+03  0.00000000000E+00 0.  1.
         13   -1    0    0    0    0 -0.00000000000E+00 -0.00000000000E+00 -0.10000000000E+04  0.10000000000E+04  0.00000000000E+00 0.  1.
    9000005    2    1    2  501    0 -0.36174179974E+02  0.11951957106E+00 -0.90369898289E+03  0.10902129885E+04  0.60875604552E+03 0.  0.
         13    1    3    3    0    0  0.21693592912E+03  0.18493906523E+03 -0.32664773732E+03  0.43354630605E+03  0.00000000000E+00 0.  1.
          3    1    3    3  501    0 -0.25311010909E+03 -0.18481954566E+03 -0.57705124557E+03  0.65666668241E+03  0.00000000000E+00 0.  1.
         -1    1    1    2    0  502  0.36174179974E+02 -0.11951957106E+00  0.10442801449E+03  0.11051604314E+03  0.00000000000E+00 0. -1.
<mgrwt>
<rscale>  1 0.60982990E+03</rscale>
<asrwt>0</asrwt>
<pdfrwt beam="1">  1       21 0.30881389E-01 0.60982990E+03</pdfrwt>
<pdfrwt beam="2">0</pdfrwt>
<totfact> 0.96011787E+02</totfact>
</mgrwt>
</event>
<event>
 6    1  0.1364923E-004  0.6510618E+03  0.7818608E-02  0.9804789E-01
         21   -1    0    0  501  502  0.00000000000E+00  0.00000000000E+00  0.12390259833E+03  0.12390259833E+03  0.00000000000E+00 0.  1.
         13   -1    0    0    0    0 -0.00000000000E+00 -0.00000000000E+00 -0.10000000000E+04  0.10000000000E+04  0.00000000000E+00 0.  1.
    9000005    2    1    2  501    0 -0.21974166845E+02 -0.83356816159E+01 -0.88507484309E+03  0.10987442587E+04  0.65063747251E+03 0.  0.
         13    1    3    3    0    0 -0.85655225174E+02  0.27228899098E+03 -0.70166670074E+03  0.75750529446E+03  0.00000000000E+00 0.  1.
          1    1    3    3  501    0  0.63681058329E+02 -0.28062467260E+03 -0.18340814236E+03  0.34123896428E+03  0.00000000000E+00 0.  1.
         -1    1    1    2    0  502  0.21974166845E+02  0.83356816159E+01  0.89774414190E+01  0.25158339591E+02  0.00000000000E+00 0. -1.
<mgrwt>
<rscale>  1 0.65106180E+03</rscale>
<asrwt>0</asrwt>
<pdfrwt beam="1">  1       21 0.19061938E-01 0.65106180E+03</pdfrwt>
<pdfrwt beam="2">0</pdfrwt>
<totfact> 0.24602092E+03</totfact>
</mgrwt>
</event>
<event>
 6    1  0.1364923E-004  0.6632065E+03  0.7818608E-02  0.9782309E-01
         21   -1    0    0  501  502  0.00000000000E+00  0.00000000000E+00  0.12527141169E+03  0.12527141169E+03  0.00000000000E+00 0.  1.
         13   -1    0    0    0    0 -0.00000000000E+00 -0.00000000000E+00 -0.10000000000E+04  0.10000000000E+04  0.00000000000E+00 0.  1.
    9000005    2    1    2  501    0  0.19942365304E+02 -0.37472919163E+02 -0.84109307289E+03  0.10711117819E+04  0.66184663962E+03 0.  0.
         13    1    3    3    0    0 -0.22962093307E+03  0.40659490536E+02 -0.76352561286E+03  0.79834223774E+03  0.00000000000E+00 0.  1.
          1    1    3    3  501    0  0.24956329838E+03 -0.78132409699E+02 -0.77567460033E+02  0.27276954412E+03  0.00000000000E+00 0.  1.
         -1    1    1    2    0  502 -0.19942365304E+02  0.37472919163E+02 -0.33635515423E+02  0.54159629821E+02  0.00000000000E+00 0. -1.
<mgrwt>
<rscale>  1 0.66320652E+03</rscale>
<asrwt>0</asrwt>
<pdfrwt beam="1">  1       21 0.19272524E-01 0.66320652E+03</pdfrwt>
<pdfrwt beam="2">0</pdfrwt>
<totfact> 0.24080444E+03</totfact>
</mgrwt>
</event>
<event>
 6    1  0.1364923E-004  0.6488557E+03  0.7818608E-02  0.9808929E-01
         21   -1    0    0  501  502  0.00000000000E+00  0.00000000000E+00  0.13831033536E+03  0.13831033536E+03  0.00000000000E+00 0.  1.
         13   -1    0    0    0    0 -0.00000000000E+00 -0.00000000000E+00 -0.10000000000E+04  0.10000000000E+04  0.00000000000E+00 0.  1.
    9000005    2    1    2  501    0  0.27673484214E+02 -0.83626864359E+01 -0.88760877837E+03  0.10994830678E+04  0.64821132094E+03 0.  0.
         13    1    3    3    0    0 -0.10804670929E+03  0.28310708393E+03 -0.58064261257E+03  0.65495767488E+03  0.00000000000E+00 0.  1.
          3    1    3    3  501    0  0.13572019351E+03 -0.29146977037E+03 -0.30696616580E+03  0.44452539288E+03  0.00000000000E+00 0.  1.
         -1    1    1    2    0  502 -0.27673484214E+02  0.83626864359E+01  0.25919113732E+02  0.38827267604E+02  0.00000000000E+00 0. -1.
<mgrwt>
<rscale>  1 0.64885566E+03</rscale>
<asrwt>0</asrwt>
<pdfrwt beam="1">  1       21 0.21278513E-01 0.64885566E+03</pdfrwt>
<pdfrwt beam="2">0</pdfrwt>
<totfact> 0.19922137E+03</totfact>
</mgrwt>
</event>
<event>
 6    1  0.1364923E-004  0.6397727E+03  0.7818608E-02  0.9826161E-01
         21   -1    0    0  501  502  0.00000000000E+00  0.00000000000E+00  0.11930393088E+03  0.11930393088E+03  0.00000000000E+00 0.  1.
         13   -1    0    0    0    0 -0.00000000000E+00 -0.00000000000E+00 -0.10000000000E+04  0.10000000000E+04  0.00000000000E+00 0.  1.
    9000005    2    1    2  501    0 -0.20956422503E+02 -0.42799546353E+02 -0.84442397257E+03  0.10594153861E+04  0.63799540904E+03 0.  0.
         13    1    3    3    0    0 -0.21806499038E+03  0.15623049537E+03 -0.68830619343E+03  0.73873251155E+03  0.00000000000E+00 0.  1.
          3    1    3    3  501    0  0.19710856788E+03 -0.19903004172E+03 -0.15611777915E+03  0.32068287451E+03  0.00000000000E+00 0.  1.
         -3    1    1    2    0  502  0.20956422503E+02  0.42799546353E+02 -0.36272096550E+02  0.59888544817E+02  0.00000000000E+00 0. -1.
<mgrwt>
<rscale>  1 0.63977271E+03</rscale>
<asrwt>0</asrwt>
<pdfrwt beam="1">  1       21 0.18354450E-01 0.63977271E+03</pdfrwt>
<pdfrwt beam="2">0</pdfrwt>
<totfact> 0.26450304E+03</totfact>
</mgrwt>
</event>
<event>
 6    1  0.1364923E-004  0.7024896E+03  0.7818608E-02  0.9712984E-01
         21   -1    0    0  501  502  0.00000000000E+00  0.00000000000E+00  0.24623463599E+03  0.24623463599E+03  0.00000000000E+00 0.  1.
         13   -1    0    0    0    0 -0.00000000000E+00 -0.00000000000E+00 -0.10000000000E+04  0.10000000000E+04  0.00000000000E+00 0.  1.
    9000005    2    1    2  501    0 -0.22250775101E+02  0.58929071889E+01 -0.87541454798E+03  0.11224269330E+04  0.70211235987E+03 0.  0.
         13    1    3    3    0    0 -0.23032921194E+03 -0.12764082496E+03 -0.59629163813E+02  0.26999882082E+03  0.00000000000E+00 0.  1.
          3    1    3    3  501    0  0.20807843684E+03  0.13353373215E+03 -0.81578538416E+03  0.85242811223E+03  0.00000000000E+00 0.  1.
         -3    1    1    2    0  502  0.22250775101E+02 -0.58929071889E+01  0.12164918397E+03  0.12380770295E+03  0.00000000000E+00 0. -1.
<mgrwt>
<rscale>  1 0.70248957E+03</rscale>
<asrwt>0</asrwt>
<pdfrwt beam="1">  1       21 0.37882251E-01 0.70248957E+03</pdfrwt>
<pdfrwt beam="2">0</pdfrwt>
<totfact> 0.62951428E+02</totfact>
</mgrwt>
</event>
<event>
 6    1  0.1364923E-004  0.6575436E+03  0.7818608E-02  0.9792726E-01
         21   -1    0    0  501  502  0.00000000000E+00  0.00000000000E+00  0.24624724205E+03  0.24624724205E+03  0.00000000000E+00 0.  1.
         13   -1    0    0    0    0 -0.00000000000E+00 -0.00000000000E+00 -0.10000000000E+04  0.10000000000E+04  0.00000000000E+00 0.  1.
    9000005    2    1    2  501    0 -0.77875919003E+02  0.74820913504E+01 -0.87951322337E+03  0.10981380421E+04  0.65287288881E+03 0.  0.
         13    1    3    3    0    0 -0.22246458624E+03 -0.16296649195E+03 -0.82245415305E+03  0.86745570694E+03  0.00000000000E+00 0.  1.
          1    1    3    3  501    0  0.14458866724E+03  0.17044858330E+03 -0.57059070318E+02  0.23068233515E+03  0.00000000000E+00 0.  1.
         -1    1    1    2    0  502  0.77875919003E+02 -0.74820913504E+01  0.12576046542E+03  0.14810919996E+03  0.00000000000E+00 0. -1.
<mgrwt>
<rscale>  1 0.65754365E+03</rscale>
<asrwt>0</asrwt>
<pdfrwt beam="1">  1       21 0.37884190E-01 0.65754365E+03</pdfrwt>
<pdfrwt beam="2">0</pdfrwt>
<totfact> 0.63154936E+02</totfact>
</mgrwt>
</event>
<event>
 6    1  0.1364923E-004  0.6679622E+03  0.7818608E-02  0.9773646E-01
         21   -1    0    0  501  502  0.00000000000E+00  0.00000000000E+00  0.20848881045E+03  0.20848881045E+03  0.00000000000E+00 0. -1.
         13   -1    0    0    0    0 -0.00000000000E+00 -0.00000000000E+00 -0.10000000000E+04  0.10000000000E+04  0.00000000000E+00 0.  1.
    9000005    2    1    2  501    0  0.12817556453E+03 -0.66942356797E+02 -0.82354713847E+03  0.10603788631E+04  0.65212206647E+03 0.  0.
         13    1    3    3    0    0 -0.54670670616E+02  0.27457608106E+03 -0.32324290726E+03  0.42762937646E+03  0.00000000000E+00 0.  1.
          1    1    3    3  501    0  0.18284623515E+03 -0.34151843785E+03 -0.50030423121E+03  0.63274948666E+03  0.00000000000E+00 0.  1.
         -3    1    1    2    0  502 -0.12817556453E+03  0.66942356797E+02  0.32035948924E+02  0.14810994733E+03  0.00000000000E+00 0. -1.
<mgrwt>
<rscale>  1 0.66796216E+03</rscale>
<asrwt>0</asrwt>
<pdfrwt beam="1">  1       21 0.32075201E-01 0.66796216E+03</pdfrwt>
<pdfrwt beam="2">0</pdfrwt>
<totfact> 0.88610119E+02</totfact>
</mgrwt>
</event>
<event>
 6    1  0.1364923E-004  0.6538980E+03  0.7818608E-02  0.9799492E-01
         21   -1    0    0  501  502  0.00000000000E+00  0.00000000000E+00  0.16176674367E+03  0.16176674367E+03  0.00000000000E+00 0.  1.
         13   -1    0    0    0    0 -0.00000000000E+00 -0.00000000000E+00 -0.10000000000E+04  0.10000000000E+04  0.00000000000E+00 0.  1.
    9000005    2    1    2  501    0  0.37719025624E+02 -0.22848221121E+02 -0.88311074789E+03  0.10988481029E+04  0.65240922294E+03 0.  0.
         13    1    3    3    0    0  0.10696748529E+03 -0.15839823475E+03  0.11405534094E+02  0.19147357492E+03  0.00000000000E+00 0.  1.
          1    1    3    3  501    0 -0.69248459668E+02  0.13555001363E+03 -0.89451628199E+03  0.90737452802E+03  0.00000000000E+00 0.  1.
         -3    1    1    2    0  502 -0.37719025624E+02  0.22848221121E+02  0.44877491563E+02  0.62918640730E+02  0.00000000000E+00 0. -1.
<mgrwt>
<rscale>  1 0.65389797E+03</rscale>
<asrwt>0</asrwt>
<pdfrwt beam="1">  1       21 0.24887191E-01 0.65389797E+03</pdfrwt>
<pdfrwt beam="2">0</pdfrwt>
<totfact> 0.14688407E+03</totfact>
</mgrwt>
</event>
<event>
 6    1  0.1364923E-004  0.6797267E+03  0.7818608E-02  0.9752544E-01
         21   -1    0    0  501  502  0.00000000000E+00  0.00000000000E+00  0.28321838785E+03  0.28321838785E+03  0.00000000000E+00 0. -1.
         13   -1    0    0    0    0 -0.00000000000E+00 -0.00000000000E+00 -0.10000000000E+04  0.10000000000E+04  0.00000000000E+00 0.  1.
    9000005    2    1    2  501    0 -0.94557104638E+02 -0.17384107482E+03 -0.81585716679E+03  0.10619092582E+04  0.65028193174E+03 0.  0.
         13    1    3    3    0    0  0.42423974583E+02  0.24002682797E+03 -0.28766412470E+03  0.37704551503E+03  0.00000000000E+00 0.  1.
          3    1    3    3  501    0 -0.13698107922E+03 -0.41386790279E+03 -0.52819304209E+03  0.68486374319E+03  0.00000000000E+00 0.  1.
         -3    1    1    2    0  502  0.94557104638E+02  0.17384107482E+03  0.99075554644E+02  0.22130912963E+03  0.00000000000E+00 0. -1.
<mgrwt>
<rscale>  1 0.67972668E+03</rscale>
<asrwt>0</asrwt>
<pdfrwt beam="1">  1       21 0.43572058E-01 0.67972668E+03</pdfrwt>
<pdfrwt beam="2">0</pdfrwt>
<totfact> 0.47115944E+02</totfact>
</mgrwt>
</event>
<event>
 6    1  0.1364923E-004  0.6673455E+03  0.7818608E-02  0.9774765E-01
         21   -1    0    0  501  502  0.00000000000E+00  0.00000000000E+00  0.18066321806E+03  0.18066321806E+03  0.00000000000E+00 0.  1.
         13   -1    0    0    0    0 -0.00000000000E+00 -0.00000000000E+00 -0.10000000000E+04  0.10000000000E+04  0.00000000000E+00 0.  1.
    9000005    2    1    2  501    0  0.27684599165E+01  0.18248823370E+03 -0.65465838578E+03  0.93484093679E+03  0.64190369621E+03 0.  0.
         13    1    3    3    0    0  0.97597998184E+02  0.26232129688E+03 -0.11797072521E+02  0.28013747155E+03  0.00000000000E+00 0.  1.
          3    1    3    3  501    0 -0.94829538267E+02 -0.79833063180E+02 -0.64286131326E+03  0.65470346524E+03  0.00000000000E+00 0.  1.
         -3    1    1    2    0  502 -0.27684599165E+01 -0.18248823370E+03 -0.16467839616E+03  0.24582228127E+03  0.00000000000E+00 0. -1.
<mgrwt>
<rscale>  1 0.66734547E+03</rscale>
<asrwt>0</asrwt>
<pdfrwt beam="1">  1       21 0.27794340E-01 0.66734547E+03</pdfrwt>
<pdfrwt beam="2">0</pdfrwt>
<totfact> 0.11804536E+03</totfact>
</mgrwt>
</event>
<event>
 6    1  0.1364923E-004  0.6880728E+03  0.7818608E-02  0.9737850E-01
         21   -1    0    0  501  502  0.00000000000E+00  0.00000000000E+00  0.28825115098E+03  0.28825115098E+03  0.00000000000E+00 0. -1.
         13   -1    0    0    0    0 -0.00000000000E+00 -0.00000000000E+00 -0.10000000000E+04  0.10000000000E+04  0.00000000000E+00 0.  1.
    9000005    2    1    2  501    0 -0.84194667850E+02 -0.24016561693E+03 -0.76428929813E+03  0.10283881785E+04  0.63927759924E+03 0.  0.
         13    1    3    3    0    0  0.13292620814E+03 -0.19165432664E+03 -0.77130923874E+03  0.80580313942E+03  0.00000000000E+00 0.  1.
          1    1    3    3  501    0 -0.21712087599E+03 -0.48511290297E+02  0.70199406156E+01  0.22258503913E+03  0.00000000000E+00 0.  1.
         -1    1    1    2    0  502  0.84194667850E+02  0.24016561693E+03  0.52540449110E+02  0.25986297244E+03  0.00000000000E+00 0. -1.
<mgrwt>
<rscale>  1 0.68807275E+03</rscale>
<asrwt>0</asrwt>
<pdfrwt beam="1">  1       21 0.44346330E-01 0.68807275E+03</pdfrwt>
<pdfrwt beam="2">0</pdfrwt>
<totfact> 0.45368620E+02</totfact>
</mgrwt>
</event>
<event>
 6    1  0.1364923E-004  0.5945760E+03  0.7818608E-02  0.9916723E-01
         21   -1    0    0  501  502  0.00000000000E+00  0.00000000000E+00  0.35961520766E+03  0.35961520766E+03  0.00000000000E+00 0. -1.
         13   -1    0    0    0    0 -0.00000000000E+00 -0.00000000000E+00 -0.10000000000E+04  0.10000000000E+04  0.00000000000E+00 0.  1.
    9000005    2    1    2  501    0 -0.20955984209E+02  0.21699934980E+02 -0.91070661272E+03  0.10876153418E+04  0.59381020270E+03 0.  0.
         13    1    3    3    0    0 -0.15817082106E+01  0.89556508165E+02  0.64172090034E+02  0.11018587521E+03  0.00000000000E+00 0.  1.
          1    1    3    3  501    0 -0.19374275998E+02 -0.67856573185E+02 -0.97487870275E+03  0.97742946660E+03  0.00000000000E+00 0.  1.
         -3    1    1    2    0  502  0.20955984209E+02 -0.21699934980E+02  0.27032182038E+03  0.27199986585E+03  0.00000000000E+00 0. -1.
<mgrwt>
<rscale>  1 0.59457598E+03</rscale>
<asrwt>0</asrwt>
<pdfrwt beam="1">  1       21 0.55325415E-01 0.59457598E+03</pdfrwt>
<pdfrwt beam="2">0</pdfrwt>
<totfact> 0.28511997E+02</totfact>
</mgrwt>
</event>
<event>
 6    1  0.1364923E-004  0.6522627E+03  0.7818608E-02  0.9802543E-01
         21   -1    0    0  501  502  0.00000000000E+00  0.00000000000E+00  0.15544726770E+03  0.15544726770E+03  0.00000000000E+00 0. -1.
         13   -1    0    0    0    0 -0.00000000000E+00 -0.00000000000E+00 -0.10000000000E+04  0.10000000000E+04  0.00000000000E+00 0.  1.
    9000005    2    1    2  501    0 -0.12564074454E+02  0.65529681056E+02 -0.86708090659E+03  0.10850234528E+04  0.64884096628E+03 0.  0.
         13    1    3    3    0    0  0.14112504011E+03 -0.14538372346E+03 -0.78608046039E+03  0.81177287107E+03  0.00000000000E+00 0.  1.
          3    1    3    3  501    0 -0.15368911457E+03  0.21091340451E+03 -0.81000446199E+02  0.27325058175E+03  0.00000000000E+00 0.  1.
         -1    1    1    2    0  502  0.12564074454E+02 -0.65529681056E+02  0.22528174295E+02  0.70423814887E+02  0.00000000000E+00 0. -1.
<mgrwt>
<rscale>  1 0.65226267E+03</rscale>
<asrwt>0</asrwt>
<pdfrwt beam="1">  1       21 0.23914964E-01 0.65226267E+03</pdfrwt>
<pdfrwt beam="2">0</pdfrwt>
<totfact> 0.15880062E+03</totfact>
</mgrwt>
</event>
<event>
 6    1  0.1364923E-004  0.7082374E+03  0.7818608E-02  0.9703248E-01
         21   -1    0    0  501  502  0.00000000000E+00  0.00000000000E+00  0.16928450332E+03  0.16928450332E+03  0.00000000000E+00 0.  1.
         13   -1    0    0    0    0 -0.00000000000E+00 -0.00000000000E+00 -0.10000000000E+04  0.10000000000E+04  0.00000000000E+00 0.  1.
    9000005    2    1    2  501    0 -0.36787544563E+02  0.98158752509E+02 -0.77752976116E+03  0.10517379738E+04  0.70043684370E+03 0.  0.
         13    1    3    3    0    0  0.14275102246E+03 -0.26611022088E+03 -0.32106936308E+03  0.44076982653E+03  0.00000000000E+00 0.  1.
          3    1    3    3  501    0 -0.17953856703E+03  0.36426897339E+03 -0.45646039808E+03  0.61096814732E+03  0.00000000000E+00 0.  1.
         -3    1    1    2    0  502  0.36787544563E+02 -0.98158752509E+02 -0.53185735515E+02  0.11754652947E+03  0.00000000000E+00 0. -1.
<mgrwt>
<rscale>  1 0.70823742E+03</rscale>
<asrwt>0</asrwt>
<pdfrwt beam="1">  1       21 0.26043769E-01 0.70823742E+03</pdfrwt>
<pdfrwt beam="2">0</pdfrwt>
<totfact> 0.13396625E+03</totfact>
</mgrwt>
</event>
<event>
 6    1  0.1364923E-004  0.6527158E+03  0.7818608E-02  0.9801697E-01
         21   -1    0    0  501  502  0.00000000000E+00  0.00000000000E+00  0.18582859315E+03  0.18582859315E+03  0.00000000000E+00 0.  1.
         13   -1    0    0    0    0 -0.00000000000E+00 -0.00000000000E+00 -0.10000000000E+04  0.10000000000E+04  0.00000000000E+00 0.  1.
    9000005    2    1    2  501    0 -0.22766114580E+02 -0.28153049383E+02 -0.88889115934E+03  0.11027988902E+04  0.65171083226E+03 0.  0.
         13    1    3    3    0    0  0.20312481737E+01  0.29010193018E+03 -0.22845916729E+03  0.36926527996E+03  0.00000000000E+00 0.  1.
          1    1    3    3  501    0 -0.24797362753E+02 -0.31825497956E+03 -0.66043199205E+03  0.73353361023E+03  0.00000000000E+00 0.  1.
         -3    1    1    2    0  502  0.22766114580E+02  0.28153049383E+02  0.74719752493E+02  0.83029702969E+02  0.00000000000E+00 0. -1.
<mgrwt>
<rscale>  1 0.65271579E+03</rscale>
<asrwt>0</asrwt>
<pdfrwt beam="1">  1       21 0.28589014E-01 0.65271579E+03</pdfrwt>
<pdfrwt beam="2">0</pdfrwt>
<totfact> 0.11170596E+03</totfact>
</mgrwt>
</event>
<event>
 6    1  0.1364923E-004  0.6491455E+03  0.7818608E-02  0.9808384E-01
         21   -1    0    0  501  502  0.00000000000E+00  0.00000000000E+00  0.12249515589E+03  0.12249515589E+03  0.00000000000E+00 0.  1.
         13   -1    0    0    0    0 -0.00000000000E+00 -0.00000000000E+00 -0.10000000000E+04  0.10000000000E+04  0.00000000000E+00 0.  1.
    9000005    2    1    2  501    0  0.46710182029E+02 -0.13640032104E+02 -0.83670842712E+03  0.10589952408E+04  0.64731911479E+03 0.  0.
         13    1    3    3    0    0 -0.28751515050E+03 -0.17213764192E+02 -0.23941785873E+03  0.37454263645E+03  0.00000000000E+00 0.  1.
          3    1    3    3  501    0  0.33422533253E+03  0.35737320877E+01 -0.59729056839E+03  0.68445260431E+03  0.00000000000E+00 0.  1.
         -1    1    1    2    0  502 -0.46710182029E+02  0.13640032104E+02 -0.40796416993E+02  0.63499915121E+02  0.00000000000E+00 0. -1.
<mgrwt>
<rscale>  1 0.64914554E+03</rscale>
<asrwt>0</asrwt>
<pdfrwt beam="1">  1       21 0.18845408E-01 0.64914554E+03</pdfrwt>
<pdfrwt beam="2">0</pdfrwt>
<totfact> 0.25145991E+03</totfact>
</mgrwt>
</event>
<event>
 6    1  0.1364923E-004  0.6580439E+03  0.7818608E-02  0.9791801E-01
         21   -1    0    0  501  502  0.00000000000E+00  0.00000000000E+00  0.18604708647E+03  0.18604708647E+03  0.00000000000E+00 0.  1.
         13   -1    0    0    0    0 -0.00000000000E+00 -0.00000000000E+00 -0.10000000000E+04  0.10000000000E+04  0.00000000000E+00 0.  1.
    9000005    2    1    2  501    0  0.10931826270E+03 -0.58978967644E+02 -0.83173389872E+03  0.10605673486E+04  0.64621422256E+03 0.  0.
         13    1    3    3    0    0  0.19046132401E+03 -0.26606996592E+03 -0.75904563209E+03  0.82657063479E+03  0.00000000000E+00 0.  1.
          1    1    3    3  501    0 -0.81143061310E+02  0.20709099827E+03 -0.72688266633E+02  0.23399671380E+03  0.00000000000E+00 0.  1.
         -1    1    1    2    0  502 -0.10931826270E+03  0.58978967644E+02  0.17780985189E+02  0.12547973788E+03  0.00000000000E+00 0. -1.
<mgrwt>
<rscale>  1 0.65804394E+03</rscale>
<asrwt>0</asrwt>
<pdfrwt beam="1">  1       21 0.28622628E-01 0.65804394E+03</pdfrwt>
<pdfrwt beam="2">0</pdfrwt>
<totfact> 0.11140948E+03</totfact>
</mgrwt>
</event>
<event>
 6    1  0.1364923E-004  0.6455101E+03  0.7818608E-02  0.9815241E-01
         21   -1    0    0  501  502  0.00000000000E+00  0.00000000000E+00  0.18655631818E+03  0.18655631818E+03  0.00000000000E+00 0. -1.
         13   -1    0    0    0    0 -0.00000000000E+00 -0.00000000000E+00 -0.10000000000E+04  0.10000000000E+04  0.00000000000E+00 0.  1.
    9000005    2    1    2  501    0  0.68160114334E+02 -0.16160116583E+02 -0.87903648598E+03  0.10905908738E+04  0.64169802852E+03 0.  0.
         13    1    3    3    0    0  0.25398175519E+03  0.95296960923E+02 -0.11190960083E+03  0.29344846479E+03  0.00000000000E+00 0.  1.
          3    1    3    3  501    0 -0.18582164086E+03 -0.11145707751E+03 -0.76712688515E+03  0.79714240902E+03  0.00000000000E+00 0.  1.
         -3    1    1    2    0  502 -0.68160114334E+02  0.16160116583E+02  0.65592804161E+02  0.95965444363E+02  0.00000000000E+00 0. -1.
<mgrwt>
<rscale>  1 0.64551012E+03</rscale>
<asrwt>0</asrwt>
<pdfrwt beam="1">  1       21 0.28700971E-01 0.64551012E+03</pdfrwt>
<pdfrwt beam="2">0</pdfrwt>
<totfact> 0.11088805E+03</totfact>
</mgrwt>
</event>
<event>
 6    1  0.1364923E-004  0.6490014E+03  0.7818608E-02  0.9808655E-01
         21   -1    0    0  501  502  0.00000000000E+00  0.00000000000E+00  0.18646405016E+03  0.18646405016E+03  0.00000000000E+00 0.  1.
         13   -1    0    0    0    0 -0.00000000000E+00 -0.00000000000E+00 -0.10000000000E+04  0.10000000000E+04  0.00000000000E+00 0.  1.
    9000005    2    1    2  501    0  0.52231839713E+02 -0.40759655541E+02 -0.87945898362E+03  0.10930008971E+04  0.64561082904E+03 0.  0.
         13    1    3    3    0    0  0.12198224705E+03  0.28795391257E+03 -0.43891168544E+03  0.53892540483E+03  0.00000000000E+00 0.  1.
          1    1    3    3  501    0 -0.69750407337E+02 -0.32871356811E+03 -0.44054729818E+03  0.55407549225E+03  0.00000000000E+00 0.  1.
         -1    1    1    2    0  502 -0.52231839713E+02  0.40759655541E+02  0.65923033782E+02  0.93463153075E+02  0.00000000000E+00 0. -1.
<mgrwt>
<rscale>  1 0.64900143E+03</rscale>
<asrwt>0</asrwt>
<pdfrwt beam="1">  1       21 0.28686776E-01 0.64900143E+03</pdfrwt>
<pdfrwt beam="2">0</pdfrwt>
<totfact> 0.11097391E+03</totfact>
</mgrwt>
</event>
<event>
 6    1  0.1364923E-004  0.6522121E+03  0.7818608E-02  0.9802637E-01
         21   -1    0    0  501  502  0.00000000000E+00  0.00000000000E+00  0.28555547274E+03  0.28555547274E+03  0.00000000000E+00 0.  1.
         13   -1    0    0    0    0 -0.00000000000E+00 -0.00000000000E+00 -0.10000000000E+04  0.10000000000E+04  0.00000000000E+00 0.  1.
    9000005    2    1    2  501    0  0.31146659481E+02 -0.13980906527E+02 -0.89185390703E+03  0.11048909544E+04  0.65131793279E+03 0.  0.
         13    1    3    3    0    0  0.21376218519E+03  0.25136655671E+03 -0.44031565822E+03  0.55023385621E+03  0.00000000000E+00 0.  1.
          3    1    3    3  501    0 -0.18261552571E+03 -0.26534746323E+03 -0.45153824881E+03  0.55465709822E+03  0.00000000000E+00 0.  1.
         -3    1    1    2    0  502 -0.31146659481E+02  0.13980906527E+02  0.17740937977E+03  0.18066451831E+03  0.00000000000E+00 0. -1.
<mgrwt>
<rscale>  1 0.65221210E+03</rscale>
<asrwt>0</asrwt>
<pdfrwt beam="1">  1       21 0.43931610E-01 0.65221210E+03</pdfrwt>
<pdfrwt beam="2">0</pdfrwt>
<totfact> 0.46416470E+02</totfact>
</mgrwt>
</event>
<event>
 6    1  0.1364923E-004  0.6566252E+03  0.7818608E-02  0.9794426E-01
         21   -1    0    0  501  502  0.00000000000E+00  0.00000000000E+00  0.13185556959E+03  0.13185556959E+03  0.00000000000E+00 0.  1.
         13   -1    0    0    0    0 -0.00000000000E+00 -0.00000000000E+00 -0.10000000000E+04  0.10000000000E+04  0.00000000000E+00 0.  1.
    9000005    2    1    2  501    0 -0.10491240790E+02 -0.19354984067E+02 -0.88649791935E+03  0.11031931884E+04  0.65625602343E+03 0.  0.
         13    1    3    3    0    0  0.16252542570E+03 -0.12985334365E+03 -0.87301595407E+03  0.89745933664E+03  0.00000000000E+00 0.  1.
          1    1    3    3  501    0 -0.17301666649E+03  0.11049835958E+03 -0.13481965276E+02  0.20573385172E+03  0.00000000000E+00 0.  1.
         -3    1    1    2    0  502  0.10491240790E+02  0.19354984067E+02  0.18353488937E+02  0.28662381229E+02  0.00000000000E+00 0. -1.
<mgrwt>
<rscale>  1 0.65662520E+03</rscale>
<asrwt>0</asrwt>
<pdfrwt beam="1">  1       21 0.20285472E-01 0.65662520E+03</pdfrwt>
<pdfrwt beam="2">0</pdfrwt>
<totfact> 0.21834650E+03</totfact>
</mgrwt>
</event>
<event>
 6    1  0.1364923E-004  0.6890482E+03  0.7818608E-02  0.9736147E-01
         21   -1    0    0  501  502  0.00000000000E+00  0.00000000000E+00  0.32898479713E+03  0.32898479713E+03  0.00000000000E+00 0. -1.
         13   -1    0    0    0    0 -0.00000000000E+00 -0.00000000000E+00 -0.10000000000E+04  0.10000000000E+04  0.00000000000E+00 0.  1.
    9000005    2    1    2  501    0  0.11849181226E+02 -0.21559611318E+03 -0.81667571312E+03  0.10685254503E+04  0.65434343459E+03 0.  0.
         13    1    3    3    0    0 -0.24665168533E+03  0.48671114301E+02 -0.11722878808E+03  0.27739596247E+03  0.00000000000E+00 0.  1.
          1    1    3    3  501    0  0.25850086655E+03 -0.26426722749E+03 -0.69944692504E+03  0.79112948781E+03  0.00000000000E+00 0.  1.
         -1    1    1    2    0  502 -0.11849181226E+02  0.21559611318E+03  0.14566051024E+03  0.26045934685E+03  0.00000000000E+00 0. -1.
<mgrwt>
<rscale>  1 0.68904820E+03</rscale>
<asrwt>0</asrwt>
<pdfrwt beam="1">  1       21 0.50613044E-01 0.68904820E+03</pdfrwt>
<pdfrwt beam="2">0</pdfrwt>
<totfact> 0.34235474E+02</totfact>
</mgrwt>
</event>
<event>
 6    1  0.1364923E-004  0.6475925E+03  0.7818608E-02  0.9811307E-01
         21   -1    0    0  501  502  0.00000000000E+00  0.00000000000E+00  0.17296611763E+03  0.17296611763E+03  0.00000000000E+00 0.  1.
         13   -1    0    0    0    0 -0.00000000000E+00 -0.00000000000E+00 -0.10000000000E+04  0.10000000000E+04  0.00000000000E+00 0.  1.
    9000005    2    1    2  501    0 -0.25666160274E+02  0.17570245497E+03 -0.70627173295E+03  0.95822534088E+03  0.62277278255E+03 0.  0.
         13    1    3    3    0    0 -0.27070846915E+03 -0.49315748831E+02 -0.48830269783E+03  0.56049499825E+03  0.00000000000E+00 0.  1.
          1    1    3    3  501    0  0.24504230888E+03  0.22501820380E+03 -0.21796903513E+03  0.39773034264E+03  0.00000000000E+00 0.  1.
         -1    1    1    2    0  502  0.25666160274E+02 -0.17570245497E+03 -0.12076214942E+03  0.21474077674E+03  0.00000000000E+00 0. -1.
<mgrwt>
<rscale>  1 0.64759250E+03</rscale>
<asrwt>0</asrwt>
<pdfrwt beam="1">  1       21 0.26610171E-01 0.64759250E+03</pdfrwt>
<pdfrwt beam="2">0</pdfrwt>
<totfact> 0.12881296E+03</totfact>
</mgrwt>
</event>
<event>
 6    1  0.1364923E-004  0.6586653E+03  0.7818608E-02  0.9790654E-01
         21   -1    0    0  501  502  0.00000000000E+00  0.00000000000E+00  0.14108532363E+03  0.14108532363E+03  0.00000000000E+00 0.  1.
         13   -1    0    0    0    0 -0.00000000000E+00 -0.00000000000E+00 -0.10000000000E+04  0.10000000000E+04  0.00000000000E+00 0.  1.
    9000005    2    1    2  501    0 -0.26091766009E+02 -0.69334635909E+02 -0.83441832841E+03  0.10630587701E+04  0.65448600439E+03 0.  0.
         13    1    3    3    0    0  0.16819555010E+02  0.83105109785E+02 -0.89089835338E+03  0.89492414917E+03  0.00000000000E+00 0.  1.
          1    1    3    3  501    0 -0.42911321019E+02 -0.15243974569E+03  0.56480024977E+02  0.16813462094E+03  0.00000000000E+00 0.  1.
         -1    1    1    2    0  502  0.26091766009E+02  0.69334635909E+02 -0.24496347966E+02  0.78026553517E+02  0.00000000000E+00 0. -1.
<mgrwt>
<rscale>  1 0.65866532E+03</rscale>
<asrwt>0</asrwt>
<pdfrwt beam="1">  1       21 0.21705434E-01 0.65866532E+03</pdfrwt>
<pdfrwt beam="2">0</pdfrwt>
<totfact> 0.19164308E+03</totfact>
</mgrwt>
</event>
<event>
 6    1  0.1364923E-004  0.6546906E+03  0.7818608E-02  0.9798017E-01
         21   -1    0    0  501  502  0.00000000000E+00  0.00000000000E+00  0.13436206329E+03  0.13436206329E+03  0.00000000000E+00 0.  1.
         13   -1    0    0    0    0 -0.00000000000E+00 -0.00000000000E+00 -0.10000000000E+04  0.10000000000E+04  0.00000000000E+00 0.  1.
    9000005    2    1    2  501    0  0.31195422541E+00 -0.22717423418E+02 -0.88748878068E+03  0.11028400389E+04  0.65429629133E+03 0.  0.
         13    1    3    3    0    0 -0.23038943275E+03 -0.21656955305E+03 -0.27016638422E+03  0.41589846982E+03  0.00000000000E+00 0.  1.
          3    1    3    3  501    0  0.23070138698E+03  0.19385212963E+03 -0.61732239645E+03  0.68694156904E+03  0.00000000000E+00 0.  1.
         -3    1    1    2    0  502 -0.31195422541E+00  0.22717423418E+02  0.21850843967E+02  0.31522024431E+02  0.00000000000E+00 0. -1.
<mgrwt>
<rscale>  1 0.65469063E+03</rscale>
<asrwt>0</asrwt>
<pdfrwt beam="1">  1       21 0.20671086E-01 0.65469063E+03</pdfrwt>
<pdfrwt beam="2">0</pdfrwt>
<totfact> 0.21060071E+03</totfact>
</mgrwt>
</event>
<event>
 6    1  0.1364923E-004  0.6390066E+03  0.7818608E-02  0.9827629E-01
         21   -1    0    0  501  502  0.00000000000E+00  0.00000000000E+00  0.20313474351E+03  0.20313474351E+03  0.00000000000E+00 0. -1.
         13   -1    0    0    0    0 -0.00000000000E+00 -0.00000000000E+00 -0.10000000000E+04  0.10000000000E+04  0.00000000000E+00 0.  1.
    9000005    2    1    2  501    0 -0.35012951861E+01  0.38047228575E+02 -0.89392131068E+03  0.10988288073E+04  0.63786329838E+03 0.  0.
         13    1    3    3    0    0  0.73438952908E+02  0.31069507501E+03 -0.65330467394E+03  0.72713939958E+03  0.00000000000E+00 0.  1.
          3    1    3    3  501    0 -0.76940248094E+02 -0.27264784643E+03 -0.24061663675E+03  0.37168940773E+03  0.00000000000E+00 0.  1.
         -1    1    1    2    0  502  0.35012951861E+01 -0.38047228575E+02  0.97056054194E+02  0.10430593620E+03  0.00000000000E+00 0. -1.
<mgrwt>
<rscale>  1 0.63900660E+03</rscale>
<asrwt>0</asrwt>
<pdfrwt beam="1">  1       21 0.31251498E-01 0.63900660E+03</pdfrwt>
<pdfrwt beam="2">0</pdfrwt>
<totfact> 0.93556873E+02</totfact>
</mgrwt>
</event>
<event>
 6    1  0.1364923E-004  0.6268547E+03  0.7818608E-02  0.9851206E-01
         21   -1    0    0  501  502  0.00000000000E+00  0.00000000000E+00  0.16450891544E+03  0.16450891544E+03  0.00000000000E+00 0.  1.
         13   -1    0    0    0    0 -0.00000000000E+00 -0.00000000000E+00 -0.10000000000E+04  0.10000000000E+04  0.00000000000E+00 0.  1.
    9000005    2    1    2  501    0  0.39564825009E+00 -0.65776037750E+02 -0.88334621815E+03  0.10831654616E+04  0.62339412276E+03 0.  0.
         13    1    3    3    0    0  0.26140722727E+02  0.24435809329E+03 -0.64787463368E+03  0.69291828963E+03  0.00000000000E+00 0.  1.
          1    1    3    3  501    0 -0.25745074477E+02 -0.31013413104E+03 -0.23547158447E+03  0.39024717192E+03  0.00000000000E+00 0.  1.
         -1    1    1    2    0  502 -0.39564825009E+00  0.65776037750E+02  0.47855133588E+02  0.81343453888E+02  0.00000000000E+00 0. -1.
<mgrwt>
<rscale>  1 0.62685475E+03</rscale>
<asrwt>0</asrwt>
<pdfrwt beam="1">  1       21 0.25309063E-01 0.62685475E+03</pdfrwt>
<pdfrwt beam="2">0</pdfrwt>
<totfact> 0.14232675E+03</totfact>
</mgrwt>
</event>
<event>
 6    1  0.1364923E-004  0.6650540E+03  0.7818608E-02  0.9778934E-01
         21   -1    0    0  501  502  0.00000000000E+00  0.00000000000E+00  0.21870767056E+03  0.21870767056E+03  0.00000000000E+00 0. -1.
         13   -1    0    0    0    0 -0.00000000000E+00 -0.00000000000E+00 -0.10000000000E+04  0.10000000000E+04  0.00000000000E+00 0.  1.
    9000005    2    1    2  501    0 -0.15132486423E+03 -0.71386654931E+02 -0.81095318205E+03  0.10487811123E+04  0.64366255828E+03 0.  0.
         13    1    3    3    0    0  0.11843962880E+03 -0.25858077925E+03 -0.58416319620E+03  0.64972194427E+03  0.00000000000E+00 0.  1.
          3    1    3    3  501    0 -0.26976449303E+03  0.18719412432E+03 -0.22678998586E+03  0.39905916800E+03  0.00000000000E+00 0.  1.
         -1    1    1    2    0  502  0.15132486423E+03  0.71386654931E+02  0.29660852614E+02  0.16992655829E+03  0.00000000000E+00 0. -1.
<mgrwt>
<rscale>  1 0.66505395E+03</rscale>
<asrwt>0</asrwt>
<pdfrwt beam="1">  1       21 0.33647333E-01 0.66505395E+03</pdfrwt>
<pdfrwt beam="2">0</pdfrwt>
<totfact> 0.80444836E+02</totfact>
</mgrwt>
</event>
<event>
 6    1  0.1364923E-004  0.6474180E+03  0.7818608E-02  0.9811636E-01
         21   -1    0    0  501  502  0.00000000000E+00  0.00000000000E+00  0.16059933929E+03  0.16059933929E+03  0.00000000000E+00 0.  1.
         13   -1    0    0    0    0 -0.00000000000E+00 -0.00000000000E+00 -0.10000000000E+04  0.10000000000E+04  0.00000000000E+00 0.  1.
    9000005    2    1    2  501    0 -0.37894146791E+02  0.57181304457E+02 -0.87084630080E+03  0.10851374534E+04  0.64377352013E+03 0.  0.
         13    1    3    3    0    0  0.20447504797E+03  0.23794967745E+03 -0.27600499410E+03  0.41786223927E+03  0.00000000000E+00 0.  1.
          1    1    3    3  501    0 -0.24236919476E+03 -0.18076837299E+03 -0.59484130670E+03  0.66727521414E+03  0.00000000000E+00 0.  1.
         -3    1    1    2    0  502  0.37894146791E+02 -0.57181304457E+02  0.31445640092E+02  0.75461885885E+02  0.00000000000E+00 0. -1.
<mgrwt>
<rscale>  1 0.64741796E+03</rscale>
<asrwt>0</asrwt>
<pdfrwt beam="1">  1       21 0.24707590E-01 0.64741796E+03</pdfrwt>
<pdfrwt beam="2">0</pdfrwt>
<totfact> 0.14903236E+03</totfact>
</mgrwt>
</event>
<event>
 6    1  0.1364923E-004  0.6846580E+03  0.7818608E-02  0.9743835E-01
         21   -1    0    0  501  502  0.00000000000E+00  0.00000000000E+00  0.67824253337E+03  0.67824253337E+03  0.00000000000E+00 0. -1.
         13   -1    0    0    0    0 -0.00000000000E+00 -0.00000000000E+00 -0.10000000000E+04  0.10000000000E+04  0.00000000000E+00 0.  1.
    9000005    2    1    2  501    0  0.14038396797E+03  0.97140166330E+02 -0.86824254102E+03  0.11057132268E+04  0.66303300028E+03 0.  0.
         13    1    3    3    0    0 -0.17947872992E+03  0.22563739072E+03 -0.61097458671E+03  0.67558477794E+03  0.00000000000E+00 0.  1.
          1    1    3    3  501    0  0.31986269789E+03 -0.12849722439E+03 -0.25726795431E+03  0.43012844884E+03  0.00000000000E+00 0.  1.
         -1    1    1    2    0  502 -0.14038396797E+03 -0.97140166330E+02  0.54648507438E+03  0.57252930659E+03  0.00000000000E+00 0. -1.
<mgrwt>
<rscale>  1 0.68465804E+03</rscale>
<asrwt>0</asrwt>
<pdfrwt beam="1">  1       21 0.10434500E+00 0.68465804E+03</pdfrwt>
<pdfrwt beam="2">0</pdfrwt>
<totfact> 0.64949336E+01</totfact>
</mgrwt>
</event>
<event>
 6    1  0.1364923E-004  0.6514033E+03  0.7818608E-02  0.9804149E-01
         21   -1    0    0  501  502  0.00000000000E+00  0.00000000000E+00  0.28393564989E+03  0.28393564989E+03  0.00000000000E+00 0. -1.
         13   -1    0    0    0    0 -0.00000000000E+00 -0.00000000000E+00 -0.10000000000E+04  0.10000000000E+04  0.00000000000E+00 0.  1.
    9000005    2    1    2  501    0  0.23132797133E+02  0.31714868037E+02 -0.89151898936E+03  0.11041432986E+04  0.65021946776E+03 0.  0.
         13    1    3    3    0    0 -0.28658482973E+03  0.13859893221E+03 -0.36837793822E+03  0.48687044890E+03  0.00000000000E+00 0.  1.
          3    1    3    3  501    0  0.30971762687E+03 -0.10688406418E+03 -0.52314105113E+03  0.61727284968E+03  0.00000000000E+00 0.  1.
         -3    1    1    2    0  502 -0.23132797133E+02 -0.31714868037E+02  0.17545463924E+03  0.17979235131E+03  0.00000000000E+00 0. -1.
<mgrwt>
<rscale>  1 0.65140334E+03</rscale>
<asrwt>0</asrwt>
<pdfrwt beam="1">  1       21 0.43682406E-01 0.65140334E+03</pdfrwt>
<pdfrwt beam="2">0</pdfrwt>
<totfact> 0.46978425E+02</totfact>
</mgrwt>
</event>
<event>
 6    1  0.1364923E-004  0.5970641E+03  0.7818608E-02  0.9911516E-01
         21   -1    0    0  501  502  0.00000000000E+00  0.00000000000E+00  0.17146816856E+03  0.17146816856E+03  0.00000000000E+00 0. -1.
         13   -1    0    0    0    0 -0.00000000000E+00 -0.00000000000E+00 -0.10000000000E+04  0.10000000000E+04  0.00000000000E+00 0.  1.
    9000005    2    1    2  501    0 -0.49004042233E+02  0.10291826241E+03 -0.86565051389E+03  0.10515875551E+04  0.58608191319E+03 0.  0.
         13    1    3    3    0    0 -0.21883326479E+03  0.23008720304E+03 -0.73940428736E+03  0.80470293832E+03  0.00000000000E+00 0.  1.
          3    1    3    3  501    0  0.16982922255E+03 -0.12716894063E+03 -0.12624622653E+03  0.24688461679E+03  0.00000000000E+00 0.  1.
         -3    1    1    2    0  502  0.49004042233E+02 -0.10291826241E+03  0.37118682448E+02  0.11988061344E+03  0.00000000000E+00 0. -1.
<mgrwt>
<rscale>  1 0.59706413E+03</rscale>
<asrwt>0</asrwt>
<pdfrwt beam="1">  1       21 0.26379717E-01 0.59706413E+03</pdfrwt>
<pdfrwt beam="2">0</pdfrwt>
<totfact> 0.13142385E+03</totfact>
</mgrwt>
</event>
<event>
 6    1  0.1364923E-004  0.6592704E+03  0.7818608E-02  0.9789538E-01
         21   -1    0    0  501  502  0.00000000000E+00  0.00000000000E+00  0.14194942548E+03  0.14194942548E+03  0.00000000000E+00 0.  1.
         13   -1    0    0    0    0 -0.00000000000E+00 -0.00000000000E+00 -0.10000000000E+04  0.10000000000E+04  0.00000000000E+00 0.  1.
    9000005    2    1    2  501    0 -0.32069047045E+02 -0.88607244001E+02 -0.75355832799E+03  0.10012430040E+04  0.65250113552E+03 0.  0.
         13    1    3    3    0    0 -0.24564787894E+03 -0.21872412179E+03 -0.65402124241E+03  0.73207028856E+03  0.00000000000E+00 0.  1.
          1    1    3    3  501    0  0.21357883189E+03  0.13011687779E+03 -0.99537085587E+02  0.26917271542E+03  0.00000000000E+00 0.  1.
         -1    1    1    2    0  502  0.32069047045E+02  0.88607244001E+02 -0.10449224653E+03  0.14070642150E+03  0.00000000000E+00 0. -1.
<mgrwt>
<rscale>  1 0.65927035E+03</rscale>
<asrwt>0</asrwt>
<pdfrwt beam="1">  1       21 0.21838373E-01 0.65927035E+03</pdfrwt>
<pdfrwt beam="2">0</pdfrwt>
<totfact> 0.18938860E+03</totfact>
</mgrwt>
</event>
<event>
 6    1  0.1364923E-004  0.6531379E+03  0.7818608E-02  0.9800909E-01
         21   -1    0    0  501  502  0.00000000000E+00  0.00000000000E+00  0.12972056436E+03  0.12972056436E+03  0.00000000000E+00 0.  1.
         13   -1    0    0    0    0 -0.00000000000E+00 -0.00000000000E+00 -0.10000000000E+04  0.10000000000E+04  0.00000000000E+00 0.  1.
    9000005    2    1    2  501    0 -0.43710039242E+02  0.25989305509E+02 -0.85634360737E+03  0.10769927838E+04  0.65115518195E+03 0.  0.
         13    1    3    3    0    0 -0.26938171836E+03 -0.14290208894E+03 -0.20546283622E+03  0.36769891797E+03  0.00000000000E+00 0.  1.
          1    1    3    3  501    0  0.22567167912E+03  0.16889139445E+03 -0.65088077114E+03  0.70929386584E+03  0.00000000000E+00 0.  1.
         -1    1    1    2    0  502  0.43710039242E+02 -0.25989305509E+02 -0.13935828277E+02  0.52727780544E+02  0.00000000000E+00 0. -1.
<mgrwt>
<rscale>  1 0.65313787E+03</rscale>
<asrwt>0</asrwt>
<pdfrwt beam="1">  1       21 0.19957009E-01 0.65313787E+03</pdfrwt>
<pdfrwt beam="2">0</pdfrwt>
<totfact> 0.22532560E+03</totfact>
</mgrwt>
</event>
<event>
 6    1  0.1364923E-004  0.6632954E+03  0.7818608E-02  0.9782146E-01
         21   -1    0    0  501  502  0.00000000000E+00  0.00000000000E+00  0.14620771403E+03  0.14620771403E+03  0.00000000000E+00 0.  1.
         13   -1    0    0    0    0 -0.00000000000E+00 -0.00000000000E+00 -0.10000000000E+04  0.10000000000E+04  0.00000000000E+00 0.  1.
    9000005    2    1    2  501    0  0.94979158810E+01  0.19883175507E+02 -0.88624948131E+03  0.11069773609E+04  0.66292924468E+03 0.  0.
         13    1    3    3    0    0  0.85882301822E+01 -0.21794347732E+03 -0.32254776942E+02  0.22048466531E+03  0.00000000000E+00 0.  1.
          1    1    3    3  501    0  0.90968569880E+00  0.23782665282E+03 -0.85399470437E+03  0.88649269563E+03  0.00000000000E+00 0.  1.
         -1    1    1    2    0  502 -0.94979158810E+01 -0.19883175507E+02  0.32457195341E+02  0.39230353092E+02  0.00000000000E+00 0. -1.
<mgrwt>
<rscale>  1 0.66329536E+03</rscale>
<asrwt>0</asrwt>
<pdfrwt beam="1">  1       21 0.22493494E-01 0.66329536E+03</pdfrwt>
<pdfrwt beam="2">0</pdfrwt>
<totfact> 0.17881693E+03</totfact>
</mgrwt>
</event>
<event>
 6    1  0.1364923E-004  0.6457706E+03  0.7818608E-02  0.9814748E-01
         21   -1    0    0  501  502  0.00000000000E+00  0.00000000000E+00  0.12416595763E+03  0.12416595763E+03  0.00000000000E+00 0.  1.
         13   -1    0    0    0    0 -0.00000000000E+00 -0.00000000000E+00 -0.10000000000E+04  0.10000000000E+04  0.00000000000E+00 0.  1.
    9000005    2    1    2  501    0 -0.19893243414E+02  0.17054632959E+02 -0.88573851109E+03  0.10961534579E+04  0.64523878655E+03 0.  0.
         13    1    3    3    0    0  0.15627873045E+03 -0.20647485362E+03 -0.13237695498E+03  0.29082394155E+03  0.00000000000E+00 0.  1.
          3    1    3    3  501    0 -0.17617197386E+03  0.22352948658E+03 -0.75336155611E+03  0.80532951639E+03  0.00000000000E+00 0.  1.
         -1    1    1    2    0  502  0.19893243414E+02 -0.17054632959E+02  0.99044687231E+01  0.28012499702E+02  0.00000000000E+00 0. -1.
<mgrwt>
<rscale>  1 0.64577062E+03</rscale>
<asrwt>0</asrwt>
<pdfrwt beam="1">  1       21 0.19102454E-01 0.64577062E+03</pdfrwt>
<pdfrwt beam="2">0</pdfrwt>
<totfact> 0.24507316E+03</totfact>
</mgrwt>
</event>
<event>
 6    1  0.1364923E-004  0.6454045E+03  0.7818608E-02  0.9815441E-01
         21   -1    0    0  501  502  0.00000000000E+00  0.00000000000E+00  0.11359223255E+03  0.11359223255E+03  0.00000000000E+00 0.  1.
         13   -1    0    0    0    0 -0.00000000000E+00 -0.00000000000E+00 -0.10000000000E+04  0.10000000000E+04  0.00000000000E+00 0.  1.
    9000005    2    1    2  501    0  0.19281404720E+02  0.56433512623E+01 -0.88217680618E+03  0.10930612556E+04  0.64509175405E+03 0.  0.
         13    1    3    3    0    0  0.73031460847E+02 -0.31092340230E+03 -0.50729359939E+03  0.59946121839E+03  0.00000000000E+00 0.  1.
          3    1    3    3  501    0 -0.53750056127E+02  0.31656675356E+03 -0.37488320679E+03  0.49360003720E+03  0.00000000000E+00 0.  1.
         -3    1    1    2    0  502 -0.19281404720E+02 -0.56433512623E+01 -0.42309612719E+01  0.20530976955E+02  0.00000000000E+00 0. -1.
<mgrwt>
<rscale>  1 0.64540452E+03</rscale>
<asrwt>0</asrwt>
<pdfrwt beam="1">  1       21 0.17475728E-01 0.64540452E+03</pdfrwt>
<pdfrwt beam="2">0</pdfrwt>
<totfact> 0.29023632E+03</totfact>
</mgrwt>
</event>
<event>
 6    1  0.1364923E-004  0.6597773E+03  0.7818608E-02  0.9788604E-01
         21   -1    0    0  501  502  0.00000000000E+00  0.00000000000E+00  0.22396454538E+03  0.22396454538E+03  0.00000000000E+00 0. -1.
         13   -1    0    0    0    0 -0.00000000000E+00 -0.00000000000E+00 -0.10000000000E+04  0.10000000000E+04  0.00000000000E+00 0.  1.
    9000005    2    1    2  501    0  0.90057730306E+01  0.29937471114E+02 -0.88881515656E+03  0.11069319974E+04  0.65903619637E+03 0.  0.
         13    1    3    3    0    0 -0.38329960029E+02 -0.16894704066E+02  0.10387927835E+03  0.11200679145E+03  0.00000000000E+00 0.  1.
          3    1    3    3  501    0  0.47335733059E+02  0.46832175180E+02 -0.99269443491E+03  0.99492520591E+03  0.00000000000E+00 0.  1.
         -1    1    1    2    0  502 -0.90057730306E+01 -0.29937471114E+02  0.11277970195E+03  0.11703254802E+03  0.00000000000E+00 0. -1.
<mgrwt>
<rscale>  1 0.65977728E+03</rscale>
<asrwt>0</asrwt>
<pdfrwt beam="1">  1       21 0.34456083E-01 0.65977728E+03</pdfrwt>
<pdfrwt beam="2">0</pdfrwt>
<totfact> 0.76680898E+02</totfact>
</mgrwt>
</event>
<event>
 6    1  0.1364923E-004  0.6595541E+03  0.7818608E-02  0.9789015E-01
         21   -1    0    0  501  502  0.00000000000E+00  0.00000000000E+00  0.17117482087E+03  0.17117482087E+03  0.00000000000E+00 0.  1.
         13   -1    0    0    0    0 -0.00000000000E+00 -0.00000000000E+00 -0.10000000000E+04  0.10000000000E+04  0.00000000000E+00 0.  1.
    9000005    2    1    2  501    0  0.15738307884E+02 -0.51007443006E+02 -0.87831365192E+03  0.10983835953E+04  0.65739044544E+03 0.  0.
         13    1    3    3    0    0  0.25872854734E+03  0.17552836542E+03 -0.54165411575E+03  0.62541174388E+03  0.00000000000E+00 0.  1.
          1    1    3    3  501    0 -0.24299023945E+03 -0.22653580843E+03 -0.33665953617E+03  0.47297185145E+03  0.00000000000E+00 0.  1.
         -3    1    1    2    0  502 -0.15738307884E+02  0.51007443006E+02  0.49488472790E+02  0.72791225543E+02  0.00000000000E+00 0. -1.
<mgrwt>
<rscale>  1 0.65955413E+03</rscale>
<asrwt>0</asrwt>
<pdfrwt beam="1">  1       21 0.26334587E-01 0.65955413E+03</pdfrwt>
<pdfrwt beam="2">0</pdfrwt>
<totfact> 0.13139843E+03</totfact>
</mgrwt>
</event>
<event>
 6    1  0.1364923E-004  0.6601751E+03  0.7818608E-02  0.9787871E-01
         21   -1    0    0  501  502  0.00000000000E+00  0.00000000000E+00  0.13544174935E+03  0.13544174935E+03  0.00000000000E+00 0.  1.
         13   -1    0    0    0    0 -0.00000000000E+00 -0.00000000000E+00 -0.10000000000E+04  0.10000000000E+04  0.00000000000E+00 0.  1.
    9000005    2    1    2  501    0  0.67342524957E+02 -0.19324142265E+02 -0.81867512311E+03  0.10516939163E+04  0.65644702627E+03 0.  0.
         13    1    3    3    0    0  0.29078912715E+03  0.14252495357E+03 -0.21713118888E+03  0.38989438576E+03  0.00000000000E+00 0.  1.
          3    1    3    3  501    0 -0.22344660220E+03 -0.16184909583E+03 -0.60154393423E+03  0.66179953057E+03  0.00000000000E+00 0.  1.
         -3    1    1    2    0  502 -0.67342524957E+02  0.19324142265E+02 -0.45883127544E+02  0.83747833017E+02  0.00000000000E+00 0. -1.
<mgrwt>
<rscale>  1 0.66017508E+03</rscale>
<asrwt>0</asrwt>
<pdfrwt beam="1">  1       21 0.20837192E-01 0.66017508E+03</pdfrwt>
<pdfrwt beam="2">0</pdfrwt>
<totfact> 0.20733482E+03</totfact>
</mgrwt>
</event>
<event>
 6    1  0.1364923E-004  0.6592965E+03  0.7818608E-02  0.9789490E-01
         21   -1    0    0  501  502  0.00000000000E+00  0.00000000000E+00  0.25147227759E+03  0.25147227759E+03  0.00000000000E+00 0. -1.
         13   -1    0    0    0    0 -0.00000000000E+00 -0.00000000000E+00 -0.10000000000E+04  0.10000000000E+04  0.00000000000E+00 0.  1.
    9000005    2    1    2  501    0 -0.10673207853E+02  0.61350734901E+02 -0.88376094474E+03  0.11025902624E+04  0.65634902997E+03 0.  0.
         13    1    3    3    0    0  0.29429622890E+03  0.12940902368E+03 -0.29635429562E+03  0.43724459320E+03  0.00000000000E+00 0.  1.
          3    1    3    3  501    0 -0.30496943675E+03 -0.68058288781E+02 -0.58740664912E+03  0.66534566915E+03  0.00000000000E+00 0.  1.
         -3    1    1    2    0  502  0.10673207853E+02 -0.61350734901E+02  0.13523322233E+03  0.14888201524E+03  0.00000000000E+00 0. -1.
<mgrwt>
<rscale>  1 0.65929650E+03</rscale>
<asrwt>0</asrwt>
<pdfrwt beam="1">  1       21 0.38688042E-01 0.65929650E+03</pdfrwt>
<pdfrwt beam="2">0</pdfrwt>
<totfact> 0.60469624E+02</totfact>
</mgrwt>
</event>
<event>
 6    1  0.1364923E-004  0.6575212E+03  0.7818608E-02  0.9792768E-01
         21   -1    0    0  501  502  0.00000000000E+00  0.00000000000E+00  0.17671063579E+03  0.17671063579E+03  0.00000000000E+00 0.  1.
         13   -1    0    0    0    0 -0.00000000000E+00 -0.00000000000E+00 -0.10000000000E+04  0.10000000000E+04  0.00000000000E+00 0.  1.
    9000005    2    1    2  501    0 -0.15067640923E+03  0.18458081017E+02 -0.77728634540E+03  0.10180904643E+04  0.63975780554E+03 0.  0.
         13    1    3    3    0    0  0.10500291194E+03  0.12807255571E+03 -0.71378871373E+03  0.73274997024E+03  0.00000000000E+00 0.  1.
          3    1    3    3  501    0 -0.25567932118E+03 -0.10961447469E+03 -0.63497631675E+02  0.28534049409E+03  0.00000000000E+00 0.  1.
         -1    1    1    2    0  502  0.15067640923E+03 -0.18458081017E+02 -0.46003018812E+02  0.15862017146E+03  0.00000000000E+00 0. -1.
<mgrwt>
<rscale>  1 0.65752120E+03</rscale>
<asrwt>0</asrwt>
<pdfrwt beam="1">  1       21 0.27186251E-01 0.65752120E+03</pdfrwt>
<pdfrwt beam="2">0</pdfrwt>
<totfact> 0.12340718E+03</totfact>
</mgrwt>
</event>
<event>
 6    1  0.1364923E-004  0.6538401E+03  0.7818608E-02  0.9799600E-01
         21   -1    0    0  501  502  0.00000000000E+00  0.00000000000E+00  0.18858314231E+03  0.18858314231E+03  0.00000000000E+00 0.  1.
         13   -1    0    0    0    0 -0.00000000000E+00 -0.00000000000E+00 -0.10000000000E+04  0.10000000000E+04  0.00000000000E+00 0.  1.
    9000005    2    1    2  501    0 -0.11398112885E+02 -0.12109671178E+03 -0.83917498413E+03  0.10638239977E+04  0.64242704917E+03 0.  0.
         13    1    3    3    0    0 -0.65526146299E+02 -0.36409286594E+03 -0.66168560648E+03  0.75807989863E+03  0.00000000000E+00 0.  1.
          3    1    3    3  501    0  0.54128033414E+02  0.24299615416E+03 -0.17748937765E+03  0.30574409907E+03  0.00000000000E+00 0.  1.
         -3    1    1    2    0  502  0.11398112885E+02  0.12109671178E+03  0.27758126437E+02  0.12475914461E+03  0.00000000000E+00 0. -1.
<mgrwt>
<rscale>  1 0.65384008E+03</rscale>
<asrwt>0</asrwt>
<pdfrwt beam="1">  1       21 0.29012790E-01 0.65384008E+03</pdfrwt>
<pdfrwt beam="2">0</pdfrwt>
<totfact> 0.10847068E+03</totfact>
</mgrwt>
</event>
<event>
 6    1  0.1364923E-004  0.6537025E+03  0.7818608E-02  0.9799856E-01
         21   -1    0    0  501  502  0.00000000000E+00  0.00000000000E+00  0.23868302927E+03  0.23868302927E+03  0.00000000000E+00 0. -1.
         13   -1    0    0    0    0 -0.00000000000E+00 -0.00000000000E+00 -0.10000000000E+04  0.10000000000E+04  0.00000000000E+00 0.  1.
    9000005    2    1    2  501    0  0.58206875870E+02  0.24809795285E+02 -0.88470721882E+03  0.11000153702E+04  0.65063306507E+03 0.  0.
         13    1    3    3    0    0 -0.18273810617E+03  0.23117513087E+03 -0.62143232516E+03  0.68775961741E+03  0.00000000000E+00 0.  1.
          1    1    3    3  501    0  0.24094498204E+03 -0.20636533559E+03 -0.26327489366E+03  0.41225575282E+03  0.00000000000E+00 0.  1.
         -1    1    1    2    0  502 -0.58206875870E+02 -0.24809795285E+02  0.12339024809E+03  0.13866765904E+03  0.00000000000E+00 0. -1.
<mgrwt>
<rscale>  1 0.65370249E+03</rscale>
<asrwt>0</asrwt>
<pdfrwt beam="1">  1       21 0.36720465E-01 0.65370249E+03</pdfrwt>
<pdfrwt beam="2">0</pdfrwt>
<totfact> 0.67358052E+02</totfact>
</mgrwt>
</event>
<event>
 6    1  0.1364923E-004  0.6442712E+03  0.7818608E-02  0.9817589E-01
         21   -1    0    0  501  502  0.00000000000E+00  0.00000000000E+00  0.34348836132E+03  0.34348836132E+03  0.00000000000E+00 0. -1.
         13   -1    0    0    0    0 -0.00000000000E+00 -0.00000000000E+00 -0.10000000000E+04  0.10000000000E+04  0.00000000000E+00 0.  1.
    9000005    2    1    2  501    0 -0.11019112649E+02 -0.48716896135E+02 -0.89335294822E+03  0.11014376172E+04  0.64233213973E+03 0.  0.
         13    1    3    3    0    0  0.93974367683E+02 -0.24710770693E+03 -0.82571804274E+03  0.86700846980E+03  0.00000000000E+00 0.  1.
          3    1    3    3  501    0 -0.10499348033E+03  0.19839081080E+03 -0.67634905483E+02  0.23442914742E+03  0.00000000000E+00 0.  1.
         -3    1    1    2    0  502  0.11019112649E+02  0.48716896135E+02  0.23684130954E+03  0.24205074410E+03  0.00000000000E+00 0. -1.
<mgrwt>
<rscale>  1 0.64427117E+03</rscale>
<asrwt>0</asrwt>
<pdfrwt beam="1">  1       21 0.52844362E-01 0.64427117E+03</pdfrwt>
<pdfrwt beam="2">0</pdfrwt>
<totfact> 0.31328516E+02</totfact>
</mgrwt>
</event>
<event>
 6    1  0.1364923E-004  0.6598495E+03  0.7818608E-02  0.9788471E-01
         21   -1    0    0  501  502  0.00000000000E+00  0.00000000000E+00  0.11913980021E+03  0.11913980021E+03  0.00000000000E+00 0.  1.
         13   -1    0    0    0    0 -0.00000000000E+00 -0.00000000000E+00 -0.10000000000E+04  0.10000000000E+04  0.00000000000E+00 0.  1.
    9000005    2    1    2  501    0 -0.14814419569E+02  0.26387495190E+02 -0.84779106141E+03  0.10743141954E+04  0.65915517125E+03 0.  0.
         13    1    3    3    0    0 -0.49161040271E+02 -0.25199436034E+03 -0.72315099844E+03  0.76737561342E+03  0.00000000000E+00 0.  1.
          3    1    3    3  501    0  0.34346620702E+02  0.27838185553E+03 -0.12464006298E+03  0.30693858203E+03  0.00000000000E+00 0.  1.
         -3    1    1    2    0  502  0.14814419569E+02 -0.26387495190E+02 -0.33069138377E+02  0.44825604765E+02  0.00000000000E+00 0. -1.
<mgrwt>
<rscale>  1 0.65984946E+03</rscale>
<asrwt>0</asrwt>
<pdfrwt beam="1">  1       21 0.18329200E-01 0.65984946E+03</pdfrwt>
<pdfrwt beam="2">0</pdfrwt>
<totfact> 0.26501336E+03</totfact>
</mgrwt>
</event>
<event>
 6    1  0.1364923E-004  0.6137808E+03  0.7818608E-02  0.9877221E-01
         21   -1    0    0  501  502  0.00000000000E+00  0.00000000000E+00  0.30356137873E+03  0.30356137873E+03  0.00000000000E+00 0. -1.
         13   -1    0    0    0    0 -0.00000000000E+00 -0.00000000000E+00 -0.10000000000E+04  0.10000000000E+04  0.00000000000E+00 0.  1.
    9000005    2    1    2  501    0 -0.19368052592E+01 -0.46628999263E+02 -0.90296881884E+03  0.10918239534E+04  0.61200395636E+03 0.  0.
         13    1    3    3    0    0  0.24028606285E+03  0.12455513202E+03 -0.22553812302E+03  0.35230500685E+03  0.00000000000E+00 0.  1.
          1    1    3    3  501    0 -0.24222286811E+03 -0.17118413129E+03 -0.67743069582E+03  0.73951894653E+03  0.00000000000E+00 0.  1.
         -3    1    1    2    0  502  0.19368052592E+01  0.46628999263E+02  0.20653019757E+03  0.21173742535E+03  0.00000000000E+00 0. -1.
<mgrwt>
<rscale>  1 0.61378079E+03</rscale>
<asrwt>0</asrwt>
<pdfrwt beam="1">  1       21 0.46701749E-01 0.61378079E+03</pdfrwt>
<pdfrwt beam="2">0</pdfrwt>
<totfact> 0.40936525E+02</totfact>
</mgrwt>
</event>
<event>
 6    1  0.1364923E-004  0.6335033E+03  0.7818608E-02  0.9838236E-01
         21   -1    0    0  501  502  0.00000000000E+00  0.00000000000E+00  0.11637415890E+03  0.11637415890E+03  0.00000000000E+00 0.  1.
         13   -1    0    0    0    0 -0.00000000000E+00 -0.00000000000E+00 -0.10000000000E+04  0.10000000000E+04  0.00000000000E+00 0.  1.
    9000005    2    1    2  501    0  0.15624633773E+02 -0.14201304144E+02 -0.89165123260E+03  0.10937862611E+04  0.63315137060E+03 0.  0.
         13    1    3    3    0    0 -0.47218291603E+02 -0.39329077273E+02  0.90452831246E+02  0.10935290605E+03  0.00000000000E+00 0.  1.
          1    1    3    3  501    0  0.62842925376E+02  0.25127773130E+02 -0.98210406384E+03  0.98443335502E+03  0.00000000000E+00 0.  1.
         -1    1    1    2    0  502 -0.15624633773E+02  0.14201304144E+02  0.80253915004E+01  0.22587897837E+02  0.00000000000E+00 0. -1.
<mgrwt>
<rscale>  1 0.63350333E+03</rscale>
<asrwt>0</asrwt>
<pdfrwt beam="1">  1       21 0.17903716E-01 0.63350333E+03</pdfrwt>
<pdfrwt beam="2">0</pdfrwt>
<totfact> 0.27734414E+03</totfact>
</mgrwt>
</event>
<event>
 6    1  0.1364923E-004  0.6986147E+03  0.7818608E-02  0.9719604E-01
         21   -1    0    0  501  502  0.00000000000E+00  0.00000000000E+00  0.60042567733E+03  0.60042567733E+03  0.00000000000E+00 0. -1.
         13   -1    0    0    0    0 -0.00000000000E+00 -0.00000000000E+00 -0.10000000000E+04  0.10000000000E+04  0.00000000000E+00 0.  1.
    9000005    2    1    2  501    0  0.10013099410E+03  0.23933911534E+03 -0.83798559401E+03  0.10910006377E+04  0.64865484479E+03 0.  0.
         13    1    3    3    0    0  0.29776418927E+03  0.10065601599E+03 -0.78250225610E+03  0.84327037584E+03  0.00000000000E+00 0.  1.
          3    1    3    3  501    0 -0.19763319517E+03  0.13868309935E+03 -0.55483337913E+02  0.24773026191E+03  0.00000000000E+00 0.  1.
         -1    1    1    2    0  502 -0.10013099410E+03 -0.23933911534E+03  0.43841127134E+03  0.50942503958E+03  0.00000000000E+00 0. -1.
<mgrwt>
<rscale>  1 0.69861473E+03</rscale>
<asrwt>0</asrwt>
<pdfrwt beam="1">  1       21 0.92373178E-01 0.69861473E+03</pdfrwt>
<pdfrwt beam="2">0</pdfrwt>
<totfact> 0.87328988E+01</totfact>
</mgrwt>
</event>
<event>
 6    1  0.1364923E-004  0.6543462E+03  0.7818608E-02  0.9798658E-01
         21   -1    0    0  501  502  0.00000000000E+00  0.00000000000E+00  0.14710942344E+03  0.14710942344E+03  0.00000000000E+00 0.  1.
         13   -1    0    0    0    0 -0.00000000000E+00 -0.00000000000E+00 -0.10000000000E+04  0.10000000000E+04  0.00000000000E+00 0.  1.
    9000005    2    1    2  501    0 -0.10620467061E+03  0.10162452792E+02 -0.77887912155E+03  0.10172618090E+04  0.64558980362E+03 0.  0.
         13    1    3    3    0    0  0.16577555125E+03 -0.12748069793E+03 -0.65612790414E+03  0.68864845047E+03  0.00000000000E+00 0.  1.
          3    1    3    3  501    0 -0.27198022186E+03  0.13764315072E+03 -0.12275121741E+03  0.32861335853E+03  0.00000000000E+00 0.  1.
         -1    1    1    2    0  502  0.10620467061E+03 -0.10162452792E+02 -0.74011455005E+02  0.12984761445E+03  0.00000000000E+00 0. -1.
<mgrwt>
<rscale>  1 0.65434616E+03</rscale>
<asrwt>0</asrwt>
<pdfrwt beam="1">  1       21 0.22632218E-01 0.65434616E+03</pdfrwt>
<pdfrwt beam="2">0</pdfrwt>
<totfact> 0.17676815E+03</totfact>
</mgrwt>
</event>
<event>
 6    1  0.1364923E-004  0.6416181E+03  0.7818608E-02  0.9822636E-01
         21   -1    0    0  501  502  0.00000000000E+00  0.00000000000E+00  0.11613455206E+03  0.11613455206E+03  0.00000000000E+00 0.  1.
         13   -1    0    0    0    0 -0.00000000000E+00 -0.00000000000E+00 -0.10000000000E+04  0.10000000000E+04  0.00000000000E+00 0.  1.
    9000005    2    1    2  501    0 -0.22743641463E+02  0.23183640573E+02 -0.86954683657E+03  0.10806412140E+04  0.64079558200E+03 0.  0.
         13    1    3    3    0    0  0.28394968431E+03  0.35270506542E+01 -0.62981499450E+03  0.69087393249E+03  0.00000000000E+00 0.  1.
          1    1    3    3  501    0 -0.30669332577E+03  0.19656589918E+02 -0.23973184207E+03  0.38976728147E+03  0.00000000000E+00 0.  1.
         -3    1    1    2    0  502  0.22743641463E+02 -0.23183640573E+02 -0.14318611376E+02  0.35493338092E+02  0.00000000000E+00 0. -1.
<mgrwt>
<rscale>  1 0.64161806E+03</rscale>
<asrwt>0</asrwt>
<pdfrwt beam="1">  1       21 0.17866854E-01 0.64161806E+03</pdfrwt>
<pdfrwt beam="2">0</pdfrwt>
<totfact> 0.27835415E+03</totfact>
</mgrwt>
</event>
<event>
 6    1  0.1364923E-004  0.6401132E+03  0.7818608E-02  0.9825510E-01
         21   -1    0    0  501  502  0.00000000000E+00  0.00000000000E+00  0.11354324722E+03  0.11354324722E+03  0.00000000000E+00 0.  1.
         13   -1    0    0    0    0 -0.00000000000E+00 -0.00000000000E+00 -0.10000000000E+04  0.10000000000E+04  0.00000000000E+00 0.  1.
    9000005    2    1    2  501    0  0.24641529921E+02  0.84079236465E+01 -0.87717674807E+03  0.10859023959E+04  0.63958351119E+03 0.  0.
         13    1    3    3    0    0  0.93792354811E+02  0.60889589304E+02  0.71847587938E+02  0.13291585232E+03  0.00000000000E+00 0.  1.
          1    1    3    3  501    0 -0.69150824891E+02 -0.52481665658E+02 -0.94902433601E+03  0.95298654353E+03  0.00000000000E+00 0.  1.
         -3    1    1    2    0  502 -0.24641529921E+02 -0.84079236465E+01 -0.92800047076E+01  0.27640851366E+02  0.00000000000E+00 0. -1.
<mgrwt>
<rscale>  1 0.64011324E+03</rscale>
<asrwt>0</asrwt>
<pdfrwt beam="1">  1       21 0.17468191E-01 0.64011324E+03</pdfrwt>
<pdfrwt beam="2">0</pdfrwt>
<totfact> 0.29052243E+03</totfact>
</mgrwt>
</event>
<event>
 6    1  0.1364923E-004  0.7283772E+03  0.7818608E-02  0.9669897E-01
         21   -1    0    0  501  502  0.00000000000E+00  0.00000000000E+00  0.28169357437E+03  0.28169357437E+03  0.00000000000E+00 0.  1.
         13   -1    0    0    0    0 -0.00000000000E+00 -0.00000000000E+00 -0.10000000000E+04  0.10000000000E+04  0.00000000000E+00 0.  1.
    9000005    2    1    2  501    0  0.15647401071E+03  0.28420045765E+03 -0.57038628496E+03  0.92513448507E+03  0.65213440733E+03 0.  0.
         13    1    3    3    0    0  0.25169946912E+03 -0.14379415521E+03 -0.23169551213E+03  0.37109593391E+03  0.00000000000E+00 0.  1.
          3    1    3    3  501    0 -0.95225458402E+02  0.42799461286E+03 -0.33869077283E+03  0.55403855115E+03  0.00000000000E+00 0.  1.
         -3    1    1    2    0  502 -0.15647401071E+03 -0.28420045765E+03 -0.14792014066E+03  0.35655908931E+03  0.00000000000E+00 0. -1.
<mgrwt>
<rscale>  1 0.72837717E+03</rscale>
<asrwt>0</asrwt>
<pdfrwt beam="1">  1       21 0.43337472E-01 0.72837717E+03</pdfrwt>
<pdfrwt beam="2">0</pdfrwt>
<totfact> 0.47469593E+02</totfact>
</mgrwt>
</event>
<event>
 6    1  0.1364923E-004  0.6609027E+03  0.7818608E-02  0.9786533E-01
         21   -1    0    0  501  502  0.00000000000E+00  0.00000000000E+00  0.16787195134E+03  0.16787195134E+03  0.00000000000E+00 0.  1.
         13   -1    0    0    0    0 -0.00000000000E+00 -0.00000000000E+00 -0.10000000000E+04  0.10000000000E+04  0.00000000000E+00 0.  1.
    9000005    2    1    2  501    0 -0.86559858730E+01 -0.71308615991E+02 -0.86523980455E+03  0.10887755975E+04  0.65698747142E+03 0.  0.
         13    1    3    3    0    0 -0.13765163101E+03 -0.29881885676E+02 -0.92858951688E+03  0.93921211102E+03  0.00000000000E+00 0.  1.
          3    1    3    3  501    0  0.12899564514E+03 -0.41426730315E+02  0.63349712331E+02  0.14956348652E+03  0.00000000000E+00 0.  1.
         -3    1    1    2    0  502  0.86559858730E+01  0.71308615991E+02  0.33111755891E+02  0.79096353798E+02  0.00000000000E+00 0. -1.
<mgrwt>
<rscale>  1 0.66090270E+03</rscale>
<asrwt>0</asrwt>
<pdfrwt beam="1">  1       21 0.25826453E-01 0.66090270E+03</pdfrwt>
<pdfrwt beam="2">0</pdfrwt>
<totfact> 0.13652889E+03</totfact>
</mgrwt>
</event>
<event>
 6    1  0.1364923E-004  0.6734962E+03  0.7818608E-02  0.9763663E-01
         21   -1    0    0  501  502  0.00000000000E+00  0.00000000000E+00  0.21384774404E+03  0.21384774404E+03  0.00000000000E+00 0.  1.
         13   -1    0    0    0    0 -0.00000000000E+00 -0.00000000000E+00 -0.10000000000E+04  0.10000000000E+04  0.00000000000E+00 0.  1.
    9000005    2    1    2  501    0  0.21589439169E+02  0.12649751256E+03 -0.83829640343E+03  0.10753315476E+04  0.66115758533E+03 0.  0.
         13    1    3    3    0    0 -0.19303675848E+03  0.28642489506E+03 -0.24207103397E+03  0.42178287794E+03  0.00000000000E+00 0.  1.
          3    1    3    3  501    0  0.21462619765E+03 -0.15992738251E+03 -0.59622536947E+03  0.65354866964E+03  0.00000000000E+00 0.  1.
         -1    1    1    2    0  502 -0.21589439169E+02 -0.12649751256E+03  0.52144147478E+02  0.13851619646E+03  0.00000000000E+00 0. -1.
<mgrwt>
<rscale>  1 0.67349616E+03</rscale>
<asrwt>0</asrwt>
<pdfrwt beam="1">  1       21 0.32899652E-01 0.67349616E+03</pdfrwt>
<pdfrwt beam="2">0</pdfrwt>
<totfact> 0.84147191E+02</totfact>
</mgrwt>
</event>
<event>
 6    1  0.1364923E-004  0.6541978E+03  0.7818608E-02  0.9798934E-01
         21   -1    0    0  501  502  0.00000000000E+00  0.00000000000E+00  0.23617332355E+03  0.23617332355E+03  0.00000000000E+00 0. -1.
         13   -1    0    0    0    0 -0.00000000000E+00 -0.00000000000E+00 -0.10000000000E+04  0.10000000000E+04  0.00000000000E+00 0.  1.
    9000005    2    1    2  501    0  0.11846052615E+03  0.14406256087E+02 -0.86165806108E+03  0.10818638414E+04  0.64322182843E+03 0.  0.
         13    1    3    3    0    0  0.14438631872E+03  0.31807443908E+03 -0.45012188394E+03  0.56976176446E+03  0.00000000000E+00 0.  1.
          3    1    3    3  501    0 -0.25925792572E+02 -0.30366818300E+03 -0.41153617714E+03  0.51210207691E+03  0.00000000000E+00 0.  1.
         -1    1    1    2    0  502 -0.11846052615E+03 -0.14406256087E+02  0.97831384629E+02  0.15430948217E+03  0.00000000000E+00 0. -1.
<mgrwt>
<rscale>  1 0.65419780E+03</rscale>
<asrwt>0</asrwt>
<pdfrwt beam="1">  1       21 0.36334356E-01 0.65419780E+03</pdfrwt>
<pdfrwt beam="2">0</pdfrwt>
<totfact> 0.68831213E+02</totfact>
</mgrwt>
</event>
<event>
 6    1  0.1364923E-004  0.6549826E+03  0.7818608E-02  0.9797474E-01
         21   -1    0    0  501  502  0.00000000000E+00  0.00000000000E+00  0.13190578144E+03  0.13190578144E+03  0.00000000000E+00 0.  1.
         13   -1    0    0    0    0 -0.00000000000E+00 -0.00000000000E+00 -0.10000000000E+04  0.10000000000E+04  0.00000000000E+00 0.  1.
    9000005    2    1    2  501    0 -0.10572844229E+02  0.57315717396E+02 -0.84521207025E+03  0.10692921311E+04  0.65238435103E+03 0.  0.
         13    1    3    3    0    0 -0.69971745125E+02  0.21355252233E+03 -0.18090367379E+02  0.22545062941E+03  0.00000000000E+00 0.  1.
          1    1    3    3  501    0  0.59398900896E+02 -0.15623680493E+03 -0.82712170287E+03  0.84384150171E+03  0.00000000000E+00 0.  1.
         -1    1    1    2    0  502  0.10572844229E+02 -0.57315717396E+02 -0.22882148312E+02  0.62613650325E+02  0.00000000000E+00 0. -1.
<mgrwt>
<rscale>  1 0.65498261E+03</rscale>
<asrwt>0</asrwt>
<pdfrwt beam="1">  1       21 0.20293197E-01 0.65498261E+03</pdfrwt>
<pdfrwt beam="2">0</pdfrwt>
<totfact> 0.21820112E+03</totfact>
</mgrwt>
</event>
<event>
 6    1  0.1364923E-004  0.7492116E+03  0.7818608E-02  0.9636588E-01
         21   -1    0    0  501  502  0.00000000000E+00  0.00000000000E+00  0.31334930172E+03  0.31334930172E+03  0.00000000000E+00 0. -1.
         13   -1    0    0    0    0 -0.00000000000E+00 -0.00000000000E+00 -0.10000000000E+04  0.10000000000E+04  0.00000000000E+00 0.  1.
    9000005    2    1    2  501    0 -0.30972034120E+03  0.20190457251E+03 -0.43905299964E+03  0.86838102586E+03  0.65163327373E+03 0.  0.
         13    1    3    3    0    0 -0.49235576710E+03  0.25884346678E+03 -0.35142230071E+03  0.65796031425E+03  0.00000000000E+00 0.  1.
          3    1    3    3  501    0  0.18263542591E+03 -0.56938894276E+02 -0.87630698927E+02  0.21042071161E+03  0.00000000000E+00 0.  1.
         -1    1    1    2    0  502  0.30972034120E+03 -0.20190457251E+03 -0.24759769864E+03  0.44496827586E+03  0.00000000000E+00 0. -1.
<mgrwt>
<rscale>  1 0.74921163E+03</rscale>
<asrwt>0</asrwt>
<pdfrwt beam="1">  1       21 0.48207583E-01 0.74921163E+03</pdfrwt>
<pdfrwt beam="2">0</pdfrwt>
<totfact> 0.37808701E+02</totfact>
</mgrwt>
</event>
<event>
 6    1  0.1364923E-004  0.6289073E+03  0.7818608E-02  0.9847183E-01
         21   -1    0    0  501  502  0.00000000000E+00  0.00000000000E+00  0.25049878745E+03  0.25049878745E+03  0.00000000000E+00 0.  1.
         13   -1    0    0    0    0 -0.00000000000E+00 -0.00000000000E+00 -0.10000000000E+04  0.10000000000E+04  0.00000000000E+00 0.  1.
    9000005    2    1    2  501    0 -0.52286403402E+02 -0.40363692223E+02 -0.89317035516E+03  0.10923725146E+04  0.62542891814E+03 0.  0.
         13    1    3    3    0    0  0.22207987363E+03  0.15647964141E+03 -0.53559083995E+03  0.60055215950E+03  0.00000000000E+00 0.  1.
          3    1    3    3  501    0 -0.27436627704E+03 -0.19684333364E+03 -0.35757951522E+03  0.49182035508E+03  0.00000000000E+00 0.  1.
         -3    1    1    2    0  502  0.52286403402E+02  0.40363692223E+02  0.14366914262E+03  0.15812627287E+03  0.00000000000E+00 0. -1.
<mgrwt>
<rscale>  1 0.62890733E+03</rscale>
<asrwt>0</asrwt>
<pdfrwt beam="1">  1       21 0.38538274E-01 0.62890733E+03</pdfrwt>
<pdfrwt beam="2">0</pdfrwt>
<totfact> 0.61102775E+02</totfact>
</mgrwt>
</event>
<event>
 6    1  0.1364923E-004  0.6052904E+03  0.7818608E-02  0.9894491E-01
         21   -1    0    0  501  502  0.00000000000E+00  0.00000000000E+00  0.16224786696E+03  0.16224786696E+03  0.00000000000E+00 0.  1.
         13   -1    0    0    0    0 -0.00000000000E+00 -0.00000000000E+00 -0.10000000000E+04  0.10000000000E+04  0.00000000000E+00 0.  1.
    9000005    2    1    2  501    0 -0.19514947063E+03  0.31914798844E+02 -0.67009877294E+03  0.90299987868E+03  0.57207914236E+03 0.  0.
         13    1    3    3    0    0 -0.22688928766E+03 -0.24023413234E+03 -0.39014860245E+03  0.51127988342E+03  0.00000000000E+00 0.  1.
          1    1    3    3  501    0  0.31739817030E+02  0.27214893118E+03 -0.27995017049E+03  0.39171999526E+03  0.00000000000E+00 0.  1.
         -3    1    1    2    0  502  0.19514947063E+03 -0.31914798844E+02 -0.16765336010E+03  0.25924798828E+03  0.00000000000E+00 0. -1.
<mgrwt>
<rscale>  1 0.60529036E+03</rscale>
<asrwt>0</asrwt>
<pdfrwt beam="1">  1       21 0.24961210E-01 0.60529036E+03</pdfrwt>
<pdfrwt beam="2">0</pdfrwt>
<totfact> 0.14641296E+03</totfact>
</mgrwt>
</event>
<event>
 6    1  0.1364923E-004  0.6492377E+03  0.7818608E-02  0.9808211E-01
         21   -1    0    0  501  502  0.00000000000E+00  0.00000000000E+00  0.24707772264E+03  0.24707772264E+03  0.00000000000E+00 0. -1.
         13   -1    0    0    0    0 -0.00000000000E+00 -0.00000000000E+00 -0.10000000000E+04  0.10000000000E+04  0.00000000000E+00 0.  1.
    9000005    2    1    2  501    0  0.23168736755E+02 -0.49071052194E+02 -0.88885437532E+03  0.11007141555E+04  0.64696583611E+03 0.  0.
         13    1    3    3    0    0  0.11182527445E+03 -0.21444508558E+03 -0.57694038609E+02  0.24863666026E+03  0.00000000000E+00 0.  1.
          3    1    3    3  501    0 -0.88656537695E+02  0.16537403338E+03 -0.83116033671E+03  0.85207749525E+03  0.00000000000E+00 0.  1.
         -3    1    1    2    0  502 -0.23168736755E+02  0.49071052194E+02  0.13593209796E+03  0.14636356713E+03  0.00000000000E+00 0. -1.
<mgrwt>
<rscale>  1 0.64923767E+03</rscale>
<asrwt>0</asrwt>
<pdfrwt beam="1">  1       21 0.38011956E-01 0.64923767E+03</pdfrwt>
<pdfrwt beam="2">0</pdfrwt>
<totfact> 0.62758552E+02</totfact>
</mgrwt>
</event>
<event>
 6    1  0.1364923E-004  0.5820708E+03  0.7818608E-02  0.9943318E-01
         21   -1    0    0  501  502  0.00000000000E+00  0.00000000000E+00  0.11140489710E+03  0.11140489710E+03  0.00000000000E+00 0. -1.
         13   -1    0    0    0    0 -0.00000000000E+00 -0.00000000000E+00 -0.10000000000E+04  0.10000000000E+04  0.00000000000E+00 0.  1.
    9000005    2    1    2  501    0  0.42788577191E+01  0.44431821475E+02 -0.89363397645E+03  0.10664840152E+04  0.58035676567E+03 0.  0.
         13    1    3    3    0    0 -0.19775442479E+03 -0.14582690844E+03 -0.65815756010E+03  0.70252663556E+03  0.00000000000E+00 0.  1.
          1    1    3    3  501    0  0.20203328251E+03  0.19025872992E+03 -0.23547641634E+03  0.36395737965E+03  0.00000000000E+00 0.  1.
         -3    1    1    2    0  502 -0.42788577191E+01 -0.44431821475E+02  0.50388735467E+01  0.44920881888E+02  0.00000000000E+00 0. -1.
<mgrwt>
<rscale>  1 0.58207085E+03</rscale>
<asrwt>0</asrwt>
<pdfrwt beam="1">  1       21 0.17139214E-01 0.58207085E+03</pdfrwt>
<pdfrwt beam="2">0</pdfrwt>
<totfact> 0.30171771E+03</totfact>
</mgrwt>
</event>
<event>
 6    1  0.1364923E-004  0.7199857E+03  0.7818608E-02  0.9683652E-01
         21   -1    0    0  501  502  0.00000000000E+00  0.00000000000E+00  0.17514868348E+03  0.17514868348E+03  0.00000000000E+00 0.  1.
         13   -1    0    0    0    0 -0.00000000000E+00 -0.00000000000E+00 -0.10000000000E+04  0.10000000000E+04  0.00000000000E+00 0.  1.
    9000005    2    1    2  501    0 -0.15027733126E+02  0.15378843170E+02 -0.86751709836E+03  0.11273709636E+04  0.71966452739E+03 0.  0.
         13    1    3    3    0    0 -0.29600578382E+03 -0.51728320505E+02 -0.11575723808E+03  0.32201705136E+03  0.00000000000E+00 0.  1.
          3    1    3    3  501    0  0.28097805070E+03  0.67107163676E+02 -0.75175986028E+03  0.80535391221E+03  0.00000000000E+00 0.  1.
         -3    1    1    2    0  502  0.15027733126E+02 -0.15378843170E+02  0.42665781837E+02  0.47777719911E+02  0.00000000000E+00 0. -1.
<mgrwt>
<rscale>  1 0.71998568E+03</rscale>
<asrwt>0</asrwt>
<pdfrwt beam="1">  1       21 0.26945951E-01 0.71998568E+03</pdfrwt>
<pdfrwt beam="2">0</pdfrwt>
<totfact> 0.12517401E+03</totfact>
</mgrwt>
</event>
<event>
 6    1  0.1364923E-004  0.6536075E+03  0.7818608E-02  0.9800033E-01
         21   -1    0    0  501  502  0.00000000000E+00  0.00000000000E+00  0.11468813811E+03  0.11468813811E+03  0.00000000000E+00 0.  1.
         13   -1    0    0    0    0 -0.00000000000E+00 -0.00000000000E+00 -0.10000000000E+04  0.10000000000E+04  0.00000000000E+00 0.  1.
    9000005    2    1    2  501    0 -0.12513226856E+02 -0.16015792001E+02 -0.87419579149E+03  0.10915223560E+04  0.65329142452E+03 0.  0.
         13    1    3    3    0    0 -0.28015860083E+03 -0.11992677578E+03 -0.67925969705E+03  0.74448976434E+03  0.00000000000E+00 0.  1.
          3    1    3    3  501    0  0.26764537397E+03  0.10391098378E+03 -0.19493609444E+03  0.34703259166E+03  0.00000000000E+00 0.  1.
         -1    1    1    2    0  502  0.12513226856E+02  0.16015792001E+02 -0.11116070398E+02  0.23165782112E+02  0.00000000000E+00 0. -1.
<mgrwt>
<rscale>  1 0.65360751E+03</rscale>
<asrwt>0</asrwt>
<pdfrwt beam="1">  1       21 0.17644328E-01 0.65360751E+03</pdfrwt>
<pdfrwt beam="2">0</pdfrwt>
<totfact> 0.28493308E+03</totfact>
</mgrwt>
</event>
<event>
 6    1  0.1364923E-004  0.5749798E+03  0.7818608E-02  0.9958719E-01
         21   -1    0    0  501  502  0.00000000000E+00  0.00000000000E+00  0.92188593937E+02  0.92188593937E+02  0.00000000000E+00 0.  1.
         13   -1    0    0    0    0 -0.00000000000E+00 -0.00000000000E+00 -0.10000000000E+04  0.10000000000E+04  0.00000000000E+00 0.  1.
    9000005    2    1    2  501    0  0.21625790753E+02  0.18233151864E+02 -0.88705464743E+03  0.10571034734E+04  0.57428362622E+03 0.  0.
         13    1    3    3    0    0  0.62483489008E+01 -0.19435821204E+03 -0.60714713210E+02  0.20371655027E+03  0.00000000000E+00 0.  1.
          3    1    3    3  501    0  0.15377441853E+02  0.21259136391E+03 -0.82633993422E+03  0.85338692315E+03  0.00000000000E+00 0.  1.
         -1    1    1    2    0  502 -0.21625790753E+02 -0.18233151864E+02 -0.20756758637E+02  0.35085120517E+02  0.00000000000E+00 0. -1.
<mgrwt>
<rscale>  1 0.57497983E+03</rscale>
<asrwt>0</asrwt>
<pdfrwt beam="1">  1       21 0.14182860E-01 0.57497983E+03</pdfrwt>
<pdfrwt beam="2">0</pdfrwt>
<totfact> 0.43001415E+03</totfact>
</mgrwt>
</event>
<event>
 6    1  0.1364923E-004  0.6579196E+03  0.7818608E-02  0.9792031E-01
         21   -1    0    0  501  502  0.00000000000E+00  0.00000000000E+00  0.17393863475E+03  0.17393863475E+03  0.00000000000E+00 0.  1.
         13   -1    0    0    0    0 -0.00000000000E+00 -0.00000000000E+00 -0.10000000000E+04  0.10000000000E+04  0.00000000000E+00 0.  1.
    9000005    2    1    2  501    0  0.59544118854E+02  0.88698696831E+02 -0.83914104330E+03  0.10663094617E+04  0.64918812118E+03 0.  0.
         13    1    3    3    0    0 -0.21964020318E+03  0.14807483243E+03 -0.11657150455E+03  0.28940782734E+03  0.00000000000E+00 0.  1.
          1    1    3    3  501    0  0.27918432204E+03 -0.59376135603E+02 -0.72256953876E+03  0.77690163437E+03  0.00000000000E+00 0.  1.
         -3    1    1    2    0  502 -0.59544118854E+02 -0.88698696831E+02  0.13079678052E+02  0.10762917303E+03  0.00000000000E+00 0. -1.
<mgrwt>
<rscale>  1 0.65791958E+03</rscale>
<asrwt>0</asrwt>
<pdfrwt beam="1">  1       21 0.26759789E-01 0.65791958E+03</pdfrwt>
<pdfrwt beam="2">0</pdfrwt>
<totfact> 0.12732190E+03</totfact>
</mgrwt>
</event>
<event>
 6    1  0.1364923E-004  0.6504081E+03  0.7818608E-02  0.9806014E-01
         21   -1    0    0  501  502  0.00000000000E+00  0.00000000000E+00  0.15985286649E+03  0.15985286649E+03  0.00000000000E+00 0.  1.
         13   -1    0    0    0    0 -0.00000000000E+00 -0.00000000000E+00 -0.10000000000E+04  0.10000000000E+04  0.00000000000E+00 0.  1.
    9000005    2    1    2  501    0 -0.24289114442E+02 -0.70625701585E+02 -0.86400370419E+03  0.10814495071E+04  0.64610578443E+03 0.  0.
         13    1    3    3    0    0  0.84815453724E+02  0.78583233251E+02  0.66080690328E+02  0.13317523558E+03  0.00000000000E+00 0.  1.
          1    1    3    3  501    0 -0.10910456817E+03 -0.14920893484E+03 -0.93008439452E+03  0.94827427148E+03  0.00000000000E+00 0.  1.
         -1    1    1    2    0  502  0.24289114442E+02  0.70625701585E+02  0.23856570683E+02  0.78403359428E+02  0.00000000000E+00 0. -1.
<mgrwt>
<rscale>  1 0.65040805E+03</rscale>
<asrwt>0</asrwt>
<pdfrwt beam="1">  1       21 0.24592748E-01 0.65040805E+03</pdfrwt>
<pdfrwt beam="2">0</pdfrwt>
<totfact> 0.15037449E+03</totfact>
</mgrwt>
</event>
<event>
 6    1  0.1364923E-004  0.6466707E+03  0.7818608E-02  0.9813047E-01
         21   -1    0    0  501  502  0.00000000000E+00  0.00000000000E+00  0.62264590759E+03  0.62264590759E+03  0.00000000000E+00 0. -1.
         13   -1    0    0    0    0 -0.00000000000E+00 -0.00000000000E+00 -0.10000000000E+04  0.10000000000E+04  0.00000000000E+00 0.  1.
    9000005    2    1    2  501    0 -0.40419882900E+02  0.17548394566E+02 -0.89441907326E+03  0.11037066939E+04  0.64516763285E+03 0.  0.
         13    1    3    3    0    0  0.68733619836E+02 -0.29887290508E+03 -0.49826279901E+03  0.58507703831E+03  0.00000000000E+00 0.  1.
          1    1    3    3  501    0 -0.10915350274E+03  0.31642129965E+03 -0.39615627425E+03  0.51862965559E+03  0.00000000000E+00 0.  1.
         -3    1    1    2    0  502  0.40419882900E+02 -0.17548394566E+02  0.51706498084E+03  0.51893921368E+03  0.00000000000E+00 0. -1.
<mgrwt>
<rscale>  1 0.64667069E+03</rscale>
<asrwt>0</asrwt>
<pdfrwt beam="1">  1       21 0.95791675E-01 0.64667069E+03</pdfrwt>
<pdfrwt beam="2">0</pdfrwt>
<totfact> 0.80572327E+01</totfact>
</mgrwt>
</event>
<event>
 6    1  0.1364923E-004  0.6092235E+03  0.7818608E-02  0.9886453E-01
         21   -1    0    0  501  502  0.00000000000E+00  0.00000000000E+00  0.11415971820E+03  0.11415971820E+03  0.00000000000E+00 0.  1.
         13   -1    0    0    0    0 -0.00000000000E+00 -0.00000000000E+00 -0.10000000000E+04  0.10000000000E+04  0.00000000000E+00 0.  1.
    9000005    2    1    2  501    0  0.10755269409E+02  0.29700871358E+02 -0.89371025028E+03  0.10816058554E+04  0.60840397549E+03 0.  0.
         13    1    3    3    0    0 -0.12568010310E+03  0.24035613767E+03 -0.73796325676E+03  0.78622918387E+03  0.00000000000E+00 0.  1.
          3    1    3    3  501    0  0.13643537251E+03 -0.21065526631E+03 -0.15574699352E+03  0.29537667153E+03  0.00000000000E+00 0.  1.
         -1    1    1    2    0  502 -0.10755269409E+02 -0.29700871358E+02  0.78699684834E+01  0.32553862803E+02  0.00000000000E+00 0. -1.
<mgrwt>
<rscale>  1 0.60922345E+03</rscale>
<asrwt>0</asrwt>
<pdfrwt beam="1">  1       21 0.17563033E-01 0.60922345E+03</pdfrwt>
<pdfrwt beam="2">0</pdfrwt>
<totfact> 0.28785544E+03</totfact>
</mgrwt>
</event>
<event>
 6    1  0.1364923E-004  0.6051035E+03  0.7818608E-02  0.9894874E-01
         21   -1    0    0  501  502  0.00000000000E+00  0.00000000000E+00  0.19227646399E+03  0.19227646399E+03  0.00000000000E+00 0. -1.
         13   -1    0    0    0    0 -0.00000000000E+00 -0.00000000000E+00 -0.10000000000E+04  0.10000000000E+04  0.00000000000E+00 0.  1.
    9000005    2    1    2  501    0 -0.26503264073E+02  0.67788260385E+01 -0.90643145235E+03  0.10898478145E+04  0.60448482649E+03 0.  0.
         13    1    3    3    0    0 -0.28912972150E+03  0.41497671222E+02 -0.25925880562E+03  0.39055496522E+03  0.00000000000E+00 0.  1.
          1    1    3    3  501    0  0.26262645743E+03 -0.34718845183E+02 -0.64717264674E+03  0.69929284927E+03  0.00000000000E+00 0.  1.
         -1    1    1    2    0  502  0.26503264073E+02 -0.67788260385E+01  0.98707916345E+02  0.10242864950E+03  0.00000000000E+00 0. -1.
<mgrwt>
<rscale>  1 0.60510353E+03</rscale>
<asrwt>0</asrwt>
<pdfrwt beam="1">  1       21 0.29580994E-01 0.60510353E+03</pdfrwt>
<pdfrwt beam="2">0</pdfrwt>
<totfact> 0.10467666E+03</totfact>
</mgrwt>
</event>
<event>
 6    1  0.1364923E-004  0.6693535E+03  0.7818608E-02  0.9771126E-01
         21   -1    0    0  501  502  0.00000000000E+00  0.00000000000E+00  0.34974258099E+03  0.34974258099E+03  0.00000000000E+00 0. -1.
         13   -1    0    0    0    0 -0.00000000000E+00 -0.00000000000E+00 -0.10000000000E+04  0.10000000000E+04  0.00000000000E+00 0.  1.
    9000005    2    1    2  501    0 -0.81909274543E+02  0.45914033680E+02 -0.87762508243E+03  0.11037481052E+04  0.66273438623E+03 0.  0.
         13    1    3    3    0    0  0.46758334410E+02 -0.17540812642E+02  0.10205526497E+03  0.11361909634E+03  0.00000000000E+00 0.  1.
          1    1    3    3  501    0 -0.12866760895E+03  0.63454846322E+02 -0.97968034740E+03  0.99012900887E+03  0.00000000000E+00 0.  1.
         -1    1    1    2    0  502  0.81909274543E+02 -0.45914033680E+02  0.22736766343E+03  0.24599447578E+03  0.00000000000E+00 0. -1.
<mgrwt>
<rscale>  1 0.66935349E+03</rscale>
<asrwt>0</asrwt>
<pdfrwt beam="1">  1       21 0.53806549E-01 0.66935349E+03</pdfrwt>
<pdfrwt beam="2">0</pdfrwt>
<totfact> 0.30053192E+02</totfact>
</mgrwt>
</event>
<event>
 6    1  0.1364923E-004  0.6638723E+03  0.7818608E-02  0.9781091E-01
         21   -1    0    0  501  502  0.00000000000E+00  0.00000000000E+00  0.40283434128E+03  0.40283434128E+03  0.00000000000E+00 0. -1.
         13   -1    0    0    0    0 -0.00000000000E+00 -0.00000000000E+00 -0.10000000000E+04  0.10000000000E+04  0.00000000000E+00 0.  1.
    9000005    2    1    2  501    0  0.10131628484E+03 -0.64052795153E+02 -0.87611100097E+03  0.10992256225E+04  0.65296150964E+03 0.  0.
         13    1    3    3    0    0  0.35227887273E+03 -0.97318171328E+02 -0.31057268029E+03  0.47961090520E+03  0.00000000000E+00 0.  1.
          3    1    3    3  501    0 -0.25096258790E+03  0.33265376176E+02 -0.56553832067E+03  0.61961471733E+03  0.00000000000E+00 0.  1.
         -3    1    1    2    0  502 -0.10131628484E+03  0.64052795153E+02  0.27894534224E+03  0.30360871875E+03  0.00000000000E+00 0. -1.
<mgrwt>
<rscale>  1 0.66387234E+03</rscale>
<asrwt>0</asrwt>
<pdfrwt beam="1">  1       21 0.61974512E-01 0.66387234E+03</pdfrwt>
<pdfrwt beam="2">0</pdfrwt>
<totfact> 0.22047613E+02</totfact>
</mgrwt>
</event>
<event>
 6    1  0.1364923E-004  0.6830782E+03  0.7818608E-02  0.9746616E-01
         21   -1    0    0  501  502  0.00000000000E+00  0.00000000000E+00  0.18358819045E+03  0.18358819045E+03  0.00000000000E+00 0.  1.
         13   -1    0    0    0    0 -0.00000000000E+00 -0.00000000000E+00 -0.10000000000E+04  0.10000000000E+04  0.00000000000E+00 0.  1.
    9000005    2    1    2  501    0  0.11011070979E+03 -0.86474379473E+02 -0.78408521460E+03  0.10398968704E+04  0.66857586751E+03 0.  0.
         13    1    3    3    0    0  0.25964830081E+03 -0.94086287179E+02 -0.37805919326E+02  0.27874496782E+03  0.00000000000E+00 0.  1.
          1    1    3    3  501    0 -0.14953759102E+03  0.76119077059E+01 -0.74627929527E+03  0.76115190259E+03  0.00000000000E+00 0.  1.
         -3    1    1    2    0  502 -0.11011070979E+03  0.86474379473E+02 -0.32326594950E+02  0.14369132005E+03  0.00000000000E+00 0. -1.
<mgrwt>
<rscale>  1 0.68307824E+03</rscale>
<asrwt>0</asrwt>
<pdfrwt beam="1">  1       21 0.28244336E-01 0.68307824E+03</pdfrwt>
<pdfrwt beam="2">0</pdfrwt>
<totfact> 0.11423411E+03</totfact>
</mgrwt>
</event>
<event>
 6    1  0.1364923E-004  0.6586292E+03  0.7818608E-02  0.9790720E-01
         21   -1    0    0  501  502  0.00000000000E+00  0.00000000000E+00  0.20330576041E+03  0.20330576041E+03  0.00000000000E+00 0.  1.
         13   -1    0    0    0    0 -0.00000000000E+00 -0.00000000000E+00 -0.10000000000E+04  0.10000000000E+04  0.00000000000E+00 0.  1.
    9000005    2    1    2  501    0  0.51387671091E+02  0.10881442164E+03 -0.84694498868E+03  0.10728971377E+04  0.64754241800E+03 0.  0.
         13    1    3    3    0    0 -0.12704855295E+03 -0.14198476663E+03 -0.21264051937E+02  0.19171115948E+03  0.00000000000E+00 0.  1.
          1    1    3    3  501    0  0.17843622404E+03  0.25079918827E+03 -0.82568093675E+03  0.88118597821E+03  0.00000000000E+00 0.  1.
         -1    1    1    2    0  502 -0.51387671091E+02 -0.10881442164E+03  0.50250749096E+02  0.13040862273E+03  0.00000000000E+00 0. -1.
<mgrwt>
<rscale>  1 0.65862922E+03</rscale>
<asrwt>0</asrwt>
<pdfrwt beam="1">  1       21 0.31277808E-01 0.65862922E+03</pdfrwt>
<pdfrwt beam="2">0</pdfrwt>
<totfact> 0.93278512E+02</totfact>
</mgrwt>
</event>
<event>
 6    1  0.1364923E-004  0.6342494E+03  0.7818608E-02  0.9836791E-01
         21   -1    0    0  501  502  0.00000000000E+00  0.00000000000E+00  0.13627875474E+03  0.13627875474E+03  0.00000000000E+00 0.  1.
         13   -1    0    0    0    0 -0.00000000000E+00 -0.00000000000E+00 -0.10000000000E+04  0.10000000000E+04  0.00000000000E+00 0.  1.
    9000005    2    1    2  501    0 -0.23226276689E+02  0.15632494128E+02 -0.89329263982E+03  0.10955564982E+04  0.63363117474E+03 0.  0.
         13    1    3    3    0    0 -0.13603606808E+03 -0.22170585693E+03 -0.13508109448E+03  0.29309759620E+03  0.00000000000E+00 0.  1.
          1    1    3    3  501    0  0.11280979139E+03  0.23733835106E+03 -0.75821154534E+03  0.80245890200E+03  0.00000000000E+00 0.  1.
         -3    1    1    2    0  502  0.23226276689E+02 -0.15632494128E+02  0.29571394552E+02  0.40722256534E+02  0.00000000000E+00 0. -1.
<mgrwt>
<rscale>  1 0.63424940E+03</rscale>
<asrwt>0</asrwt>
<pdfrwt beam="1">  1       21 0.20965962E-01 0.63424940E+03</pdfrwt>
<pdfrwt beam="2">0</pdfrwt>
<totfact> 0.20511254E+03</totfact>
</mgrwt>
</event>
<event>
 6    1  0.1364923E-004  0.6943181E+03  0.7818608E-02  0.9726999E-01
         21   -1    0    0  501  502  0.00000000000E+00  0.00000000000E+00  0.23230570407E+03  0.23230570407E+03  0.00000000000E+00 0.  1.
         13   -1    0    0    0    0 -0.00000000000E+00 -0.00000000000E+00 -0.10000000000E+04  0.10000000000E+04  0.00000000000E+00 0.  1.
    9000005    2    1    2  501    0  0.66226841550E+02  0.80677404670E+02 -0.85132300352E+03  0.10985574372E+04  0.68642752586E+03 0.  0.
         13    1    3    3    0    0 -0.36888159333E+02  0.97840371461E+02 -0.94944567294E+03  0.95518613917E+03  0.00000000000E+00 0.  1.
          1    1    3    3  501    0  0.10311500088E+03 -0.17162966790E+02  0.98122669417E+02  0.14337129800E+03  0.00000000000E+00 0.  1.
         -1    1    1    2    0  502 -0.66226841550E+02 -0.80677404670E+02  0.83628707590E+02  0.13374826690E+03  0.00000000000E+00 0. -1.
<mgrwt>
<rscale>  1 0.69431807E+03</rscale>
<asrwt>0</asrwt>
<pdfrwt beam="1">  1       21 0.35739338E-01 0.69431807E+03</pdfrwt>
<pdfrwt beam="2">0</pdfrwt>
<totfact> 0.70993989E+02</totfact>
</mgrwt>
</event>
<event>
 6    1  0.1364923E-004  0.6568138E+03  0.7818608E-02  0.9794077E-01
         21   -1    0    0  501  502  0.00000000000E+00  0.00000000000E+00  0.14608142702E+03  0.14608142702E+03  0.00000000000E+00 0. -1.
         13   -1    0    0    0    0 -0.00000000000E+00 -0.00000000000E+00 -0.10000000000E+04  0.10000000000E+04  0.00000000000E+00 0.  1.
    9000005    2    1    2  501    0  0.74895131904E+02  0.22466913366E+01 -0.84555748806E+03  0.10706875536E+04  0.65252589487E+03 0.  0.
         13    1    3    3    0    0  0.33297949513E+03  0.27167881064E+02 -0.69432859254E+03  0.77052296031E+03  0.00000000000E+00 0.  1.
          1    1    3    3  501    0 -0.25808436323E+03 -0.24921189728E+02 -0.15122889551E+03  0.30016459331E+03  0.00000000000E+00 0.  1.
         -3    1    1    2    0  502 -0.74895131904E+02 -0.22466913366E+01 -0.83610849224E+01  0.75393873398E+02  0.00000000000E+00 0. -1.
<mgrwt>
<rscale>  1 0.65681380E+03</rscale>
<asrwt>0</asrwt>
<pdfrwt beam="1">  1       21 0.22474065E-01 0.65681380E+03</pdfrwt>
<pdfrwt beam="2">0</pdfrwt>
<totfact> 0.17916946E+03</totfact>
</mgrwt>
</event>
<event>
 6    1  0.1364923E-004  0.6437103E+03  0.7818608E-02  0.9818653E-01
         21   -1    0    0  501  502  0.00000000000E+00  0.00000000000E+00  0.17708742086E+03  0.17708742086E+03  0.00000000000E+00 0. -1.
         13   -1    0    0    0    0 -0.00000000000E+00 -0.00000000000E+00 -0.10000000000E+04  0.10000000000E+04  0.00000000000E+00 0.  1.
    9000005    2    1    2  501    0  0.27783738850E+02 -0.17277963871E+02 -0.89236855489E+03  0.11003111436E+04  0.64287830172E+03 0.  0.
         13    1    3    3    0    0 -0.24543031549E+03  0.14671648909E+03 -0.23627292502E+03  0.37092676236E+03  0.00000000000E+00 0.  1.
          1    1    3    3  501    0  0.27321405434E+03 -0.16399445296E+03 -0.65609562987E+03  0.72938438126E+03  0.00000000000E+00 0.  1.
         -3    1    1    2    0  502 -0.27783738850E+02  0.17277963871E+02  0.69455975750E+02  0.76776277244E+02  0.00000000000E+00 0. -1.
<mgrwt>
<rscale>  1 0.64371032E+03</rscale>
<asrwt>0</asrwt>
<pdfrwt beam="1">  1       21 0.27244218E-01 0.64371032E+03</pdfrwt>
<pdfrwt beam="2">0</pdfrwt>
<totfact> 0.12298467E+03</totfact>
</mgrwt>
</event>
<event>
 6    1  0.1364923E-004  0.6579905E+03  0.7818608E-02  0.9791900E-01
         21   -1    0    0  501  502  0.00000000000E+00  0.00000000000E+00  0.12599557025E+03  0.12599557025E+03  0.00000000000E+00 0.  1.
         13   -1    0    0    0    0 -0.00000000000E+00 -0.00000000000E+00 -0.10000000000E+04  0.10000000000E+04  0.00000000000E+00 0.  1.
    9000005    2    1    2  501    0 -0.15413114962E+02  0.14770361771E+02 -0.88434247264E+03  0.11022763200E+04  0.65764409000E+03 0.  0.
         13    1    3    3    0    0  0.28575294084E+03 -0.11391229131E+02 -0.18555623903E+03  0.34090412309E+03  0.00000000000E+00 0.  1.
          1    1    3    3  501    0 -0.30116605580E+03  0.26161590902E+02 -0.69878623361E+03  0.76137219695E+03  0.00000000000E+00 0.  1.
         -3    1    1    2    0  502  0.15413114962E+02 -0.14770361771E+02  0.10338042893E+02  0.23719250211E+02  0.00000000000E+00 0. -1.
<mgrwt>
<rscale>  1 0.65799048E+03</rscale>
<asrwt>0</asrwt>
<pdfrwt beam="1">  1       21 0.19383933E-01 0.65799048E+03</pdfrwt>
<pdfrwt beam="2">0</pdfrwt>
<totfact> 0.23821059E+03</totfact>
</mgrwt>
</event>
<event>
 6    1  0.1364923E-004  0.6424005E+03  0.7818608E-02  0.9821145E-01
         21   -1    0    0  501  502  0.00000000000E+00  0.00000000000E+00  0.14198773906E+03  0.14198773906E+03  0.00000000000E+00 0.  1.
         13   -1    0    0    0    0 -0.00000000000E+00 -0.00000000000E+00 -0.10000000000E+04  0.10000000000E+04  0.00000000000E+00 0.  1.
    9000005    2    1    2  501    0 -0.10661175299E+02 -0.17935576305E+02 -0.89371309204E+03  0.11006368636E+04  0.64206157741E+03 0.  0.
         13    1    3    3    0    0  0.20047932827E+03  0.23674672672E+03 -0.39690819372E+03  0.50376292829E+03  0.00000000000E+00 0.  1.
          3    1    3    3  501    0 -0.21114050357E+03 -0.25468230303E+03 -0.49680489831E+03  0.59687393536E+03  0.00000000000E+00 0.  1.
         -3    1    1    2    0  502  0.10661175299E+02  0.17935576305E+02  0.35700831095E+02  0.41350875408E+02  0.00000000000E+00 0. -1.
<mgrwt>
<rscale>  1 0.64240051E+03</rscale>
<asrwt>0</asrwt>
<pdfrwt beam="1">  1       21 0.21844267E-01 0.64240051E+03</pdfrwt>
<pdfrwt beam="2">0</pdfrwt>
<totfact> 0.18943096E+03</totfact>
</mgrwt>
</event>
<event>
 6    1  0.1364923E-004  0.6763479E+03  0.7818608E-02  0.9758558E-01
         21   -1    0    0  501  502  0.00000000000E+00  0.00000000000E+00  0.17039207929E+03  0.17039207929E+03  0.00000000000E+00 0.  1.
         13   -1    0    0    0    0 -0.00000000000E+00 -0.00000000000E+00 -0.10000000000E+04  0.10000000000E+04  0.00000000000E+00 0.  1.
    9000005    2    1    2  501    0 -0.66658300796E+02 -0.33267209986E+02 -0.85635864091E+03  0.10912363002E+04  0.67223247823E+03 0.  0.
         13    1    3    3    0    0 -0.28349808656E+03 -0.13976078950E+03 -0.77392374389E+03  0.83597978727E+03  0.00000000000E+00 0.  1.
          1    1    3    3  501    0  0.21683978577E+03  0.10649357952E+03 -0.82434897014E+02  0.25525651297E+03  0.00000000000E+00 0.  1.
         -1    1    1    2    0  502  0.66658300796E+02  0.33267209986E+02  0.26750720196E+02  0.79155779046E+02  0.00000000000E+00 0. -1.
<mgrwt>
<rscale>  1 0.67634794E+03</rscale>
<asrwt>0</asrwt>
<pdfrwt beam="1">  1       21 0.26214165E-01 0.67634794E+03</pdfrwt>
<pdfrwt beam="2">0</pdfrwt>
<totfact> 0.13247189E+03</totfact>
</mgrwt>
</event>
<event>
 6    1  0.1364923E-004  0.6548684E+03  0.7818608E-02  0.9797687E-01
         21   -1    0    0  501  502  0.00000000000E+00  0.00000000000E+00  0.15108667449E+03  0.15108667449E+03  0.00000000000E+00 0. -1.
         13   -1    0    0    0    0 -0.00000000000E+00 -0.00000000000E+00 -0.10000000000E+04  0.10000000000E+04  0.00000000000E+00 0.  1.
    9000005    2    1    2  501    0 -0.71508265125E+01  0.20123455338E+02 -0.88989005406E+03  0.11048786659E+04  0.65452003046E+03 0.  0.
         13    1    3    3    0    0 -0.16732669493E+03 -0.27229759651E+03 -0.47709362588E+03  0.57424953788E+03  0.00000000000E+00 0.  1.
          3    1    3    3  501    0  0.16017586841E+03  0.29242105185E+03 -0.41279642818E+03  0.53062912803E+03  0.00000000000E+00 0.  1.
         -1    1    1    2    0  502  0.71508265125E+01 -0.20123455338E+02  0.40976728557E+02  0.46208008589E+02  0.00000000000E+00 0. -1.
<mgrwt>
<rscale>  1 0.65486835E+03</rscale>
<asrwt>0</asrwt>
<pdfrwt beam="1">  1       21 0.23244103E-01 0.65486835E+03</pdfrwt>
<pdfrwt beam="2">0</pdfrwt>
<totfact> 0.16783311E+03</totfact>
</mgrwt>
</event>
<event>
 6    1  0.1364923E-004  0.6114491E+03  0.7818608E-02  0.9881933E-01
         21   -1    0    0  501  502  0.00000000000E+00  0.00000000000E+00  0.13904663595E+03  0.13904663595E+03  0.00000000000E+00 0.  1.
         13   -1    0    0    0    0 -0.00000000000E+00 -0.00000000000E+00 -0.10000000000E+04  0.10000000000E+04  0.00000000000E+00 0.  1.
    9000005    2    1    2  501    0  0.33278702395E+02 -0.16141049145E+02 -0.89819089239E+03  0.10865619809E+04  0.61032946317E+03 0.  0.
         13    1    3    3    0    0  0.12582753037E+03  0.11954640935E+03 -0.86333420978E-01  0.17356243499E+03  0.00000000000E+00 0.  1.
          1    1    3    3  501    0 -0.92548827972E+02 -0.13568745849E+03 -0.89810455897E+03  0.91299954589E+03  0.00000000000E+00 0.  1.
         -3    1    1    2    0  502 -0.33278702395E+02  0.16141049145E+02  0.37237528339E+02  0.52484655065E+02  0.00000000000E+00 0. -1.
<mgrwt>
<rscale>  1 0.61144915E+03</rscale>
<asrwt>0</asrwt>
<pdfrwt beam="1">  1       21 0.21391790E-01 0.61144915E+03</pdfrwt>
<pdfrwt beam="2">0</pdfrwt>
<totfact> 0.19751862E+03</totfact>
</mgrwt>
</event>
<event>
 6    1  0.1364923E-004  0.6435332E+03  0.7818608E-02  0.9818990E-01
         21   -1    0    0  501  502  0.00000000000E+00  0.00000000000E+00  0.12015762988E+03  0.12015762988E+03  0.00000000000E+00 0.  1.
         13   -1    0    0    0    0 -0.00000000000E+00 -0.00000000000E+00 -0.10000000000E+04  0.10000000000E+04  0.00000000000E+00 0.  1.
    9000005    2    1    2  501    0  0.35163186344E+02  0.11380346477E+02 -0.86956941741E+03  0.10817975528E+04  0.64247101996E+03 0.  0.
         13    1    3    3    0    0 -0.21414022734E+02 -0.58652044360E+02  0.94646893703E+02  0.11338720018E+03  0.00000000000E+00 0.  1.
          1    1    3    3  501    0  0.56577209078E+02  0.70032390837E+02 -0.96421631111E+03  0.96841035257E+03  0.00000000000E+00 0.  1.
         -1    1    1    2    0  502 -0.35163186344E+02 -0.11380346477E+02 -0.10272952715E+02  0.38360077129E+02  0.00000000000E+00 0. -1.
<mgrwt>
<rscale>  1 0.64353320E+03</rscale>
<asrwt>0</asrwt>
<pdfrwt beam="1">  1       21 0.18485789E-01 0.64353320E+03</pdfrwt>
<pdfrwt beam="2">0</pdfrwt>
<totfact> 0.26090774E+03</totfact>
</mgrwt>
</event>
<event>
 6    1  0.1364923E-004  0.6402903E+03  0.7818608E-02  0.9825171E-01
         21   -1    0    0  501  502  0.00000000000E+00  0.00000000000E+00  0.13205856903E+03  0.13205856903E+03  0.00000000000E+00 0.  1.
         13   -1    0    0    0    0 -0.00000000000E+00 -0.00000000000E+00 -0.10000000000E+04  0.10000000000E+04  0.00000000000E+00 0.  1.
    9000005    2    1    2  501    0  0.53805628481E+02 -0.97158994514E+01 -0.86645147328E+03  0.10773624601E+04  0.63795162082E+03 0.  0.
         13    1    3    3    0    0 -0.10540153405E+03 -0.51183633224E+02 -0.90155734441E+03  0.90913964436E+03  0.00000000000E+00 0.  1.
          1    1    3    3  501    0  0.15920716253E+03  0.41467733773E+02  0.35105871130E+02  0.16822281573E+03  0.00000000000E+00 0.  1.
         -1    1    1    2    0  502 -0.53805628481E+02  0.97158994514E+01 -0.14899576953E+01  0.54696108932E+02  0.00000000000E+00 0. -1.
<mgrwt>
<rscale>  1 0.64029034E+03</rscale>
<asrwt>0</asrwt>
<pdfrwt beam="1">  1       21 0.20316702E-01 0.64029034E+03</pdfrwt>
<pdfrwt beam="2">0</pdfrwt>
<totfact> 0.21784528E+03</totfact>
</mgrwt>
</event>
<event>
 6    1  0.1364923E-004  0.7100706E+03  0.7818608E-02  0.9700163E-01
         21   -1    0    0  501  502  0.00000000000E+00  0.00000000000E+00  0.67238765658E+03  0.67238765658E+03  0.00000000000E+00 0. -1.
         13   -1    0    0    0    0 -0.00000000000E+00 -0.00000000000E+00 -0.10000000000E+04  0.10000000000E+04  0.00000000000E+00 0.  1.
    9000005    2    1    2  501    0 -0.52692910693E+02  0.28426402458E+03 -0.83028402746E+03  0.10925071513E+04  0.64855048438E+03 0.  0.
         13    1    3    3    0    0 -0.12645053944E+03  0.48020828190E+03 -0.52830654328E+03  0.72505002352E+03  0.00000000000E+00 0.  1.
          3    1    3    3  501    0  0.73757628742E+02 -0.19594425732E+03 -0.30197748419E+03  0.36745712774E+03  0.00000000000E+00 0.  1.
         -3    1    1    2    0  502  0.52692910693E+02 -0.28426402458E+03  0.50267168404E+03  0.57988050531E+03  0.00000000000E+00 0. -1.
<mgrwt>
<rscale>  1 0.71007064E+03</rscale>
<asrwt>0</asrwt>
<pdfrwt beam="1">  1       21 0.10344425E+00 0.71007064E+03</pdfrwt>
<pdfrwt beam="2">0</pdfrwt>
<totfact> 0.66121060E+01</totfact>
</mgrwt>
</event>
<event>
 6    1  0.1364923E-004  0.6605798E+03  0.7818608E-02  0.9787127E-01
         21   -1    0    0  501  502  0.00000000000E+00  0.00000000000E+00  0.13956559122E+03  0.13956559122E+03  0.00000000000E+00 0.  1.
         13   -1    0    0    0    0 -0.00000000000E+00 -0.00000000000E+00 -0.10000000000E+04  0.10000000000E+04  0.00000000000E+00 0.  1.
    9000005    2    1    2  501    0 -0.11570296934E+02  0.85451299345E+02 -0.77205727230E+03  0.10160896236E+04  0.65492739683E+03 0.  0.
         13    1    3    3    0    0 -0.11303377047E+03  0.29683047384E+03 -0.14990453949E+03  0.35122120441E+03  0.00000000000E+00 0.  1.
          3    1    3    3  501    0  0.10146347354E+03 -0.21137917450E+03 -0.62215273281E+03  0.66486841918E+03  0.00000000000E+00 0.  1.
         -3    1    1    2    0  502  0.11570296934E+02 -0.85451299345E+02 -0.88377136474E+02  0.12347596763E+03  0.00000000000E+00 0. -1.
<mgrwt>
<rscale>  1 0.66057981E+03</rscale>
<asrwt>0</asrwt>
<pdfrwt beam="1">  1       21 0.21471629E-01 0.66057981E+03</pdfrwt>
<pdfrwt beam="2">0</pdfrwt>
<totfact> 0.19567956E+03</totfact>
</mgrwt>
</event>
<event>
 6    1  0.1364923E-004  0.6530242E+03  0.7818608E-02  0.9801121E-01
         21   -1    0    0  501  502  0.00000000000E+00  0.00000000000E+00  0.38081403131E+03  0.38081403131E+03  0.00000000000E+00 0. -1.
         13   -1    0    0    0    0 -0.00000000000E+00 -0.00000000000E+00 -0.10000000000E+04  0.10000000000E+04  0.00000000000E+00 0.  1.
    9000005    2    1    2  501    0  0.12772748142E+02  0.34095550214E+02 -0.89205156943E+03  0.11055300221E+04  0.65200841842E+03 0.  0.
         13    1    3    3    0    0 -0.15920543194E+03  0.10104942783E+02  0.34193306081E+02  0.16314920046E+03  0.00000000000E+00 0.  1.
          3    1    3    3  501    0  0.17197818009E+03  0.23990607431E+02 -0.92624487551E+03  0.94238082168E+03  0.00000000000E+00 0.  1.
         -1    1    1    2    0  502 -0.12772748142E+02 -0.34095550214E+02  0.27286560074E+03  0.27528400917E+03  0.00000000000E+00 0. -1.
<mgrwt>
<rscale>  1 0.65302422E+03</rscale>
<asrwt>0</asrwt>
<pdfrwt beam="1">  1       21 0.58586772E-01 0.65302422E+03</pdfrwt>
<pdfrwt beam="2">0</pdfrwt>
<totfact> 0.24995706E+02</totfact>
</mgrwt>
</event>
<event>
 6    1  0.1364923E-004  0.6918684E+03  0.7818608E-02  0.9731240E-01
         21   -1    0    0  501  502  0.00000000000E+00  0.00000000000E+00  0.41013330231E+03  0.41013330231E+03  0.00000000000E+00 0. -1.
         13   -1    0    0    0    0 -0.00000000000E+00 -0.00000000000E+00 -0.10000000000E+04  0.10000000000E+04  0.00000000000E+00 0.  1.
    9000005    2    1    2  501    0 -0.17353687677E+03 -0.87317914304E+02 -0.84330817058E+03  0.10908026806E+04  0.66403490252E+03 0.  0.
         13    1    3    3    0    0 -0.17745779239E+03 -0.10805749901E+02  0.57414751118E+02  0.18682742293E+03  0.00000000000E+00 0.  1.
          1    1    3    3  501    0  0.39209156221E+01 -0.76512164403E+02 -0.90072292170E+03  0.90397525771E+03  0.00000000000E+00 0.  1.
         -3    1    1    2    0  502  0.17353687677E+03  0.87317914304E+02  0.25344147289E+03  0.31933062167E+03  0.00000000000E+00 0. -1.
<mgrwt>
<rscale>  1 0.69186835E+03</rscale>
<asrwt>0</asrwt>
<pdfrwt beam="1">  1       21 0.63097429E-01 0.69186835E+03</pdfrwt>
<pdfrwt beam="2">0</pdfrwt>
<totfact> 0.21119835E+02</totfact>
</mgrwt>
</event>
<event>
 6    1  0.1364923E-004  0.6472393E+03  0.7818608E-02  0.9811973E-01
         21   -1    0    0  501  502  0.00000000000E+00  0.00000000000E+00  0.12615600225E+03  0.12615600225E+03  0.00000000000E+00 0.  1.
         13   -1    0    0    0    0 -0.00000000000E+00 -0.00000000000E+00 -0.10000000000E+04  0.10000000000E+04  0.00000000000E+00 0.  1.
    9000005    2    1    2  501    0 -0.12936346734E+02 -0.31690063123E+02 -0.87895303654E+03  0.10915480343E+04  0.64633355290E+03 0.  0.
         13    1    3    3    0    0 -0.29569957778E+03 -0.20892510439E+02 -0.69084637651E+03  0.75176023653E+03  0.00000000000E+00 0.  1.
          3    1    3    3  501    0  0.28276323104E+03 -0.10797552684E+02 -0.18810666003E+03  0.33978779778E+03  0.00000000000E+00 0.  1.
         -3    1    1    2    0  502  0.12936346734E+02  0.31690063123E+02  0.51090387859E+01  0.34607967939E+02  0.00000000000E+00 0. -1.
<mgrwt>
<rscale>  1 0.64723927E+03</rscale>
<asrwt>0</asrwt>
<pdfrwt beam="1">  1       21 0.19408615E-01 0.64723927E+03</pdfrwt>
<pdfrwt beam="2">0</pdfrwt>
<totfact> 0.23772700E+03</totfact>
</mgrwt>
</event>
<event>
 6    1  0.1364923E-004  0.6508250E+03  0.7818608E-02  0.9805232E-01
         21   -1    0    0  501  502  0.00000000000E+00  0.00000000000E+00  0.15230959702E+03  0.15230959702E+03  0.00000000000E+00 0.  1.
         13   -1    0    0    0    0 -0.00000000000E+00 -0.00000000000E+00 -0.10000000000E+04  0.10000000000E+04  0.00000000000E+00 0.  1.
    9000005    2    1    2  501    0 -0.21727549173E+02  0.13482818278E+02 -0.89017872666E+03  0.11027199768E+04  0.65032246550E+03 0.  0.
         13    1    3    3    0    0  0.51393258495E+02 -0.29638674085E+03 -0.26390933644E+03  0.40016809597E+03  0.00000000000E+00 0.  1.
          3    1    3    3  501    0 -0.73120807668E+02  0.30986955913E+03 -0.62626939021E+03  0.70255188086E+03  0.00000000000E+00 0.  1.
         -3    1    1    2    0  502  0.21727549173E+02 -0.13482818278E+02  0.42488323676E+02  0.49589620190E+02  0.00000000000E+00 0. -1.
<mgrwt>
<rscale>  1 0.65082500E+03</rscale>
<asrwt>0</asrwt>
<pdfrwt beam="1">  1       21 0.23432245E-01 0.65082500E+03</pdfrwt>
<pdfrwt beam="2">0</pdfrwt>
<totfact> 0.16525179E+03</totfact>
</mgrwt>
</event>
<event>
 6    1  0.1364923E-004  0.6513833E+03  0.7818608E-02  0.9804187E-01
         21   -1    0    0  501  502  0.00000000000E+00  0.00000000000E+00  0.17381557600E+03  0.17381557600E+03  0.00000000000E+00 0. -1.
         13   -1    0    0    0    0 -0.00000000000E+00 -0.00000000000E+00 -0.10000000000E+04  0.10000000000E+04  0.00000000000E+00 0.  1.
    9000005    2    1    2  501    0 -0.58566639102E+02 -0.34029246568E+02 -0.87462904594E+03  0.10905393955E+04  0.64785196178E+03 0.  0.
         13    1    3    3    0    0 -0.15817779223E+03  0.11466173940E+03  0.24558789673E+01  0.19538055118E+03  0.00000000000E+00 0.  1.
          3    1    3    3  501    0  0.99611153126E+02 -0.14869098597E+03 -0.87708492491E+03  0.89515884436E+03  0.00000000000E+00 0.  1.
         -3    1    1    2    0  502  0.58566639102E+02  0.34029246568E+02  0.48444621940E+02  0.83276180464E+02  0.00000000000E+00 0. -1.
<mgrwt>
<rscale>  1 0.65138330E+03</rscale>
<asrwt>0</asrwt>
<pdfrwt beam="1">  1       21 0.26740857E-01 0.65138330E+03</pdfrwt>
<pdfrwt beam="2">0</pdfrwt>
<totfact> 0.12754636E+03</totfact>
</mgrwt>
</event>
<event>
 6    1  0.1364923E-004  0.6523299E+03  0.7818608E-02  0.9802417E-01
         21   -1    0    0  501  502  0.00000000000E+00  0.00000000000E+00  0.12324584458E+03  0.12324584458E+03  0.00000000000E+00 0.  1.
         13   -1    0    0    0    0 -0.00000000000E+00 -0.00000000000E+00 -0.10000000000E+04  0.10000000000E+04  0.00000000000E+00 0.  1.
    9000005    2    1    2  501    0 -0.11345318998E+02 -0.31111101541E+02 -0.87317202640E+03  0.10899374590E+04  0.65148880261E+03 0.  0.
         13    1    3    3    0    0  0.17778570987E+02  0.22554485714E+03 -0.78507448539E+03  0.81702417821E+03  0.00000000000E+00 0.  1.
          3    1    3    3  501    0 -0.29123889985E+02 -0.25665595868E+03 -0.88097541008E+02  0.27291328078E+03  0.00000000000E+00 0.  1.
         -1    1    1    2    0  502  0.11345318998E+02  0.31111101541E+02 -0.35821290160E+01  0.33308385589E+02  0.00000000000E+00 0. -1.
<mgrwt>
<rscale>  1 0.65232988E+03</rscale>
<asrwt>0</asrwt>
<pdfrwt beam="1">  1       21 0.18960899E-01 0.65232988E+03</pdfrwt>
<pdfrwt beam="2">0</pdfrwt>
<totfact> 0.24851779E+03</totfact>
</mgrwt>
</event>
<event>
 6    1  0.1364923E-004  0.6499308E+03  0.7818608E-02  0.9806909E-01
         21   -1    0    0  501  502  0.00000000000E+00  0.00000000000E+00  0.17117436835E+03  0.17117436835E+03  0.00000000000E+00 0.  1.
         13   -1    0    0    0    0 -0.00000000000E+00 -0.00000000000E+00 -0.10000000000E+04  0.10000000000E+04  0.00000000000E+00 0.  1.
    9000005    2    1    2  501    0  0.57856946709E+01  0.33817596192E+02 -0.88939699268E+03  0.11015611954E+04  0.64902461623E+03 0.  0.
         13    1    3    3    0    0 -0.89430118972E+02  0.92393674000E+02 -0.96050334746E+03  0.96907224584E+03  0.00000000000E+00 0.  1.
          3    1    3    3  501    0  0.95215813643E+02 -0.58576077808E+02  0.71106354773E+02  0.13248894953E+03  0.00000000000E+00 0.  1.
         -3    1    1    2    0  502 -0.57856946709E+01 -0.33817596192E+02  0.60571361039E+02  0.69613172986E+02  0.00000000000E+00 0. -1.
<mgrwt>
<rscale>  1 0.64993081E+03</rscale>
<asrwt>0</asrwt>
<pdfrwt beam="1">  1       21 0.26334517E-01 0.64993081E+03</pdfrwt>
<pdfrwt beam="2">0</pdfrwt>
<totfact> 0.13146837E+03</totfact>
</mgrwt>
</event>
<event>
 6    1  0.1364923E-004  0.6010297E+03  0.7818608E-02  0.9903272E-01
         21   -1    0    0  501  502  0.00000000000E+00  0.00000000000E+00  0.13431315217E+03  0.13431315217E+03  0.00000000000E+00 0.  1.
         13   -1    0    0    0    0 -0.00000000000E+00 -0.00000000000E+00 -0.10000000000E+04  0.10000000000E+04  0.00000000000E+00 0.  1.
    9000005    2    1    2  501    0  0.61489897416E+02  0.65416459692E+02 -0.85324183039E+03  0.10436754164E+04  0.59428649069E+03 0.  0.
         13    1    3    3    0    0  0.70426850417E+01  0.53479202433E+02 -0.93946046305E+03  0.94100775031E+03  0.00000000000E+00 0.  1.
          3    1    3    3  501    0  0.54447212375E+02  0.11937257259E+02  0.86218632659E+02  0.10266766611E+03  0.00000000000E+00 0.  1.
         -3    1    1    2    0  502 -0.61489897416E+02 -0.65416459692E+02 -0.12445017443E+02  0.90637735751E+02  0.00000000000E+00 0. -1.
<mgrwt>
<rscale>  1 0.60102974E+03</rscale>
<asrwt>0</asrwt>
<pdfrwt beam="1">  1       21 0.20663561E-01 0.60102974E+03</pdfrwt>
<pdfrwt beam="2">0</pdfrwt>
<totfact> 0.21122946E+03</totfact>
</mgrwt>
</event>
<event>
 6    1  0.1364923E-004  0.6545307E+03  0.7818608E-02  0.9798315E-01
         21   -1    0    0  501  502  0.00000000000E+00  0.00000000000E+00  0.16848364393E+03  0.16848364393E+03  0.00000000000E+00 0. -1.
         13   -1    0    0    0    0 -0.00000000000E+00 -0.00000000000E+00 -0.10000000000E+04  0.10000000000E+04  0.00000000000E+00 0.  1.
    9000005    2    1    2  501    0 -0.18808196302E+02  0.53968599426E+02 -0.87778476469E+03  0.10949504976E+04  0.65203078232E+03 0.  0.
         13    1    3    3    0    0 -0.17776196391E+03 -0.35235885965E+02 -0.89378875439E+03  0.91197544975E+03  0.00000000000E+00 0.  1.
          1    1    3    3  501    0  0.15895376760E+03  0.89204485391E+02  0.16003989699E+02  0.18297504785E+03  0.00000000000E+00 0.  1.
         -1    1    1    2    0  502  0.18808196302E+02 -0.53968599426E+02  0.46268408621E+02  0.73533146325E+02  0.00000000000E+00 0. -1.
<mgrwt>
<rscale>  1 0.65453075E+03</rscale>
<asrwt>0</asrwt>
<pdfrwt beam="1">  1       21 0.25920560E-01 0.65453075E+03</pdfrwt>
<pdfrwt beam="2">0</pdfrwt>
<totfact> 0.13560144E+03</totfact>
</mgrwt>
</event>
<event>
 6    1  0.1364923E-004  0.6497064E+03  0.7818608E-02  0.9807330E-01
         21   -1    0    0  501  502  0.00000000000E+00  0.00000000000E+00  0.10088079471E+04  0.10088079471E+04  0.00000000000E+00 0. -1.
         13   -1    0    0    0    0 -0.00000000000E+00 -0.00000000000E+00 -0.10000000000E+04  0.10000000000E+04  0.00000000000E+00 0.  1.
    9000005    2    1    2  501    0 -0.27552165465E+02 -0.11102003318E+02 -0.89420039351E+03  0.11053111626E+04  0.64902699961E+03 0.  0.
         13    1    3    3    0    0  0.79946742154E+02  0.24870464844E+03 -0.73973288640E+03  0.78450635877E+03  0.00000000000E+00 0.  1.
          3    1    3    3  501    0 -0.10749890762E+03 -0.25980665176E+03 -0.15446750711E+03  0.32080480388E+03  0.00000000000E+00 0.  1.
         -1    1    1    2    0  502  0.27552165465E+02  0.11102003318E+02  0.90300834060E+03  0.90349678444E+03  0.00000000000E+00 0. -1.
<mgrwt>
<rscale>  1 0.64970641E+03</rscale>
<asrwt>0</asrwt>
<pdfrwt beam="1">  1       21 0.15520122E+00 0.64970641E+03</pdfrwt>
<pdfrwt beam="2">0</pdfrwt>
<totfact> 0.23116627E+01</totfact>
</mgrwt>
</event>
<event>
 6    1  0.1364923E-004  0.7031674E+03  0.7818608E-02  0.9711831E-01
         21   -1    0    0  501  502  0.00000000000E+00  0.00000000000E+00  0.13380224974E+04  0.13380224974E+04  0.00000000000E+00 0. -1.
         13   -1    0    0    0    0 -0.00000000000E+00 -0.00000000000E+00 -0.10000000000E+04  0.10000000000E+04  0.00000000000E+00 0.  1.
    9000005    2    1    2  501    0 -0.81489732974E+02  0.18066416190E+03 -0.86728740321E+03  0.11165266634E+04  0.67465860575E+03 0.  0.
         13    1    3    3    0    0 -0.36619124082E+03  0.37445595725E+02 -0.58287114692E+03  0.68937433329E+03  0.00000000000E+00 0.  1.
          1    1    3    3  501    0  0.28470150784E+03  0.14321856618E+03 -0.28441625629E+03  0.42715233010E+03  0.00000000000E+00 0.  1.
         -3    1    1    2    0  502  0.81489732974E+02 -0.18066416190E+03  0.12053099006E+04  0.12214958340E+04  0.00000000000E+00 0. -1.
<mgrwt>
<rscale>  1 0.70316737E+03</rscale>
<asrwt>0</asrwt>
<pdfrwt beam="1">  1       21 0.20584961E+00 0.70316737E+03</pdfrwt>
<pdfrwt beam="2">0</pdfrwt>
<totfact> 0.98926219E+00</totfact>
</mgrwt>
</event>
<event>
 6    1  0.1364923E-004  0.6674752E+03  0.7818608E-02  0.9774530E-01
         21   -1    0    0  501  502  0.00000000000E+00  0.00000000000E+00  0.19574688089E+03  0.19574688089E+03  0.00000000000E+00 0.  1.
         13   -1    0    0    0    0 -0.00000000000E+00 -0.00000000000E+00 -0.10000000000E+04  0.10000000000E+04  0.00000000000E+00 0.  1.
    9000005    2    1    2  501    0  0.93873118013E+02  0.10777570014E+03 -0.81378201943E+03  0.10525038574E+04  0.65199342860E+03 0.  0.
         13    1    3    3    0    0  0.15408763975E+03  0.36801162682E+03 -0.45375881850E+03  0.60421239938E+03  0.00000000000E+00 0.  1.
          3    1    3    3  501    0 -0.60214521740E+02 -0.26023592667E+03 -0.36002320093E+03  0.44829145806E+03  0.00000000000E+00 0.  1.
         -3    1    1    2    0  502 -0.93873118013E+02 -0.10777570014E+03  0.95289003205E+01  0.14324302345E+03  0.00000000000E+00 0. -1.
<mgrwt>
<rscale>  1 0.66747524E+03</rscale>
<asrwt>0</asrwt>
<pdfrwt beam="1">  1       21 0.30114904E-01 0.66747524E+03</pdfrwt>
<pdfrwt beam="2">0</pdfrwt>
<totfact> 0.10059590E+03</totfact>
</mgrwt>
</event>
<event>
 6    1  0.1364923E-004  0.6455942E+03  0.7818608E-02  0.9815082E-01
         21   -1    0    0  501  502  0.00000000000E+00  0.00000000000E+00  0.13867497597E+03  0.13867497597E+03  0.00000000000E+00 0.  1.
         13   -1    0    0    0    0 -0.00000000000E+00 -0.00000000000E+00 -0.10000000000E+04  0.10000000000E+04  0.00000000000E+00 0.  1.
    9000005    2    1    2  501    0 -0.45761746632E+02  0.60217583545E+02 -0.84125395583E+03  0.10604244641E+04  0.64114860300E+03 0.  0.
         13    1    3    3    0    0  0.50358109971E+02  0.16011307831E+02 -0.92437216942E+03  0.92588131465E+03  0.00000000000E+00 0.  1.
          1    1    3    3  501    0 -0.96119856603E+02  0.44206275714E+02  0.83118213587E+02  0.13454314949E+03  0.00000000000E+00 0.  1.
         -3    1    1    2    0  502  0.45761746632E+02 -0.60217583545E+02 -0.20071068201E+02  0.78250511830E+02  0.00000000000E+00 0. -1.
<mgrwt>
<rscale>  1 0.64559417E+03</rscale>
<asrwt>0</asrwt>
<pdfrwt beam="1">  1       21 0.21334611E-01 0.64559417E+03</pdfrwt>
<pdfrwt beam="2">0</pdfrwt>
<totfact> 0.19823989E+03</totfact>
</mgrwt>
</event>
<event>
 6    1  0.1364923E-004  0.6529938E+03  0.7818608E-02  0.9801178E-01
         21   -1    0    0  501  502  0.00000000000E+00  0.00000000000E+00  0.15436551474E+03  0.15436551474E+03  0.00000000000E+00 0.  1.
         13   -1    0    0    0    0 -0.00000000000E+00 -0.00000000000E+00 -0.10000000000E+04  0.10000000000E+04  0.00000000000E+00 0.  1.
    9000005    2    1    2  501    0 -0.57176745842E+02 -0.47465426077E+01 -0.87348828474E+03  0.10905882141E+04  0.65046841523E+03 0.  0.
         13    1    3    3    0    0  0.18374926656E+02 -0.31767759517E+03 -0.32661161110E+03  0.45599543518E+03  0.00000000000E+00 0.  1.
          3    1    3    3  501    0 -0.75551672498E+02  0.31293105256E+03 -0.54687667365E+03  0.63459277892E+03  0.00000000000E+00 0.  1.
         -1    1    1    2    0  502  0.57176745842E+02  0.47465426077E+01  0.27853799483E+02  0.63777300644E+02  0.00000000000E+00 0. -1.
<mgrwt>
<rscale>  1 0.65299377E+03</rscale>
<asrwt>0</asrwt>
<pdfrwt beam="1">  1       21 0.23748540E-01 0.65299377E+03</pdfrwt>
<pdfrwt beam="2">0</pdfrwt>
<totfact> 0.16097296E+03</totfact>
</mgrwt>
</event>
<event>
 6    1  0.1364923E-004  0.6766626E+03  0.7818608E-02  0.9757996E-01
         21   -1    0    0  501  502  0.00000000000E+00  0.00000000000E+00  0.22610145136E+03  0.22610145136E+03  0.00000000000E+00 0.  1.
         13   -1    0    0    0    0 -0.00000000000E+00 -0.00000000000E+00 -0.10000000000E+04  0.10000000000E+04  0.00000000000E+00 0.  1.
    9000005    2    1    2  501    0  0.37367429290E+02 -0.55267264058E+02 -0.87429469159E+03  0.11055602519E+04  0.67336577547E+03 0.  0.
         13    1    3    3    0    0  0.23101081091E+03  0.51127701919E+02 -0.36843100631E+02  0.23945239762E+03  0.00000000000E+00 0.  1.
          3    1    3    3  501    0 -0.19364338162E+03 -0.10639496598E+03 -0.83745159096E+03  0.86610785427E+03  0.00000000000E+00 0.  1.
         -1    1    1    2    0  502 -0.37367429290E+02  0.55267264058E+02  0.10039614295E+03  0.12054119946E+03  0.00000000000E+00 0. -1.
<mgrwt>
<rscale>  1 0.67666259E+03</rscale>
<asrwt>0</asrwt>
<pdfrwt beam="1">  1       21 0.34784838E-01 0.67666259E+03</pdfrwt>
<pdfrwt beam="2">0</pdfrwt>
<totfact> 0.75122883E+02</totfact>
</mgrwt>
</event>
<event>
 6    1  0.1364923E-004  0.6942066E+03  0.7818608E-02  0.9727191E-01
         21   -1    0    0  501  502  0.00000000000E+00  0.00000000000E+00  0.11044326851E+04  0.11044326851E+04  0.00000000000E+00 0.  1.
         13   -1    0    0    0    0 -0.00000000000E+00 -0.00000000000E+00 -0.10000000000E+04  0.10000000000E+04  0.00000000000E+00 0.  1.
    9000005    2    1    2  501    0  0.24307825187E+03 -0.91915030182E+02 -0.86021520133E+03  0.11053926688E+04  0.64372925241E+03 0.  0.
         13    1    3    3    0    0  0.88141891282E+02 -0.11046690107E+03 -0.92551130470E+03  0.93623880733E+03  0.00000000000E+00 0.  1.
          3    1    3    3  501    0  0.15493636059E+03  0.18551870887E+02  0.65296103367E+02  0.16915386150E+03  0.00000000000E+00 0.  1.
         -1    1    1    2    0  502 -0.24307825187E+03  0.91915030182E+02  0.96464788640E+03  0.99904001623E+03  0.00000000000E+00 0. -1.
<mgrwt>
<rscale>  1 0.69420657E+03</rscale>
<asrwt>0</asrwt>
<pdfrwt beam="1">  1       21 0.16991272E+00 0.69420657E+03</pdfrwt>
<pdfrwt beam="2">0</pdfrwt>
<totfact> 0.17714459E+01</totfact>
</mgrwt>
</event>
<event>
 6    1  0.1364923E-004  0.6529350E+03  0.7818608E-02  0.9801287E-01
         21   -1    0    0  501  502  0.00000000000E+00  0.00000000000E+00  0.14999683800E+03  0.14999683800E+03  0.00000000000E+00 0.  1.
         13   -1    0    0    0    0 -0.00000000000E+00 -0.00000000000E+00 -0.10000000000E+04  0.10000000000E+04  0.00000000000E+00 0.  1.
    9000005    2    1    2  501    0  0.29110001715E+02 -0.91211895545E+02 -0.82293820300E+03  0.10505005361E+04  0.64587699160E+03 0.  0.
         13    1    3    3    0    0 -0.24668059025E+03  0.14164138192E+03 -0.28479201161E+03  0.40251718541E+03  0.00000000000E+00 0.  1.
          3    1    3    3  501    0  0.27579059196E+03 -0.23285327747E+03 -0.53814619139E+03  0.64798335068E+03  0.00000000000E+00 0.  1.
         -3    1    1    2    0  502 -0.29110001715E+02  0.91211895545E+02 -0.27064958997E+02  0.99496301913E+02  0.00000000000E+00 0. -1.
<mgrwt>
<rscale>  1 0.65293498E+03</rscale>
<asrwt>0</asrwt>
<pdfrwt beam="1">  1       21 0.23076436E-01 0.65293498E+03</pdfrwt>
<pdfrwt beam="2">0</pdfrwt>
<totfact> 0.17022894E+03</totfact>
</mgrwt>
</event>
<event>
 6    1  0.1364923E-004  0.6960092E+03  0.7818608E-02  0.9724081E-01
         21   -1    0    0  501  502  0.00000000000E+00  0.00000000000E+00  0.27673419850E+03  0.27673419850E+03  0.00000000000E+00 0. -1.
         13   -1    0    0    0    0 -0.00000000000E+00 -0.00000000000E+00 -0.10000000000E+04  0.10000000000E+04  0.00000000000E+00 0.  1.
    9000005    2    1    2  501    0  0.41552567420E+02  0.93287293935E+01 -0.87561803100E+03  0.11185417749E+04  0.69470506326E+03 0.  0.
         13    1    3    3    0    0  0.19592574825E+03 -0.29444572637E+03 -0.40819100281E+03  0.54009728696E+03  0.00000000000E+00 0.  1.
          3    1    3    3  501    0 -0.15437318083E+03  0.30377445576E+03 -0.46742702819E+03  0.57844448793E+03  0.00000000000E+00 0.  1.
         -1    1    1    2    0  502 -0.41552567420E+02 -0.93287293935E+01  0.15235222950E+03  0.15819242360E+03  0.00000000000E+00 0. -1.
<mgrwt>
<rscale>  1 0.69600917E+03</rscale>
<asrwt>0</asrwt>
<pdfrwt beam="1">  1       21 0.42574491E-01 0.69600917E+03</pdfrwt>
<pdfrwt beam="2">0</pdfrwt>
<totfact> 0.49399359E+02</totfact>
</mgrwt>
</event>
<event>
 6    1  0.1364923E-004  0.7667531E+03  0.7818608E-02  0.9609428E-01
         21   -1    0    0  501  502  0.00000000000E+00  0.00000000000E+00  0.35439137810E+03  0.35439137810E+03  0.00000000000E+00 0. -1.
         13   -1    0    0    0    0 -0.00000000000E+00 -0.00000000000E+00 -0.10000000000E+04  0.10000000000E+04  0.00000000000E+00 0.  1.
    9000005    2    1    2  501    0  0.19850173819E+02  0.77984727384E+02 -0.84401041996E+03  0.11402911199E+04  0.76251859120E+03 0.  0.
         13    1    3    3    0    0 -0.39410346805E+02 -0.19917346898E+03 -0.83221368010E+03  0.85662293661E+03  0.00000000000E+00 0.  1.
          3    1    3    3  501    0  0.59260520623E+02  0.27715819636E+03 -0.11796739858E+02  0.28366818325E+03  0.00000000000E+00 0.  1.
         -1    1    1    2    0  502 -0.19850173819E+02 -0.77984727384E+02  0.19840179806E+03  0.21410025824E+03  0.00000000000E+00 0. -1.
<mgrwt>
<rscale>  1 0.76675306E+03</rscale>
<asrwt>0</asrwt>
<pdfrwt beam="1">  1       21 0.54521749E-01 0.76675306E+03</pdfrwt>
<pdfrwt beam="2">0</pdfrwt>
<totfact> 0.28943919E+02</totfact>
</mgrwt>
</event>
<event>
 6    1  0.1364923E-004  0.6693911E+03  0.7818608E-02  0.9771058E-01
         21   -1    0    0  501  502  0.00000000000E+00  0.00000000000E+00  0.30329156061E+03  0.30329156061E+03  0.00000000000E+00 0. -1.
         13   -1    0    0    0    0 -0.00000000000E+00 -0.00000000000E+00 -0.10000000000E+04  0.10000000000E+04  0.00000000000E+00 0.  1.
    9000005    2    1    2  501    0 -0.64821513327E+02  0.13048229374E+03 -0.85649972469E+03  0.10870493066E+04  0.65334291073E+03 0.  0.
         13    1    3    3    0    0  0.78153133771E+02  0.12654056460E+02  0.91567979325E+02  0.12104847087E+03  0.00000000000E+00 0.  1.
          1    1    3    3  501    0 -0.14297464710E+03  0.11782823728E+03 -0.94806770401E+03  0.96600083571E+03  0.00000000000E+00 0.  1.
         -3    1    1    2    0  502  0.64821513327E+02 -0.13048229374E+03  0.15979128530E+03  0.21624225403E+03  0.00000000000E+00 0. -1.
<mgrwt>
<rscale>  1 0.66939108E+03</rscale>
<asrwt>0</asrwt>
<pdfrwt beam="1">  1       21 0.46660239E-01 0.66939108E+03</pdfrwt>
<pdfrwt beam="2">0</pdfrwt>
<totfact> 0.40804226E+02</totfact>
</mgrwt>
</event>
<event>
 6    1  0.1364923E-004  0.6864557E+03  0.7818608E-02  0.9740679E-01
         21   -1    0    0  501  502  0.00000000000E+00  0.00000000000E+00  0.20552008088E+03  0.20552008088E+03  0.00000000000E+00 0.  1.
         13   -1    0    0    0    0 -0.00000000000E+00 -0.00000000000E+00 -0.10000000000E+04  0.10000000000E+04  0.00000000000E+00 0.  1.
    9000005    2    1    2  501    0  0.12477617553E+03 -0.17819005164E+03 -0.56231067742E+03  0.88736391596E+03  0.65107651849E+03 0.  0.
         13    1    3    3    0    0 -0.25552535596E+02 -0.68512080775E+02 -0.66891876041E+03  0.67290351858E+03  0.00000000000E+00 0.  1.
          1    1    3    3  501    0  0.15032871113E+03 -0.10967797087E+03  0.10660808300E+03  0.21446039738E+03  0.00000000000E+00 0.  1.
         -3    1    1    2    0  502 -0.12477617553E+03  0.17819005164E+03 -0.23216924170E+03  0.31815616492E+03  0.00000000000E+00 0. -1.
<mgrwt>
<rscale>  1 0.68645570E+03</rscale>
<asrwt>0</asrwt>
<pdfrwt beam="1">  1       21 0.31618473E-01 0.68645570E+03</pdfrwt>
<pdfrwt beam="2">0</pdfrwt>
<totfact> 0.91103536E+02</totfact>
</mgrwt>
</event>
<event>
 6    1  0.1364923E-004  0.6489867E+03  0.7818608E-02  0.9808682E-01
         21   -1    0    0  501  502  0.00000000000E+00  0.00000000000E+00  0.23122688362E+03  0.23122688362E+03  0.00000000000E+00 0. -1.
         13   -1    0    0    0    0 -0.00000000000E+00 -0.00000000000E+00 -0.10000000000E+04  0.10000000000E+04  0.00000000000E+00 0.  1.
    9000005    2    1    2  501    0 -0.10647597781E+03  0.13996396169E+01 -0.86926772496E+03  0.10848087864E+04  0.64019109065E+03 0.  0.
         13    1    3    3    0    0  0.10818271593E+03  0.18843929639E+03 -0.57798606737E+02  0.22484116036E+03  0.00000000000E+00 0.  1.
          1    1    3    3  501    0 -0.21465869374E+03 -0.18703965677E+03 -0.81146911822E+03  0.85996762604E+03  0.00000000000E+00 0.  1.
         -1    1    1    2    0  502  0.10647597781E+03 -0.13996396169E+01  0.10049460858E+03  0.14641809723E+03  0.00000000000E+00 0. -1.
<mgrwt>
<rscale>  1 0.64898669E+03</rscale>
<asrwt>0</asrwt>
<pdfrwt beam="1">  1       21 0.35573366E-01 0.64898669E+03</pdfrwt>
<pdfrwt beam="2">0</pdfrwt>
<totfact> 0.71905221E+02</totfact>
</mgrwt>
</event>
<event>
 6    1  0.1364923E-004  0.6529620E+03  0.7818608E-02  0.9801237E-01
         21   -1    0    0  501  502  0.00000000000E+00  0.00000000000E+00  0.44890312688E+03  0.44890312688E+03  0.00000000000E+00 0.  1.
         13   -1    0    0    0    0 -0.00000000000E+00 -0.00000000000E+00 -0.10000000000E+04  0.10000000000E+04  0.00000000000E+00 0.  1.
    9000005    2    1    2  501    0 -0.60840311765E+02 -0.26059082281E+02 -0.88986522333E+03  0.11037298162E+04  0.64959893178E+03 0.  0.
         13    1    3    3    0    0 -0.15312876649E+03 -0.28594518362E+03 -0.25854034512E+03  0.41479654919E+03  0.00000000000E+00 0.  1.
          1    1    3    3  501    0  0.92288454726E+02  0.25988610134E+03 -0.63132487821E+03  0.68893326701E+03  0.00000000000E+00 0.  1.
         -1    1    1    2    0  502  0.60840311765E+02  0.26059082281E+02  0.33876835020E+03  0.34517331068E+03  0.00000000000E+00 0. -1.
<mgrwt>
<rscale>  1 0.65296201E+03</rscale>
<asrwt>0</asrwt>
<pdfrwt beam="1">  1       21 0.69062018E-01 0.65296201E+03</pdfrwt>
<pdfrwt beam="2">0</pdfrwt>
<totfact> 0.17313376E+02</totfact>
</mgrwt>
</event>
<event>
 6    1  0.1364923E-004  0.6500877E+03  0.7818608E-02  0.9806615E-01
         21   -1    0    0  501  502  0.00000000000E+00  0.00000000000E+00  0.22053708717E+03  0.22053708717E+03  0.00000000000E+00 0. -1.
         13   -1    0    0    0    0 -0.00000000000E+00 -0.00000000000E+00 -0.10000000000E+04  0.10000000000E+04  0.00000000000E+00 0.  1.
    9000005    2    1    2  501    0  0.43914267660E+00  0.32795390977E+02 -0.89175206323E+03  0.11035559613E+04  0.64925979925E+03 0.  0.
         13    1    3    3    0    0 -0.31724702513E+03  0.41108516766E+02 -0.34006408200E+03  0.46688238880E+03  0.00000000000E+00 0.  1.
          3    1    3    3  501    0  0.31768616781E+03 -0.83131257886E+01 -0.55168798122E+03  0.63667357249E+03  0.00000000000E+00 0.  1.
         -1    1    1    2    0  502 -0.43914267660E+00 -0.32795390977E+02  0.11228915039E+03  0.11698112588E+03  0.00000000000E+00 0. -1.
<mgrwt>
<rscale>  1 0.65008770E+03</rscale>
<asrwt>0</asrwt>
<pdfrwt beam="1">  1       21 0.33928782E-01 0.65008770E+03</pdfrwt>
<pdfrwt beam="2">0</pdfrwt>
<totfact> 0.79177788E+02</totfact>
</mgrwt>
</event>
<event>
 6    1  0.1364923E-004  0.6619367E+03  0.7818608E-02  0.9784635E-01
         21   -1    0    0  501  502  0.00000000000E+00  0.00000000000E+00  0.16889373098E+03  0.16889373098E+03  0.00000000000E+00 0.  1.
         13   -1    0    0    0    0 -0.00000000000E+00 -0.00000000000E+00 -0.10000000000E+04  0.10000000000E+04  0.00000000000E+00 0.  1.
    9000005    2    1    2  501    0  0.22121103186E+02 -0.27499043498E+02 -0.88457813072E+03  0.11048251693E+04  0.66099519272E+03 0.  0.
         13    1    3    3    0    0 -0.25023575350E+03  0.37824376378E+02 -0.75487622074E+03  0.79617003487E+03  0.00000000000E+00 0.  1.
          3    1    3    3  501    0  0.27235685669E+03 -0.65323419876E+02 -0.12970190998E+03  0.30865513445E+03  0.00000000000E+00 0.  1.
         -1    1    1    2    0  502 -0.22121103186E+02  0.27499043498E+02  0.53471861705E+02  0.64068561664E+02  0.00000000000E+00 0. -1.
<mgrwt>
<rscale>  1 0.66193669E+03</rscale>
<asrwt>0</asrwt>
<pdfrwt beam="1">  1       21 0.25983650E-01 0.66193669E+03</pdfrwt>
<pdfrwt beam="2">0</pdfrwt>
<totfact> 0.13490051E+03</totfact>
</mgrwt>
</event>
<event>
 6    1  0.1364923E-004  0.6667845E+03  0.7818608E-02  0.9775784E-01
         21   -1    0    0  501  502  0.00000000000E+00  0.00000000000E+00  0.16897299737E+03  0.16897299737E+03  0.00000000000E+00 0.  1.
         13   -1    0    0    0    0 -0.00000000000E+00 -0.00000000000E+00 -0.10000000000E+04  0.10000000000E+04  0.00000000000E+00 0.  1.
    9000005    2    1    2  501    0  0.90006930049E+02  0.90763580448E+02 -0.79202819336E+03  0.10353310050E+04  0.65441756999E+03 0.  0.
         13    1    3    3    0    0  0.23012048705E+03 -0.10856010479E+03 -0.56690964112E+02  0.26068103177E+03  0.00000000000E+00 0.  1.
          1    1    3    3  501    0 -0.14011355700E+03  0.19932368524E+03 -0.73533722925E+03  0.77464997326E+03  0.00000000000E+00 0.  1.
         -1    1    1    2    0  502 -0.90006930049E+02 -0.90763580448E+02 -0.38998809265E+02  0.13364199234E+03  0.00000000000E+00 0. -1.
<mgrwt>
<rscale>  1 0.66678455E+03</rscale>
<asrwt>0</asrwt>
<pdfrwt beam="1">  1       21 0.25995845E-01 0.66678455E+03</pdfrwt>
<pdfrwt beam="2">0</pdfrwt>
<totfact> 0.13474116E+03</totfact>
</mgrwt>
</event>
<event>
 6    1  0.1364923E-004  0.6285193E+03  0.7818608E-02  0.9847943E-01
         21   -1    0    0  501  502  0.00000000000E+00  0.00000000000E+00  0.10644398729E+03  0.10644398729E+03  0.00000000000E+00 0.  1.
         13   -1    0    0    0    0 -0.00000000000E+00 -0.00000000000E+00 -0.10000000000E+04  0.10000000000E+04  0.00000000000E+00 0.  1.
    9000005    2    1    2  501    0  0.21875490044E+02 -0.95953772204E+01 -0.86449291403E+03  0.10688238858E+04  0.62806519739E+03 0.  0.
         13    1    3    3    0    0  0.18273219096E+03  0.93975553330E+02 -0.85273954164E+03  0.87714718498E+03  0.00000000000E+00 0.  1.
          3    1    3    3  501    0 -0.16085670092E+03 -0.10357093055E+03 -0.11753372389E+02  0.19167670085E+03  0.00000000000E+00 0.  1.
         -1    1    1    2    0  502 -0.21875490044E+02  0.95953772204E+01 -0.29063098682E+02  0.37620101457E+02  0.00000000000E+00 0. -1.
<mgrwt>
<rscale>  1 0.62851929E+03</rscale>
<asrwt>0</asrwt>
<pdfrwt beam="1">  1       21 0.16375998E-01 0.62851929E+03</pdfrwt>
<pdfrwt beam="2">0</pdfrwt>
<totfact> 0.32826871E+03</totfact>
</mgrwt>
</event>
<event>
 6    1  0.1364923E-004  0.6371026E+03  0.7818608E-02  0.9831286E-01
         21   -1    0    0  501  502  0.00000000000E+00  0.00000000000E+00  0.16612557212E+03  0.16612557212E+03  0.00000000000E+00 0.  1.
         13   -1    0    0    0    0 -0.00000000000E+00 -0.00000000000E+00 -0.10000000000E+04  0.10000000000E+04  0.00000000000E+00 0.  1.
    9000005    2    1    2  501    0 -0.90743018256E+02 -0.11247435378E+02 -0.86069227314E+03  0.10708365539E+04  0.63050688815E+03 0.  0.
         13    1    3    3    0    0 -0.28390354053E+03  0.78121766783E+00 -0.82702129488E+03  0.87439467795E+03  0.00000000000E+00 0.  1.
          1    1    3    3  501    0  0.19316052228E+03 -0.12028653046E+02 -0.33670978255E+02  0.19644187598E+03  0.00000000000E+00 0.  1.
         -3    1    1    2    0  502  0.90743018256E+02  0.11247435378E+02  0.26817845259E+02  0.95289018198E+02  0.00000000000E+00 0. -1.
<mgrwt>
<rscale>  1 0.63710261E+03</rscale>
<asrwt>0</asrwt>
<pdfrwt beam="1">  1       21 0.25557780E-01 0.63710261E+03</pdfrwt>
<pdfrwt beam="2">0</pdfrwt>
<totfact> 0.13954304E+03</totfact>
</mgrwt>
</event>
<event>
 6    1  0.1364923E-004  0.6709369E+03  0.7818608E-02  0.9768267E-01
         21   -1    0    0  501  502  0.00000000000E+00  0.00000000000E+00  0.20116053151E+03  0.20116053151E+03  0.00000000000E+00 0.  1.
         13   -1    0    0    0    0 -0.00000000000E+00 -0.00000000000E+00 -0.10000000000E+04  0.10000000000E+04  0.00000000000E+00 0.  1.
    9000005    2    1    2  501    0 -0.30803536587E+02  0.12925800870E+03 -0.82740303245E+03  0.10652474421E+04  0.65764720342E+03 0.  0.
         13    1    3    3    0    0  0.31115115816E+03  0.32663552713E+02 -0.33962595155E+03  0.46176589076E+03  0.00000000000E+00 0.  1.
          3    1    3    3  501    0 -0.34195469475E+03  0.96594455982E+02 -0.48777708090E+03  0.60348155137E+03  0.00000000000E+00 0.  1.
         -1    1    1    2    0  502  0.30803536587E+02 -0.12925800870E+03  0.28563563960E+02  0.13591308938E+03  0.00000000000E+00 0. -1.
<mgrwt>
<rscale>  1 0.67093691E+03</rscale>
<asrwt>0</asrwt>
<pdfrwt beam="1">  1       21 0.30947773E-01 0.67093691E+03</pdfrwt>
<pdfrwt beam="2">0</pdfrwt>
<totfact> 0.95215245E+02</totfact>
</mgrwt>
</event>
<event>
 6    1  0.1364923E-004  0.6699526E+03  0.7818608E-02  0.9770044E-01
         21   -1    0    0  501  502  0.00000000000E+00  0.00000000000E+00  0.23877067650E+03  0.23877067650E+03  0.00000000000E+00 0. -1.
         13   -1    0    0    0    0 -0.00000000000E+00 -0.00000000000E+00 -0.10000000000E+04  0.10000000000E+04  0.00000000000E+00 0.  1.
    9000005    2    1    2  501    0 -0.27222845916E+02 -0.17884760282E+02 -0.88545516421E+03  0.11103455719E+04  0.66916028964E+03 0.  0.
         13    1    3    3    0    0 -0.25963092023E+03  0.17932530352E+03 -0.65892602160E+03  0.73058146785E+03  0.00000000000E+00 0.  1.
          3    1    3    3  501    0  0.23240807432E+03 -0.19721006381E+03 -0.22652914261E+03  0.37976410405E+03  0.00000000000E+00 0.  1.
         -1    1    1    2    0  502  0.27222845916E+02  0.17884760282E+02  0.12422584071E+03  0.12842510460E+03  0.00000000000E+00 0. -1.
<mgrwt>
<rscale>  1 0.66995257E+03</rscale>
<asrwt>0</asrwt>
<pdfrwt beam="1">  1       21 0.36733949E-01 0.66995257E+03</pdfrwt>
<pdfrwt beam="2">0</pdfrwt>
<totfact> 0.67226265E+02</totfact>
</mgrwt>
</event>
<event>
 6    1  0.1364923E-004  0.6295743E+03  0.7818608E-02  0.9845880E-01
         21   -1    0    0  501  502  0.00000000000E+00  0.00000000000E+00  0.11701881524E+03  0.11701881524E+03  0.00000000000E+00 0.  1.
         13   -1    0    0    0    0 -0.00000000000E+00 -0.00000000000E+00 -0.10000000000E+04  0.10000000000E+04  0.00000000000E+00 0.  1.
    9000005    2    1    2  501    0 -0.12950969077E+02  0.18943824419E+02 -0.89247203647E+03  0.10921859268E+04  0.62915591602E+03 0.  0.
         13    1    3    3    0    0  0.16056310601E+03  0.21475487599E+03 -0.74515894342E+03  0.79193561527E+03  0.00000000000E+00 0.  1.
          1    1    3    3  501    0 -0.17351407508E+03 -0.19581105157E+03 -0.14731309304E+03  0.30025031149E+03  0.00000000000E+00 0.  1.
         -3    1    1    2    0  502  0.12950969077E+02 -0.18943824419E+02  0.94908517039E+01  0.24832888470E+02  0.00000000000E+00 0. -1.
<mgrwt>
<rscale>  1 0.62957427E+03</rscale>
<asrwt>0</asrwt>
<pdfrwt beam="1">  1       21 0.18002894E-01 0.62957427E+03</pdfrwt>
<pdfrwt beam="2">0</pdfrwt>
<totfact> 0.27449106E+03</totfact>
</mgrwt>
</event>
<event>
 6    1  0.1364923E-004  0.6513275E+03  0.7818608E-02  0.9804291E-01
         21   -1    0    0  501  502  0.00000000000E+00  0.00000000000E+00  0.15168931317E+03  0.15168931317E+03  0.00000000000E+00 0. -1.
         13   -1    0    0    0    0 -0.00000000000E+00 -0.00000000000E+00 -0.10000000000E+04  0.10000000000E+04  0.00000000000E+00 0.  1.
    9000005    2    1    2  501    0  0.21273009353E+02 -0.18434510677E+02 -0.88908994925E+03  0.11021381239E+04  0.65071893647E+03 0.  0.
         13    1    3    3    0    0 -0.14131599742E+03  0.25630875649E+02  0.46919238795E+02  0.15109125680E+03  0.00000000000E+00 0.  1.
          1    1    3    3  501    0  0.16258900677E+03 -0.44065386326E+02 -0.93600918804E+03  0.95104686714E+03  0.00000000000E+00 0.  1.
         -1    1    1    2    0  502 -0.21273009353E+02  0.18434510677E+02  0.40779262421E+02  0.49551189234E+02  0.00000000000E+00 0. -1.
<mgrwt>
<rscale>  1 0.65132750E+03</rscale>
<asrwt>0</asrwt>
<pdfrwt beam="1">  1       21 0.23336817E-01 0.65132750E+03</pdfrwt>
<pdfrwt beam="2">0</pdfrwt>
<totfact> 0.16656596E+03</totfact>
</mgrwt>
</event>
<event>
 6    1  0.1364923E-004  0.6467433E+03  0.7818608E-02  0.9812909E-01
         21   -1    0    0  501  502  0.00000000000E+00  0.00000000000E+00  0.23612080301E+03  0.23612080301E+03  0.00000000000E+00 0.  1.
         13   -1    0    0    0    0 -0.00000000000E+00 -0.00000000000E+00 -0.10000000000E+04  0.10000000000E+04  0.00000000000E+00 0.  1.
    9000005    2    1    2  501    0  0.11154318032E+01  0.57618119176E+02 -0.88841960717E+03  0.10988932343E+04  0.64417066850E+03 0.  0.
         13    1    3    3    0    0  0.34324221053E+02 -0.59869873444E+02 -0.95657885997E+03  0.95906499740E+03  0.00000000000E+00 0.  1.
          3    1    3    3  501    0 -0.33208789250E+02  0.11748799262E+03  0.68159252803E+02  0.13982823690E+03  0.00000000000E+00 0.  1.
         -3    1    1    2    0  502 -0.11154318032E+01 -0.57618119176E+02  0.12454041017E+03  0.13722756870E+03  0.00000000000E+00 0. -1.
<mgrwt>
<rscale>  1 0.64674334E+03</rscale>
<asrwt>0</asrwt>
<pdfrwt beam="1">  1       21 0.36326276E-01 0.64674334E+03</pdfrwt>
<pdfrwt beam="2">0</pdfrwt>
<totfact> 0.68900939E+02</totfact>
</mgrwt>
</event>
<event>
 6    1  0.1364923E-004  0.6382153E+03  0.7818608E-02  0.9829147E-01
         21   -1    0    0  501  502  0.00000000000E+00  0.00000000000E+00  0.12047074758E+03  0.12047074758E+03  0.00000000000E+00 0.  1.
         13   -1    0    0    0    0 -0.00000000000E+00 -0.00000000000E+00 -0.10000000000E+04  0.10000000000E+04  0.00000000000E+00 0.  1.
    9000005    2    1    2  501    0  0.37193184065E+02  0.32576758277E+02 -0.84983156202E+03  0.10627946612E+04  0.63629728116E+03 0.  0.
         13    1    3    3    0    0  0.29780306170E+03  0.16885372893E+03 -0.41737104670E+03  0.53981185237E+03  0.00000000000E+00 0.  1.
          1    1    3    3  501    0 -0.26060987764E+03 -0.13627697066E+03 -0.43246051533E+03  0.52298280887E+03  0.00000000000E+00 0.  1.
         -1    1    1    2    0  502 -0.37193184065E+02 -0.32576758277E+02 -0.29697690400E+02  0.57676086343E+02  0.00000000000E+00 0. -1.
<mgrwt>
<rscale>  1 0.63821533E+03</rscale>
<asrwt>0</asrwt>
<pdfrwt beam="1">  1       21 0.18533961E-01 0.63821533E+03</pdfrwt>
<pdfrwt beam="2">0</pdfrwt>
<totfact> 0.25966836E+03</totfact>
</mgrwt>
</event>
<event>
 6    1  0.1364923E-004  0.6539035E+03  0.7818608E-02  0.9799482E-01
         21   -1    0    0  501  502  0.00000000000E+00  0.00000000000E+00  0.25038711955E+03  0.25038711955E+03  0.00000000000E+00 0. -1.
         13   -1    0    0    0    0 -0.00000000000E+00 -0.00000000000E+00 -0.10000000000E+04  0.10000000000E+04  0.00000000000E+00 0.  1.
    9000005    2    1    2  501    0 -0.41677501354E+02 -0.11314581792E+02 -0.88949586306E+03  0.11039894327E+04  0.65247585650E+03 0.  0.
         13    1    3    3    0    0 -0.22089631520E+03 -0.25844520218E+03 -0.37871092336E+03  0.50893129995E+03  0.00000000000E+00 0.  1.
          1    1    3    3  501    0  0.17921881385E+03  0.24713062039E+03 -0.51078493970E+03  0.59505813279E+03  0.00000000000E+00 0.  1.
         -1    1    1    2    0  502  0.41677501354E+02  0.11314581792E+02  0.13988298261E+03  0.14639768681E+03  0.00000000000E+00 0. -1.
<mgrwt>
<rscale>  1 0.65390349E+03</rscale>
<asrwt>0</asrwt>
<pdfrwt beam="1">  1       21 0.38521094E-01 0.65390349E+03</pdfrwt>
<pdfrwt beam="2">0</pdfrwt>
<totfact> 0.61037678E+02</totfact>
</mgrwt>
</event>
<event>
 6    1  0.1364923E-004  0.6536055E+03  0.7818608E-02  0.9800037E-01
         21   -1    0    0  501  502  0.00000000000E+00  0.00000000000E+00  0.14621234611E+03  0.14621234611E+03  0.00000000000E+00 0.  1.
         13   -1    0    0    0    0 -0.00000000000E+00 -0.00000000000E+00 -0.10000000000E+04  0.10000000000E+04  0.00000000000E+00 0.  1.
    9000005    2    1    2  501    0  0.75925723068E+02  0.19383234194E+02 -0.84362670373E+03  0.10671954486E+04  0.64889111951E+03 0.  0.
         13    1    3    3    0    0  0.13353223136E+02  0.27224816536E+03 -0.11946265974E+03  0.29760493810E+03  0.00000000000E+00 0.  1.
          3    1    3    3  501    0  0.62572499931E+02 -0.25286493117E+03 -0.72416404399E+03  0.76959051045E+03  0.00000000000E+00 0.  1.
         -3    1    1    2    0  502 -0.75925723068E+02 -0.19383234194E+02 -0.10160950160E+02  0.79016897556E+02  0.00000000000E+00 0. -1.
<mgrwt>
<rscale>  1 0.65360547E+03</rscale>
<asrwt>0</asrwt>
<pdfrwt beam="1">  1       21 0.22494206E-01 0.65360547E+03</pdfrwt>
<pdfrwt beam="2">0</pdfrwt>
<totfact> 0.17888457E+03</totfact>
</mgrwt>
</event>
<event>
 6    1  0.1364923E-004  0.6493304E+03  0.7818608E-02  0.9808036E-01
         21   -1    0    0  501  502  0.00000000000E+00  0.00000000000E+00  0.12542984408E+03  0.12542984408E+03  0.00000000000E+00 0.  1.
         13   -1    0    0    0    0 -0.00000000000E+00 -0.00000000000E+00 -0.10000000000E+04  0.10000000000E+04  0.00000000000E+00 0.  1.
    9000005    2    1    2  501    0 -0.43368343853E+02  0.31260256984E+02 -0.84022004732E+03  0.10618850026E+04  0.64712596451E+03 0.  0.
         13    1    3    3    0    0 -0.11294652631E+03  0.37911277728E+02  0.77097049930E+02  0.14190890702E+03  0.00000000000E+00 0.  1.
          3    1    3    3  501    0  0.69578182457E+02 -0.66510207446E+01 -0.91731709725E+03  0.91997609559E+03  0.00000000000E+00 0.  1.
         -3    1    1    2    0  502  0.43368343853E+02 -0.31260256984E+02 -0.34350108600E+02  0.63544841460E+02  0.00000000000E+00 0. -1.
<mgrwt>
<rscale>  1 0.64933045E+03</rscale>
<asrwt>0</asrwt>
<pdfrwt beam="1">  1       21 0.19296899E-01 0.64933045E+03</pdfrwt>
<pdfrwt beam="2">0</pdfrwt>
<totfact> 0.24034606E+03</totfact>
</mgrwt>
</event>
<event>
 6    1  0.1364923E-004  0.6433478E+03  0.7818608E-02  0.9819342E-01
         21   -1    0    0  501  502  0.00000000000E+00  0.00000000000E+00  0.11336311590E+03  0.11336311590E+03  0.00000000000E+00 0.  1.
         13   -1    0    0    0    0 -0.00000000000E+00 -0.00000000000E+00 -0.10000000000E+04  0.10000000000E+04  0.00000000000E+00 0.  1.
    9000005    2    1    2  501    0 -0.62852563401E+01 -0.20747107362E+02 -0.88111905663E+03  0.10909936427E+04  0.64298241777E+03 0.  0.
         13    1    3    3    0    0  0.19506891724E+03 -0.18161510416E+03 -0.12931306393E+03  0.29623942518E+03  0.00000000000E+00 0.  1.
          3    1    3    3  501    0 -0.20135417358E+03  0.16086799680E+03 -0.75180599270E+03  0.79475421752E+03  0.00000000000E+00 0.  1.
         -1    1    1    2    0  502  0.62852563401E+01  0.20747107362E+02 -0.55178274675E+01  0.22369473197E+02  0.00000000000E+00 0. -1.
<mgrwt>
<rscale>  1 0.64334776E+03</rscale>
<asrwt>0</asrwt>
<pdfrwt beam="1">  1       21 0.17440479E-01 0.64334776E+03</pdfrwt>
<pdfrwt beam="2">0</pdfrwt>
<totfact> 0.29136632E+03</totfact>
</mgrwt>
</event>
<event>
 6    1  0.1364923E-004  0.6659655E+03  0.7818608E-02  0.9777274E-01
         21   -1    0    0  501  502  0.00000000000E+00  0.00000000000E+00  0.95135544730E+03  0.95135544730E+03  0.00000000000E+00 0. -1.
         13   -1    0    0    0    0 -0.00000000000E+00 -0.00000000000E+00 -0.10000000000E+04  0.10000000000E+04  0.00000000000E+00 0.  1.
    9000005    2    1    2  501    0 -0.11188087647E+03  0.68127397523E+02 -0.88344600109E+03  0.11063393936E+04  0.65295585159E+03 0.  0.
         13    1    3    3    0    0  0.18457970563E+02  0.34371577071E+03 -0.34355827812E+03  0.48632655508E+03  0.00000000000E+00 0.  1.
          1    1    3    3  501    0 -0.13033884703E+03 -0.27558837319E+03 -0.53988772298E+03  0.62001283850E+03  0.00000000000E+00 0.  1.
         -1    1    1    2    0  502  0.11188087647E+03 -0.68127397523E+02  0.83480144839E+03  0.84501605372E+03  0.00000000000E+00 0. -1.
<mgrwt>
<rscale>  1 0.66596548E+03</rscale>
<asrwt>0</asrwt>
<pdfrwt beam="1">  1       21 0.14636237E+00 0.66596548E+03</pdfrwt>
<pdfrwt beam="2">0</pdfrwt>
<totfact> 0.27081726E+01</totfact>
</mgrwt>
</event>
<event>
 6    1  0.1364923E-004  0.6926491E+03  0.7818608E-02  0.9729886E-01
         21   -1    0    0  501  502  0.00000000000E+00  0.00000000000E+00  0.17857979119E+03  0.17857979119E+03  0.00000000000E+00 0.  1.
         13   -1    0    0    0    0 -0.00000000000E+00 -0.00000000000E+00 -0.10000000000E+04  0.10000000000E+04  0.00000000000E+00 0.  1.
    9000005    2    1    2  501    0 -0.13075040778E+03 -0.47878043293E+02 -0.75406820784E+03  0.10239050738E+04  0.67850922021E+03 0.  0.
         13    1    3    3    0    0  0.12041167699E+03  0.33302413881E+02  0.80478999945E+02  0.14860986561E+03  0.00000000000E+00 0.  1.
          1    1    3    3  501    0 -0.25116208477E+03 -0.81180457174E+02 -0.83454720779E+03  0.87529520819E+03  0.00000000000E+00 0.  1.
         -1    1    1    2    0  502  0.13075040778E+03  0.47878043293E+02 -0.67352000966E+02  0.15467471739E+03  0.00000000000E+00 0. -1.
<mgrwt>
<rscale>  1 0.69264907E+03</rscale>
<asrwt>0</asrwt>
<pdfrwt beam="1">  1       21 0.27473813E-01 0.69264907E+03</pdfrwt>
<pdfrwt beam="2">0</pdfrwt>
<totfact> 0.12062527E+03</totfact>
</mgrwt>
</event>
<event>
 6    1  0.1364923E-004  0.6601269E+03  0.7818608E-02  0.9787960E-01
         21   -1    0    0  501  502  0.00000000000E+00  0.00000000000E+00  0.16897094658E+03  0.16897094658E+03  0.00000000000E+00 0.  1.
         13   -1    0    0    0    0 -0.00000000000E+00 -0.00000000000E+00 -0.10000000000E+04  0.10000000000E+04  0.00000000000E+00 0.  1.
    9000005    2    1    2  501    0 -0.82196593237E+02  0.52334244890E+02 -0.84309551261E+03  0.10707836125E+04  0.65289535792E+03 0.  0.
         13    1    3    3    0    0 -0.51866519958E+02 -0.22174480230E+03 -0.52812968761E+02  0.23377361466E+03  0.00000000000E+00 0.  1.
          3    1    3    3  501    0 -0.30330073279E+02  0.27407904719E+03 -0.79028254384E+03  0.83700999789E+03  0.00000000000E+00 0.  1.
         -3    1    1    2    0  502  0.82196593237E+02 -0.52334244890E+02  0.12066459187E+02  0.98187334037E+02  0.00000000000E+00 0. -1.
<mgrwt>
<rscale>  1 0.66012688E+03</rscale>
<asrwt>0</asrwt>
<pdfrwt beam="1">  1       21 0.25995529E-01 0.66012688E+03</pdfrwt>
<pdfrwt beam="2">0</pdfrwt>
<totfact> 0.13479221E+03</totfact>
</mgrwt>
</event>
<event>
 6    1  0.1364923E-004  0.6401892E+03  0.7818608E-02  0.9825365E-01
         21   -1    0    0  501  502  0.00000000000E+00  0.00000000000E+00  0.12080633344E+03  0.12080633344E+03  0.00000000000E+00 0.  1.
         13   -1    0    0    0    0 -0.00000000000E+00 -0.00000000000E+00 -0.10000000000E+04  0.10000000000E+04  0.00000000000E+00 0.  1.
    9000005    2    1    2  501    0 -0.21883978965E+02  0.16777573620E+02 -0.88534266870E+03  0.10925537983E+04  0.63959500134E+03 0.  0.
         13    1    3    3    0    0 -0.20106494682E+02 -0.10352444914E+03  0.71991684466E+02  0.12768862647E+03  0.00000000000E+00 0.  1.
          3    1    3    3  501    0 -0.17774842834E+01  0.12030202276E+03 -0.95733435317E+03  0.96486517187E+03  0.00000000000E+00 0.  1.
         -1    1    1    2    0  502  0.21883978965E+02 -0.16777573620E+02  0.61490021453E+01  0.28252535096E+02  0.00000000000E+00 0. -1.
<mgrwt>
<rscale>  1 0.64018916E+03</rscale>
<asrwt>0</asrwt>
<pdfrwt beam="1">  1       21 0.18585589E-01 0.64018916E+03</pdfrwt>
<pdfrwt beam="2">0</pdfrwt>
<totfact> 0.25827989E+03</totfact>
</mgrwt>
</event>
<event>
 6    1  0.1364923E-004  0.6247986E+03  0.7818608E-02  0.9855252E-01
         21   -1    0    0  501  502  0.00000000000E+00  0.00000000000E+00  0.13232481130E+03  0.13232481130E+03  0.00000000000E+00 0.  1.
         13   -1    0    0    0    0 -0.00000000000E+00 -0.00000000000E+00 -0.10000000000E+04  0.10000000000E+04  0.00000000000E+00 0.  1.
    9000005    2    1    2  501    0  0.51712644443E+02  0.85642160605E+02 -0.77927439881E+03  0.99882021617E+03  0.61673694418E+03 0.  0.
         13    1    3    3    0    0 -0.24496092241E+03  0.56436480162E+02 -0.60104766263E+03  0.65149767655E+03  0.00000000000E+00 0.  1.
          1    1    3    3  501    0  0.29667356685E+03  0.29205680443E+02 -0.17822673619E+03  0.34732253962E+03  0.00000000000E+00 0.  1.
         -3    1    1    2    0  502 -0.51712644443E+02 -0.85642160605E+02 -0.88400789885E+02  0.13350459513E+03  0.00000000000E+00 0. -1.
<mgrwt>
<rscale>  1 0.62479856E+03</rscale>
<asrwt>0</asrwt>
<pdfrwt beam="1">  1       21 0.20357663E-01 0.62479856E+03</pdfrwt>
<pdfrwt beam="2">0</pdfrwt>
<totfact> 0.21714334E+03</totfact>
</mgrwt>
</event>
<event>
 6    1  0.1364923E-004  0.5350080E+03  0.7818608E-02  0.1005025E+00
         21   -1    0    0  501  502  0.00000000000E+00  0.00000000000E+00  0.15869109709E+03  0.15869109709E+03  0.00000000000E+00 0.  1.
         13   -1    0    0    0    0 -0.00000000000E+00 -0.00000000000E+00 -0.10000000000E+04  0.10000000000E+04  0.00000000000E+00 0.  1.
    9000005    2    1    2  501    0 -0.20993236109E+02  0.28400425458E+01 -0.92706023907E+03  0.10703617506E+04  0.53458844769E+03 0.  0.
         13    1    3    3    0    0  0.10784235969E+03 -0.20402048183E+03 -0.20637733509E+03  0.30958994814E+03  0.00000000000E+00 0.  1.
          3    1    3    3  501    0 -0.12883559580E+03  0.20686052437E+03 -0.72068290398E+03  0.76077180243E+03  0.00000000000E+00 0.  1.
         -3    1    1    2    0  502  0.20993236109E+02 -0.28400425458E+01  0.85751336164E+02  0.88329346527E+02  0.00000000000E+00 0. -1.
<mgrwt>
<rscale>  1 0.53500803E+03</rscale>
<asrwt>0</asrwt>
<pdfrwt beam="1">  1       21 0.24414014E-01 0.53500803E+03</pdfrwt>
<pdfrwt beam="2">0</pdfrwt>
<totfact> 0.15351499E+03</totfact>
</mgrwt>
</event>
<event>
 6    1  0.1364923E-004  0.6443555E+03  0.7818608E-02  0.9817429E-01
         21   -1    0    0  501  502  0.00000000000E+00  0.00000000000E+00  0.12627275177E+03  0.12627275177E+03  0.00000000000E+00 0.  1.
         13   -1    0    0    0    0 -0.00000000000E+00 -0.00000000000E+00 -0.10000000000E+04  0.10000000000E+04  0.00000000000E+00 0.  1.
    9000005    2    1    2  501    0  0.15110060591E+02 -0.13395036774E+02 -0.89108277643E+03  0.10996465372E+04  0.64403901392E+03 0.  0.
         13    1    3    3    0    0  0.23083230703E+03  0.22485802573E+03 -0.47178244398E+03  0.57133471814E+03  0.00000000000E+00 0.  1.
          1    1    3    3  501    0 -0.21572224644E+03 -0.23825306250E+03 -0.41930033245E+03  0.52831181909E+03  0.00000000000E+00 0.  1.
         -1    1    1    2    0  502 -0.15110060591E+02  0.13395036774E+02  0.17355528202E+02  0.26626214534E+02  0.00000000000E+00 0. -1.
<mgrwt>
<rscale>  1 0.64435549E+03</rscale>
<asrwt>0</asrwt>
<pdfrwt beam="1">  1       21 0.19426577E-01 0.64435549E+03</pdfrwt>
<pdfrwt beam="2">0</pdfrwt>
<totfact> 0.23733276E+03</totfact>
</mgrwt>
</event>
<event>
 6    1  0.1364923E-004  0.6860269E+03  0.7818608E-02  0.9741431E-01
         21   -1    0    0  501  502  0.00000000000E+00  0.00000000000E+00  0.25142753312E+03  0.25142753312E+03  0.00000000000E+00 0.  1.
         13   -1    0    0    0    0 -0.00000000000E+00 -0.00000000000E+00 -0.10000000000E+04  0.10000000000E+04  0.00000000000E+00 0.  1.
    9000005    2    1    2  501    0  0.37056811800E+02 -0.32038207340E+02 -0.87730699386E+03  0.11136878059E+04  0.68427575832E+03 0.  0.
         13    1    3    3    0    0 -0.28629016137E+03 -0.83748680384E+02 -0.64969003520E+03  0.71489372623E+03  0.00000000000E+00 0.  1.
          1    1    3    3  501    0  0.32334697317E+03  0.51710473044E+02 -0.22761695865E+03  0.39879407963E+03  0.00000000000E+00 0.  1.
         -1    1    1    2    0  502 -0.37056811800E+02  0.32038207340E+02  0.12873452697E+03  0.13773972726E+03  0.00000000000E+00 0. -1.
<mgrwt>
<rscale>  1 0.68602694E+03</rscale>
<asrwt>0</asrwt>
<pdfrwt beam="1">  1       21 0.38681158E-01 0.68602694E+03</pdfrwt>
<pdfrwt beam="2">0</pdfrwt>
<totfact> 0.60368790E+02</totfact>
</mgrwt>
</event>
<event>
 6    1  0.1364923E-004  0.6728378E+03  0.7818608E-02  0.9764845E-01
         21   -1    0    0  501  502  0.00000000000E+00  0.00000000000E+00  0.18414499956E+03  0.18414499956E+03  0.00000000000E+00 0.  1.
         13   -1    0    0    0    0 -0.00000000000E+00 -0.00000000000E+00 -0.10000000000E+04  0.10000000000E+04  0.00000000000E+00 0.  1.
    9000005    2    1    2  501    0  0.34817858886E+02 -0.34889332189E+02 -0.87715147756E+03  0.11054887417E+04  0.67102987606E+03 0.  0.
         13    1    3    3    0    0 -0.33692492189E+02 -0.30934132838E+03 -0.71418423086E+03  0.77902911183E+03  0.00000000000E+00 0.  1.
          3    1    3    3  501    0  0.68510351076E+02  0.27445199619E+03 -0.16296724670E+03  0.32645962983E+03  0.00000000000E+00 0.  1.
         -1    1    1    2    0  502 -0.34817858886E+02  0.34889332189E+02  0.61296477123E+02  0.78656257893E+02  0.00000000000E+00 0. -1.
<mgrwt>
<rscale>  1 0.67283775E+03</rscale>
<asrwt>0</asrwt>
<pdfrwt beam="1">  1       21 0.28329999E-01 0.67283775E+03</pdfrwt>
<pdfrwt beam="2">0</pdfrwt>
<totfact> 0.11361405E+03</totfact>
</mgrwt>
</event>
<event>
 6    1  0.1364923E-004  0.6202993E+03  0.7818608E-02  0.9864164E-01
         21   -1    0    0  501  502  0.00000000000E+00  0.00000000000E+00  0.16376198994E+03  0.16376198994E+03  0.00000000000E+00 0. -1.
         13   -1    0    0    0    0 -0.00000000000E+00 -0.00000000000E+00 -0.10000000000E+04  0.10000000000E+04  0.00000000000E+00 0.  1.
    9000005    2    1    2  501    0 -0.64380845939E+02  0.43393959823E+02 -0.87845572462E+03  0.10753862891E+04  0.61542122293E+03 0.  0.
         13    1    3    3    0    0  0.99846271201E+02 -0.32801017650E+02  0.59057415261E+02  0.12055273920E+03  0.00000000000E+00 0.  1.
          1    1    3    3  501    0 -0.16422711714E+03  0.76194977473E+02 -0.93751313988E+03  0.95483354992E+03  0.00000000000E+00 0.  1.
         -3    1    1    2    0  502  0.64380845939E+02 -0.43393959823E+02  0.42217714563E+02  0.88375700823E+02  0.00000000000E+00 0. -1.
<mgrwt>
<rscale>  1 0.62029929E+03</rscale>
<asrwt>0</asrwt>
<pdfrwt beam="1">  1       21 0.25194152E-01 0.62029929E+03</pdfrwt>
<pdfrwt beam="2">0</pdfrwt>
<totfact> 0.14365396E+03</totfact>
</mgrwt>
</event>
<event>
 6    1  0.1364923E-004  0.6602710E+03  0.7818608E-02  0.9787695E-01
         21   -1    0    0  501  502  0.00000000000E+00  0.00000000000E+00  0.17899636891E+03  0.17899636891E+03  0.00000000000E+00 0.  1.
         13   -1    0    0    0    0 -0.00000000000E+00 -0.00000000000E+00 -0.10000000000E+04  0.10000000000E+04  0.00000000000E+00 0.  1.
    9000005    2    1    2  501    0 -0.16364505356E+02 -0.67197500909E+02 -0.87149049725E+03  0.10933679576E+04  0.65663879174E+03 0.  0.
         13    1    3    3    0    0 -0.55787169645E+02 -0.26628076883E+02  0.10144171304E+03  0.11879260886E+03  0.00000000000E+00 0.  1.
          1    1    3    3  501    0  0.39422664289E+02 -0.40569424026E+02 -0.97293221028E+03  0.97457534877E+03  0.00000000000E+00 0.  1.
         -1    1    1    2    0  502  0.16364505356E+02  0.67197500909E+02  0.50486866157E+02  0.85628411280E+02  0.00000000000E+00 0. -1.
<mgrwt>
<rscale>  1 0.66027101E+03</rscale>
<asrwt>0</asrwt>
<pdfrwt beam="1">  1       21 0.27537902E-01 0.66027101E+03</pdfrwt>
<pdfrwt beam="2">0</pdfrwt>
<totfact> 0.12028515E+03</totfact>
</mgrwt>
</event>
<event>
 6    1  0.1364923E-004  0.6739970E+03  0.7818608E-02  0.9762764E-01
         21   -1    0    0  501  502  0.00000000000E+00  0.00000000000E+00  0.20021062474E+03  0.20021062474E+03  0.00000000000E+00 0.  1.
         13   -1    0    0    0    0 -0.00000000000E+00 -0.00000000000E+00 -0.10000000000E+04  0.10000000000E+04  0.00000000000E+00 0.  1.
    9000005    2    1    2  501    0 -0.23744304786E+02  0.18408455538E+03 -0.74935394745E+03  0.10078706967E+04  0.64793602090E+03 0.  0.
         13    1    3    3    0    0  0.12121246752E+03  0.31463008991E+03 -0.73927529224E+03  0.81253462294E+03  0.00000000000E+00 0.  1.
          3    1    3    3  501    0 -0.14495677231E+03 -0.13054553453E+03 -0.10078655211E+02  0.19533607377E+03  0.00000000000E+00 0.  1.
         -3    1    1    2    0  502  0.23744304786E+02 -0.18408455538E+03 -0.50435427802E+02  0.19233992803E+03  0.00000000000E+00 0. -1.
<mgrwt>
<rscale>  1 0.67399703E+03</rscale>
<asrwt>0</asrwt>
<pdfrwt beam="1">  1       21 0.30801634E-01 0.67399703E+03</pdfrwt>
<pdfrwt beam="2">0</pdfrwt>
<totfact> 0.96106996E+02</totfact>
</mgrwt>
</event>
<event>
 6    1  0.1364923E-004  0.5752378E+03  0.7818608E-02  0.9958155E-01
         21   -1    0    0  501  502  0.00000000000E+00  0.00000000000E+00  0.14625370627E+03  0.14625370627E+03  0.00000000000E+00 0.  1.
         13   -1    0    0    0    0 -0.00000000000E+00 -0.00000000000E+00 -0.10000000000E+04  0.10000000000E+04  0.00000000000E+00 0.  1.
    9000005    2    1    2  501    0  0.16503123815E+02  0.51445486820E+02 -0.90463276868E+03  0.10720349449E+04  0.57269493245E+03 0.  0.
         13    1    3    3    0    0  0.10422314019E+03 -0.72971324638E+02  0.25303372434E+02  0.12972099995E+03  0.00000000000E+00 0.  1.
          1    1    3    3  501    0 -0.87720016379E+02  0.12441681146E+03 -0.92993614112E+03  0.94231394493E+03  0.00000000000E+00 0.  1.
         -3    1    1    2    0  502 -0.16503123815E+02 -0.51445486820E+02  0.50886474953E+02  0.74218761394E+02  0.00000000000E+00 0. -1.
<mgrwt>
<rscale>  1 0.57523776E+03</rscale>
<asrwt>0</asrwt>
<pdfrwt beam="1">  1       21 0.22500570E-01 0.57523776E+03</pdfrwt>
<pdfrwt beam="2">0</pdfrwt>
<totfact> 0.17946700E+03</totfact>
</mgrwt>
</event>
<event>
 6    1  0.1364923E-004  0.6407712E+03  0.7818608E-02  0.9824252E-01
         21   -1    0    0  501  502  0.00000000000E+00  0.00000000000E+00  0.28005280442E+03  0.28005280442E+03  0.00000000000E+00 0. -1.
         13   -1    0    0    0    0 -0.00000000000E+00 -0.00000000000E+00 -0.10000000000E+04  0.10000000000E+04  0.00000000000E+00 0.  1.
    9000005    2    1    2  501    0  0.39045601796E+01  0.50597130670E+02 -0.89334159888E+03  0.10993847820E+04  0.63875846093E+03 0.  0.
         13    1    3    3    0    0 -0.25444987357E+03 -0.66597034463E+02 -0.72092715352E+03  0.76740853776E+03  0.00000000000E+00 0.  1.
          1    1    3    3  501    0  0.25835443374E+03  0.11719416513E+03 -0.17241444537E+03  0.33197624425E+03  0.00000000000E+00 0.  1.
         -1    1    1    2    0  502 -0.39045601796E+01 -0.50597130670E+02  0.17339440331E+03  0.18066802241E+03  0.00000000000E+00 0. -1.
<mgrwt>
<rscale>  1 0.64077117E+03</rscale>
<asrwt>0</asrwt>
<pdfrwt beam="1">  1       21 0.43085046E-01 0.64077117E+03</pdfrwt>
<pdfrwt beam="2">0</pdfrwt>
<totfact> 0.48401153E+02</totfact>
</mgrwt>
</event>
<event>
 6    1  0.1364923E-004  0.6489306E+03  0.7818608E-02  0.9808788E-01
         21   -1    0    0  501  502  0.00000000000E+00  0.00000000000E+00  0.48374376334E+03  0.48374376334E+03  0.00000000000E+00 0. -1.
         13   -1    0    0    0    0 -0.00000000000E+00 -0.00000000000E+00 -0.10000000000E+04  0.10000000000E+04  0.00000000000E+00 0.  1.
    9000005    2    1    2  501    0 -0.69963669775E+02 -0.12734561816E+02 -0.89102543375E+03  0.11022872976E+04  0.64502238623E+03 0.  0.
         13    1    3    3    0    0 -0.40549390244E+02 -0.98122620620E+02  0.76307031571E+02  0.13074809671E+03  0.00000000000E+00 0.  1.
          1    1    3    3  501    0 -0.29414279531E+02  0.85388058804E+02 -0.96733246532E+03  0.97153920091E+03  0.00000000000E+00 0.  1.
         -3    1    1    2    0  502  0.69963669775E+02  0.12734561816E+02  0.37476919710E+03  0.38145646573E+03  0.00000000000E+00 0. -1.
<mgrwt>
<rscale>  1 0.64893063E+03</rscale>
<asrwt>0</asrwt>
<pdfrwt beam="1">  1       21 0.74422115E-01 0.64893063E+03</pdfrwt>
<pdfrwt beam="2">0</pdfrwt>
<totfact> 0.14606569E+02</totfact>
</mgrwt>
</event>
<event>
 6    1  0.1364923E-004  0.6559680E+03  0.7818608E-02  0.9795645E-01
         21   -1    0    0  501  502  0.00000000000E+00  0.00000000000E+00  0.12076005784E+03  0.12076005784E+03  0.00000000000E+00 0.  1.
         13   -1    0    0    0    0 -0.00000000000E+00 -0.00000000000E+00 -0.10000000000E+04  0.10000000000E+04  0.00000000000E+00 0.  1.
    9000005    2    1    2  501    0  0.23552965925E+02 -0.49797299028E+01 -0.87887489005E+03  0.10966836549E+04  0.65552606868E+03 0.  0.
         13    1    3    3    0    0  0.26896761360E+03 -0.19862470274E+03 -0.54426227843E+03  0.63876190982E+03  0.00000000000E+00 0.  1.
          1    1    3    3  501    0 -0.24541464768E+03  0.19364497284E+03 -0.33461261162E+03  0.45792174512E+03  0.00000000000E+00 0.  1.
         -1    1    1    2    0  502 -0.23552965925E+02  0.49797299028E+01 -0.36505211274E+00  0.24076402905E+02  0.00000000000E+00 0. -1.
<mgrwt>
<rscale>  1 0.65596796E+03</rscale>
<asrwt>0</asrwt>
<pdfrwt beam="1">  1       21 0.18578470E-01 0.65596796E+03</pdfrwt>
<pdfrwt beam="2">0</pdfrwt>
<totfact> 0.25832496E+03</totfact>
</mgrwt>
</event>
<event>
 6    1  0.1364923E-004  0.6511469E+03  0.7818608E-02  0.9804629E-01
         21   -1    0    0  501  502  0.00000000000E+00  0.00000000000E+00  0.15328925517E+03  0.15328925517E+03  0.00000000000E+00 0.  1.
         13   -1    0    0    0    0 -0.00000000000E+00 -0.00000000000E+00 -0.10000000000E+04  0.10000000000E+04  0.00000000000E+00 0.  1.
    9000005    2    1    2  501    0  0.10912542758E+02  0.18159639562E+02 -0.89136283694E+03  0.11038659264E+04  0.65080213603E+03 0.  0.
         13    1    3    3    0    0 -0.20515400278E+03 -0.70849789077E+02 -0.39596636303E+02  0.22062581688E+03  0.00000000000E+00 0.  1.
          3    1    3    3  501    0  0.21606654554E+03  0.89009428640E+02 -0.85176620064E+03  0.88324010950E+03  0.00000000000E+00 0.  1.
         -3    1    1    2    0  502 -0.10912542758E+02 -0.18159639562E+02  0.44652092107E+02  0.49423328783E+02  0.00000000000E+00 0. -1.
<mgrwt>
<rscale>  1 0.65114689E+03</rscale>
<asrwt>0</asrwt>
<pdfrwt beam="1">  1       21 0.23582962E-01 0.65114689E+03</pdfrwt>
<pdfrwt beam="2">0</pdfrwt>
<totfact> 0.16319819E+03</totfact>
</mgrwt>
</event>
<event>
 6    1  0.1364923E-004  0.6830777E+03  0.7818608E-02  0.9746617E-01
         21   -1    0    0  501  502  0.00000000000E+00  0.00000000000E+00  0.20242669142E+03  0.20242669142E+03  0.00000000000E+00 0.  1.
         13   -1    0    0    0    0 -0.00000000000E+00 -0.00000000000E+00 -0.10000000000E+04  0.10000000000E+04  0.00000000000E+00 0.  1.
    9000005    2    1    2  501    0 -0.10004893251E+03  0.47710233929E+02 -0.84093438065E+03  0.10834046855E+04  0.67402449860E+03 0.  0.
         13    1    3    3    0    0 -0.43146354208E+02  0.12206820133E+03  0.83617432868E+02  0.15412374488E+03  0.00000000000E+00 0.  1.
          1    1    3    3  501    0 -0.56902578300E+02 -0.74357967402E+02 -0.92455181352E+03  0.92928094063E+03  0.00000000000E+00 0.  1.
         -3    1    1    2    0  502  0.10004893251E+03 -0.47710233929E+02  0.43361072070E+02  0.11902200590E+03  0.00000000000E+00 0. -1.
<mgrwt>
<rscale>  1 0.68307765E+03</rscale>
<asrwt>0</asrwt>
<pdfrwt beam="1">  1       21 0.31142567E-01 0.68307765E+03</pdfrwt>
<pdfrwt beam="2">0</pdfrwt>
<totfact> 0.93949682E+02</totfact>
</mgrwt>
</event>
<event>
 6    1  0.1364923E-004  0.6576404E+03  0.7818608E-02  0.9792547E-01
         21   -1    0    0  501  502  0.00000000000E+00  0.00000000000E+00  0.27202644227E+03  0.27202644227E+03  0.00000000000E+00 0. -1.
         13   -1    0    0    0    0 -0.00000000000E+00 -0.00000000000E+00 -0.10000000000E+04  0.10000000000E+04  0.00000000000E+00 0.  1.
    9000005    2    1    2  501    0 -0.14558918881E+03  0.63368824580E+02 -0.84789907559E+03  0.10730441575E+04  0.63818422238E+03 0.  0.
         13    1    3    3    0    0 -0.35031373710E+03  0.19731369310E+03 -0.42915589393E+03  0.58807073485E+03  0.00000000000E+00 0.  1.
          3    1    3    3  501    0  0.20472454829E+03 -0.13394486852E+03 -0.41874318165E+03  0.48497342263E+03  0.00000000000E+00 0.  1.
         -1    1    1    2    0  502  0.14558918881E+03 -0.63368824580E+02  0.11992551786E+03  0.19898228479E+03  0.00000000000E+00 0. -1.
<mgrwt>
<rscale>  1 0.65764042E+03</rscale>
<asrwt>0</asrwt>
<pdfrwt beam="1">  1       21 0.41850221E-01 0.65764042E+03</pdfrwt>
<pdfrwt beam="2">0</pdfrwt>
<totfact> 0.51366113E+02</totfact>
</mgrwt>
</event>
<event>
 6    1  0.1364923E-004  0.6516220E+03  0.7818608E-02  0.9803740E-01
         21   -1    0    0  501  502  0.00000000000E+00  0.00000000000E+00  0.13502187806E+03  0.13502187806E+03  0.00000000000E+00 0.  1.
         13   -1    0    0    0    0 -0.00000000000E+00 -0.00000000000E+00 -0.10000000000E+04  0.10000000000E+04  0.00000000000E+00 0.  1.
    9000005    2    1    2  501    0  0.20048796165E+02  0.21111186920E+00 -0.88994432677E+03  0.11030014130E+04  0.65131345267E+03 0.  0.
         13    1    3    3    0    0 -0.50494116515E+02 -0.16775510727E+03  0.18782087329E+02  0.17619363956E+03  0.00000000000E+00 0.  1.
          1    1    3    3  501    0  0.70542912679E+02  0.16796621914E+03 -0.90872641410E+03  0.92680777348E+03  0.00000000000E+00 0.  1.
         -3    1    1    2    0  502 -0.20048796165E+02 -0.21111186920E+00  0.24966204828E+02  0.32020465009E+02  0.00000000000E+00 0. -1.
<mgrwt>
<rscale>  1 0.65162199E+03</rscale>
<asrwt>0</asrwt>
<pdfrwt beam="1">  1       21 0.20772596E-01 0.65162199E+03</pdfrwt>
<pdfrwt beam="2">0</pdfrwt>
<totfact> 0.20865113E+03</totfact>
</mgrwt>
</event>
<event>
 6    1  0.1364923E-004  0.6451968E+03  0.7818608E-02  0.9815834E-01
         21   -1    0    0  501  502  0.00000000000E+00  0.00000000000E+00  0.22126452227E+03  0.22126452227E+03  0.00000000000E+00 0. -1.
         13   -1    0    0    0    0 -0.00000000000E+00 -0.00000000000E+00 -0.10000000000E+04  0.10000000000E+04  0.00000000000E+00 0.  1.
    9000005    2    1    2  501    0  0.16342595644E+02 -0.16442281729E+02 -0.89466307700E+03  0.11030416931E+04  0.64478021553E+03 0.  0.
         13    1    3    3    0    0 -0.52951326541E+02  0.30759414228E+03 -0.47419902816E+03  0.56769949591E+03  0.00000000000E+00 0.  1.
          1    1    3    3  501    0  0.69293922184E+02 -0.32403642401E+03 -0.42046404884E+03  0.53534219720E+03  0.00000000000E+00 0.  1.
         -1    1    1    2    0  502 -0.16342595644E+02  0.16442281729E+02  0.11592759927E+03  0.11822282915E+03  0.00000000000E+00 0. -1.
<mgrwt>
<rscale>  1 0.64519683E+03</rscale>
<asrwt>0</asrwt>
<pdfrwt beam="1">  1       21 0.34040695E-01 0.64519683E+03</pdfrwt>
<pdfrwt beam="2">0</pdfrwt>
<totfact> 0.78677116E+02</totfact>
</mgrwt>
</event>
<event>
 6    1  0.1364923E-004  0.6735038E+03  0.7818608E-02  0.9763649E-01
         21   -1    0    0  501  502  0.00000000000E+00  0.00000000000E+00  0.14531474865E+03  0.14531474865E+03  0.00000000000E+00 0. -1.
         13   -1    0    0    0    0 -0.00000000000E+00 -0.00000000000E+00 -0.10000000000E+04  0.10000000000E+04  0.00000000000E+00 0.  1.
    9000005    2    1    2  501    0  0.55429162818E+02 -0.24824506599E+02 -0.84987984265E+03  0.10843906962E+04  0.67075985774E+03 0.  0.
         13    1    3    3    0    0 -0.23245935197E+03  0.76301224722E+02 -0.70570132203E+03  0.74690935402E+03  0.00000000000E+00 0.  1.
          1    1    3    3  501    0  0.28788851479E+03 -0.10112573132E+03 -0.14417852062E+03  0.33748134214E+03  0.00000000000E+00 0.  1.
         -3    1    1    2    0  502 -0.55429162818E+02  0.24824506599E+02 -0.48054087063E+01  0.60924052487E+02  0.00000000000E+00 0. -1.
<mgrwt>
<rscale>  1 0.67350385E+03</rscale>
<asrwt>0</asrwt>
<pdfrwt beam="1">  1       21 0.22356115E-01 0.67350385E+03</pdfrwt>
<pdfrwt beam="2">0</pdfrwt>
<totfact> 0.18087241E+03</totfact>
</mgrwt>
</event>
<event>
 6    1  0.1364923E-004  0.7936259E+03  0.7818608E-02  0.9569290E-01
         21   -1    0    0  501  502  0.00000000000E+00  0.00000000000E+00  0.39581006903E+03  0.39581006903E+03  0.00000000000E+00 0. -1.
         13   -1    0    0    0    0 -0.00000000000E+00 -0.00000000000E+00 -0.10000000000E+04  0.10000000000E+04  0.00000000000E+00 0.  1.
    9000005    2    1    2  501    0  0.45174969665E+03  0.30901825508E+02 -0.47508787198E+03  0.92495971820E+03  0.65177395080E+03 0.  0.
         13    1    3    3    0    0  0.43238615241E+03  0.24725725993E+03 -0.12595618324E+03  0.51376930375E+03  0.00000000000E+00 0.  1.
          1    1    3    3  501    0  0.19363544247E+02 -0.21635543442E+03 -0.34913168874E+03  0.41119041445E+03  0.00000000000E+00 0.  1.
         -3    1    1    2    0  502 -0.45174969665E+03 -0.30901825508E+02 -0.12910205899E+03  0.47085035083E+03  0.00000000000E+00 0. -1.
<mgrwt>
<rscale>  1 0.79362585E+03</rscale>
<asrwt>0</asrwt>
<pdfrwt beam="1">  1       21 0.60893855E-01 0.79362585E+03</pdfrwt>
<pdfrwt beam="2">0</pdfrwt>
<totfact> 0.22637877E+02</totfact>
</mgrwt>
</event>
<event>
 6    1  0.1364923E-004  0.6719981E+03  0.7818608E-02  0.9766355E-01
         21   -1    0    0  501  502  0.00000000000E+00  0.00000000000E+00  0.26917913024E+03  0.26917913024E+03  0.00000000000E+00 0. -1.
         13   -1    0    0    0    0 -0.00000000000E+00 -0.00000000000E+00 -0.10000000000E+04  0.10000000000E+04  0.00000000000E+00 0.  1.
    9000005    2    1    2  501    0  0.43988846019E+02  0.49542717424E+00 -0.88365052004E+03  0.11101440208E+04  0.67055666531E+03 0.  0.
         13    1    3    3    0    0 -0.17664718908E+03 -0.22964957776E+03 -0.18928131361E+03  0.34607885468E+03  0.00000000000E+00 0.  1.
          3    1    3    3  501    0  0.22063603510E+03  0.23014500493E+03 -0.69436920643E+03  0.76406516615E+03  0.00000000000E+00 0.  1.
         -3    1    1    2    0  502 -0.43988846019E+02 -0.49542717424E+00  0.15282965028E+03  0.15903510942E+03  0.00000000000E+00 0. -1.
<mgrwt>
<rscale>  1 0.67199814E+03</rscale>
<asrwt>0</asrwt>
<pdfrwt beam="1">  1       21 0.41412173E-01 0.67199814E+03</pdfrwt>
<pdfrwt beam="2">0</pdfrwt>
<totfact> 0.52446197E+02</totfact>
</mgrwt>
</event>
<event>
 6    1  0.1364923E-004  0.6533767E+03  0.7818608E-02  0.9800464E-01
         21   -1    0    0  501  502  0.00000000000E+00  0.00000000000E+00  0.18223079930E+03  0.18223079930E+03  0.00000000000E+00 0. -1.
         13   -1    0    0    0    0 -0.00000000000E+00 -0.00000000000E+00 -0.10000000000E+04  0.10000000000E+04  0.00000000000E+00 0.  1.
    9000005    2    1    2  501    0  0.26034911925E+02 -0.26787675385E+02 -0.88812512986E+03  0.11025730755E+04  0.65230801341E+03 0.  0.
         13    1    3    3    0    0  0.16383111156E+03 -0.28698554719E+03 -0.62824291898E+03  0.70985245133E+03  0.00000000000E+00 0.  1.
          3    1    3    3  501    0 -0.13779619964E+03  0.26019787180E+03 -0.25988221088E+03  0.39272062418E+03  0.00000000000E+00 0.  1.
         -1    1    1    2    0  502 -0.26034911925E+02  0.26787675385E+02  0.70355929164E+02  0.79657723794E+02  0.00000000000E+00 0. -1.
<mgrwt>
<rscale>  1 0.65337672E+03</rscale>
<asrwt>0</asrwt>
<pdfrwt beam="1">  1       21 0.28035507E-01 0.65337672E+03</pdfrwt>
<pdfrwt beam="2">0</pdfrwt>
<totfact> 0.11613063E+03</totfact>
</mgrwt>
</event>
<event>
 6    1  0.1364923E-004  0.6816146E+03  0.7818608E-02  0.9749201E-01
         21   -1    0    0  501  502  0.00000000000E+00  0.00000000000E+00  0.18147606074E+03  0.18147606074E+03  0.00000000000E+00 0.  1.
         13   -1    0    0    0    0 -0.00000000000E+00 -0.00000000000E+00 -0.10000000000E+04  0.10000000000E+04  0.00000000000E+00 0.  1.
    9000005    2    1    2  501    0 -0.33951303136E+02 -0.16099456058E+02 -0.87775673962E+03  0.11113304400E+04  0.68057811416E+03 0.  0.
         13    1    3    3    0    0  0.27910164752E+03  0.77872582566E+02 -0.65373593671E+03  0.71507520143E+03  0.00000000000E+00 0.  1.
          1    1    3    3  501    0 -0.31305295066E+03 -0.93972038624E+02 -0.22402080291E+03  0.39625523857E+03  0.00000000000E+00 0.  1.
         -1    1    1    2    0  502  0.33951303136E+02  0.16099456058E+02  0.59232800359E+02  0.70145620736E+02  0.00000000000E+00 0. -1.
<mgrwt>
<rscale>  1 0.68161459E+03</rscale>
<asrwt>0</asrwt>
<pdfrwt beam="1">  1       21 0.27919393E-01 0.68161459E+03</pdfrwt>
<pdfrwt beam="2">0</pdfrwt>
<totfact> 0.11690313E+03</totfact>
</mgrwt>
</event>
<event>
 6    1  0.1364923E-004  0.5911385E+03  0.7818608E-02  0.9923963E-01
         21   -1    0    0  501  502  0.00000000000E+00  0.00000000000E+00  0.12117574483E+03  0.12117574483E+03  0.00000000000E+00 0.  1.
         13   -1    0    0    0    0 -0.00000000000E+00 -0.00000000000E+00 -0.10000000000E+04  0.10000000000E+04  0.00000000000E+00 0.  1.
    9000005    2    1    2  501    0  0.37392686395E+02  0.40909038404E+02 -0.88619582671E+03  0.10652641853E+04  0.58853460292E+03 0.  0.
         13    1    3    3    0    0  0.10395090767E+03  0.37480318870E+02  0.53804356466E+02  0.12290432980E+03  0.00000000000E+00 0.  1.
          1    1    3    3  501    0 -0.66558221278E+02  0.34287195335E+01 -0.94000018318E+03  0.94235985553E+03  0.00000000000E+00 0.  1.
         -1    1    1    2    0  502 -0.37392686395E+02 -0.40909038404E+02  0.73715715395E+01  0.55911559502E+02  0.00000000000E+00 0. -1.
<mgrwt>
<rscale>  1 0.59113851E+03</rscale>
<asrwt>0</asrwt>
<pdfrwt beam="1">  1       21 0.18642422E-01 0.59113851E+03</pdfrwt>
<pdfrwt beam="2">0</pdfrwt>
<totfact> 0.25725105E+03</totfact>
</mgrwt>
</event>
<event>
 6    1  0.1364923E-004  0.6516763E+03  0.7818608E-02  0.9803639E-01
         21   -1    0    0  501  502  0.00000000000E+00  0.00000000000E+00  0.22935062947E+03  0.22935062947E+03  0.00000000000E+00 0. -1.
         13   -1    0    0    0    0 -0.00000000000E+00 -0.00000000000E+00 -0.10000000000E+04  0.10000000000E+04  0.00000000000E+00 0.  1.
    9000005    2    1    2  501    0  0.20872603399E+02 -0.37599564895E+02 -0.88966248675E+03  0.11028061129E+04  0.65025578766E+03 0.  0.
         13    1    3    3    0    0 -0.18713838656E+03 -0.24867009044E+03 -0.65367017967E+03  0.72397672158E+03  0.00000000000E+00 0.  1.
          1    1    3    3  501    0  0.20801098996E+03  0.21107052554E+03 -0.23599230707E+03  0.37882939127E+03  0.00000000000E+00 0.  1.
         -1    1    1    2    0  502 -0.20872603399E+02  0.37599564895E+02  0.11901311621E+03  0.12654451661E+03  0.00000000000E+00 0. -1.
<mgrwt>
<rscale>  1 0.65167629E+03</rscale>
<asrwt>0</asrwt>
<pdfrwt beam="1">  1       21 0.35284711E-01 0.65167629E+03</pdfrwt>
<pdfrwt beam="2">0</pdfrwt>
<totfact> 0.73097228E+02</totfact>
</mgrwt>
</event>
<event>
 6    1  0.1364923E-004  0.5807925E+03  0.7818608E-02  0.9946077E-01
         21   -1    0    0  501  502  0.00000000000E+00  0.00000000000E+00  0.14937034649E+03  0.14937034649E+03  0.00000000000E+00 0.  1.
         13   -1    0    0    0    0 -0.00000000000E+00 -0.00000000000E+00 -0.10000000000E+04  0.10000000000E+04  0.00000000000E+00 0.  1.
    9000005    2    1    2  501    0 -0.79209353694E+01  0.32321536318E+02 -0.91102694036E+03  0.10804119881E+04  0.57983838709E+03 0.  0.
         13    1    3    3    0    0 -0.55504595843E+02 -0.17768640910E+02  0.73310374779E+02  0.93653060867E+02  0.00000000000E+00 0.  1.
          1    1    3    3  501    0  0.47583660473E+02  0.50090177228E+02 -0.98433731514E+03  0.98675892728E+03  0.00000000000E+00 0.  1.
         -3    1    1    2    0  502  0.79209353694E+01 -0.32321536318E+02  0.60397286848E+02  0.68958358345E+02  0.00000000000E+00 0. -1.
<mgrwt>
<rscale>  1 0.58079254E+03</rscale>
<asrwt>0</asrwt>
<pdfrwt beam="1">  1       21 0.22980053E-01 0.58079254E+03</pdfrwt>
<pdfrwt beam="2">0</pdfrwt>
<totfact> 0.17223496E+03</totfact>
</mgrwt>
</event>
<event>
 6    1  0.1364923E-004  0.6454983E+03  0.7818608E-02  0.9815263E-01
         21   -1    0    0  501  502  0.00000000000E+00  0.00000000000E+00  0.14930816067E+03  0.14930816067E+03  0.00000000000E+00 0.  1.
         13   -1    0    0    0    0 -0.00000000000E+00 -0.00000000000E+00 -0.10000000000E+04  0.10000000000E+04  0.00000000000E+00 0.  1.
    9000005    2    1    2  501    0 -0.18607519012E+02 -0.15307262686E+02 -0.89225495227E+03  0.11012660498E+04  0.64504841728E+03 0.  0.
         13    1    3    3    0    0 -0.19402866295E+03  0.25266501880E+03 -0.52375811240E+03  0.61303286541E+03  0.00000000000E+00 0.  1.
          1    1    3    3  501    0  0.17542114394E+03 -0.26797228148E+03 -0.36849683987E+03  0.48823318444E+03  0.00000000000E+00 0.  1.
         -1    1    1    2    0  502  0.18607519012E+02  0.15307262686E+02  0.41563112944E+02  0.48042110822E+02  0.00000000000E+00 0. -1.
<mgrwt>
<rscale>  1 0.64549827E+03</rscale>
<asrwt>0</asrwt>
<pdfrwt beam="1">  1       21 0.22970486E-01 0.64549827E+03</pdfrwt>
<pdfrwt beam="2">0</pdfrwt>
<totfact> 0.17181900E+03</totfact>
</mgrwt>
</event>
<event>
 6    1  0.1364923E-004  0.6425116E+03  0.7818608E-02  0.9820933E-01
         21   -1    0    0  501  502  0.00000000000E+00  0.00000000000E+00  0.19763903999E+03  0.19763903999E+03  0.00000000000E+00 0. -1.
         13   -1    0    0    0    0 -0.00000000000E+00 -0.00000000000E+00 -0.10000000000E+04  0.10000000000E+04  0.00000000000E+00 0.  1.
    9000005    2    1    2  501    0 -0.31070575425E+02  0.66769727589E+02 -0.88067181049E+03  0.10901394284E+04  0.63827702331E+03 0.  0.
         13    1    3    3    0    0  0.41025391284E+02  0.32825917944E+03 -0.66811900326E+03  0.74553348291E+03  0.00000000000E+00 0.  1.
          1    1    3    3  501    0 -0.72095966709E+02 -0.26148945185E+03 -0.21255280723E+03  0.34460594554E+03  0.00000000000E+00 0.  1.
         -1    1    1    2    0  502  0.31070575425E+02 -0.66769727589E+02  0.78310850480E+02  0.10749961155E+03  0.00000000000E+00 0. -1.
<mgrwt>
<rscale>  1 0.64251158E+03</rscale>
<asrwt>0</asrwt>
<pdfrwt beam="1">  1       21 0.30406005E-01 0.64251158E+03</pdfrwt>
<pdfrwt beam="2">0</pdfrwt>
<totfact> 0.98830319E+02</totfact>
</mgrwt>
</event>
<event>
 6    1  0.1364923E-004  0.6297583E+03  0.7818608E-02  0.9845521E-01
         21   -1    0    0  501  502  0.00000000000E+00  0.00000000000E+00  0.15294175287E+03  0.15294175287E+03  0.00000000000E+00 0.  1.
         13   -1    0    0    0    0 -0.00000000000E+00 -0.00000000000E+00 -0.10000000000E+04  0.10000000000E+04  0.00000000000E+00 0.  1.
    9000005    2    1    2  501    0  0.93952290751E+02  0.16990691734E+01 -0.85125344853E+03  0.10588804990E+04  0.62270824442E+03 0.  0.
         13    1    3    3    0    0 -0.12618128896E+03 -0.25769699006E+03 -0.34175039294E+03  0.44623176427E+03  0.00000000000E+00 0.  1.
          3    1    3    3  501    0  0.22013357971E+03  0.25939605923E+03 -0.50950305559E+03  0.61264873469E+03  0.00000000000E+00 0.  1.
         -1    1    1    2    0  502 -0.93952290751E+02 -0.16990691734E+01  0.41952013960E+01  0.94061253916E+02  0.00000000000E+00 0. -1.
<mgrwt>
<rscale>  1 0.62975827E+03</rscale>
<asrwt>0</asrwt>
<pdfrwt beam="1">  1       21 0.23529500E-01 0.62975827E+03</pdfrwt>
<pdfrwt beam="2">0</pdfrwt>
<totfact> 0.16409424E+03</totfact>
</mgrwt>
</event>
<event>
 6    1  0.1364923E-004  0.6443697E+03  0.7818608E-02  0.9817402E-01
         21   -1    0    0  501  502  0.00000000000E+00  0.00000000000E+00  0.14087835177E+03  0.14087835177E+03  0.00000000000E+00 0.  1.
         13   -1    0    0    0    0 -0.00000000000E+00 -0.00000000000E+00 -0.10000000000E+04  0.10000000000E+04  0.00000000000E+00 0.  1.
    9000005    2    1    2  501    0  0.60658460524E+02  0.72029650949E+02 -0.66981304508E+03  0.92944167880E+03  0.63745164482E+03 0.  0.
         13    1    3    3    0    0 -0.26031925493E+03  0.11451337140E+03 -0.46886923550E+03  0.54837741266E+03  0.00000000000E+00 0.  1.
          1    1    3    3  501    0  0.32097771545E+03 -0.42483720455E+02 -0.20094380958E+03  0.38106426614E+03  0.00000000000E+00 0.  1.
         -3    1    1    2    0  502 -0.60658460524E+02 -0.72029650949E+02 -0.18930860315E+03  0.21143667297E+03  0.00000000000E+00 0. -1.
<mgrwt>
<rscale>  1 0.64436971E+03</rscale>
<asrwt>0</asrwt>
<pdfrwt beam="1">  1       21 0.21673592E-01 0.64436971E+03</pdfrwt>
<pdfrwt beam="2">0</pdfrwt>
<totfact> 0.19230782E+03</totfact>
</mgrwt>
</event>
<event>
 6    1  0.1364923E-004  0.6529183E+03  0.7818608E-02  0.9801319E-01
         21   -1    0    0  501  502  0.00000000000E+00  0.00000000000E+00  0.19430540864E+03  0.19430540864E+03  0.00000000000E+00 0. -1.
         13   -1    0    0    0    0 -0.00000000000E+00 -0.00000000000E+00 -0.10000000000E+04  0.10000000000E+04  0.00000000000E+00 0.  1.
    9000005    2    1    2  501    0  0.52351980922E+02 -0.45046866149E+02 -0.87810171943E+03  0.10942417177E+04  0.64925523252E+03 0.  0.
         13    1    3    3    0    0  0.34566869136E+03  0.10366970603E+00 -0.37405267302E+03  0.50931547898E+03  0.00000000000E+00 0.  1.
          1    1    3    3  501    0 -0.29331671044E+03 -0.45150535855E+02 -0.50404904641E+03  0.58492623868E+03  0.00000000000E+00 0.  1.
         -1    1    1    2    0  502 -0.52351980922E+02  0.45046866149E+02  0.72407128072E+02  0.10006369098E+03  0.00000000000E+00 0. -1.
<mgrwt>
<rscale>  1 0.65291830E+03</rscale>
<asrwt>0</asrwt>
<pdfrwt beam="1">  1       21 0.29893139E-01 0.65291830E+03</pdfrwt>
<pdfrwt beam="2">0</pdfrwt>
<totfact> 0.10218816E+03</totfact>
</mgrwt>
</event>
<event>
 6    1  0.1364923E-004  0.6555900E+03  0.7818608E-02  0.9796346E-01
         21   -1    0    0  501  502  0.00000000000E+00  0.00000000000E+00  0.18419925164E+03  0.18419925164E+03  0.00000000000E+00 0.  1.
         13   -1    0    0    0    0 -0.00000000000E+00 -0.00000000000E+00 -0.10000000000E+04  0.10000000000E+04  0.00000000000E+00 0.  1.
    9000005    2    1    2  501    0 -0.56149362863E+02 -0.94047208677E+02 -0.84627588868E+03  0.10705050891E+04  0.64637499773E+03 0.  0.
         13    1    3    3    0    0 -0.34473768691E+03 -0.62943511260E+02 -0.34813209865E+03  0.49396550132E+03  0.00000000000E+00 0.  1.
          3    1    3    3  501    0  0.28858832405E+03 -0.31103697418E+02 -0.49814379003E+03  0.57653958781E+03  0.00000000000E+00 0.  1.
         -3    1    1    2    0  502  0.56149362863E+02  0.94047208677E+02  0.30475140321E+02  0.11369416250E+03  0.00000000000E+00 0. -1.
<mgrwt>
<rscale>  1 0.65559001E+03</rscale>
<asrwt>0</asrwt>
<pdfrwt beam="1">  1       21 0.28338346E-01 0.65559001E+03</pdfrwt>
<pdfrwt beam="2">0</pdfrwt>
<totfact> 0.11366167E+03</totfact>
</mgrwt>
</event>
<event>
 6    1  0.1364923E-004  0.6137908E+03  0.7818608E-02  0.9877200E-01
         21   -1    0    0  501  502  0.00000000000E+00  0.00000000000E+00  0.11826135799E+03  0.11826135799E+03  0.00000000000E+00 0.  1.
         13   -1    0    0    0    0 -0.00000000000E+00 -0.00000000000E+00 -0.10000000000E+04  0.10000000000E+04  0.00000000000E+00 0.  1.
    9000005    2    1    2  501    0 -0.28746043845E+02 -0.23742667952E+02 -0.88897224279E+03  0.10802827548E+04  0.61265743495E+03 0.  0.
         13    1    3    3    0    0 -0.27087127487E+03 -0.15131323572E+03 -0.30361146557E+03  0.43410467042E+03  0.00000000000E+00 0.  1.
          1    1    3    3  501    0  0.24212523102E+03  0.12757056777E+03 -0.58536077722E+03  0.64617808441E+03  0.00000000000E+00 0.  1.
         -3    1    1    2    0  502  0.28746043845E+02  0.23742667952E+02  0.72336007820E+01  0.37978603167E+02  0.00000000000E+00 0. -1.
<mgrwt>
<rscale>  1 0.61379083E+03</rscale>
<asrwt>0</asrwt>
<pdfrwt beam="1">  1       21 0.18194055E-01 0.61379083E+03</pdfrwt>
<pdfrwt beam="2">0</pdfrwt>
<totfact> 0.26919528E+03</totfact>
</mgrwt>
</event>
<event>
 6    1  0.1364923E-004  0.6829735E+03  0.7818608E-02  0.9746801E-01
         21   -1    0    0  501  502  0.00000000000E+00  0.00000000000E+00  0.67110201393E+03  0.67110201393E+03  0.00000000000E+00 0.  1.
         13   -1    0    0    0    0 -0.00000000000E+00 -0.00000000000E+00 -0.10000000000E+04  0.10000000000E+04  0.00000000000E+00 0.  1.
    9000005    2    1    2  501    0  0.57118663196E+01  0.19598811003E+03 -0.86392421222E+03  0.11012800879E+04  0.65422383243E+03 0.  0.
         13    1    3    3    0    0  0.17712124998E+03  0.12237064498E+03  0.22000712957E+01  0.21529364195E+03  0.00000000000E+00 0.  1.
          1    1    3    3  501    0 -0.17140938366E+03  0.73617465051E+02 -0.86612428351E+03  0.88598644598E+03  0.00000000000E+00 0.  1.
         -3    1    1    2    0  502 -0.57118663196E+01 -0.19598811003E+03  0.53502622615E+03  0.56982192601E+03  0.00000000000E+00 0. -1.
<mgrwt>
<rscale>  1 0.68297349E+03</rscale>
<asrwt>0</asrwt>
<pdfrwt beam="1">  1       21 0.10324646E+00 0.68297349E+03</pdfrwt>
<pdfrwt beam="2">0</pdfrwt>
<totfact> 0.66695154E+01</totfact>
</mgrwt>
</event>
<event>
 6    1  0.1364923E-004  0.6577540E+03  0.7818608E-02  0.9792337E-01
         21   -1    0    0  501  502  0.00000000000E+00  0.00000000000E+00  0.48218352216E+03  0.48218352216E+03  0.00000000000E+00 0. -1.
         13   -1    0    0    0    0 -0.00000000000E+00 -0.00000000000E+00 -0.10000000000E+04  0.10000000000E+04  0.00000000000E+00 0.  1.
    9000005    2    1    2  501    0 -0.64336294803E+02 -0.29942758832E+02 -0.88810505595E+03  0.11051565222E+04  0.65391484192E+03 0.  0.
         13    1    3    3    0    0 -0.99035601558E+02  0.22438321681E+03 -0.79522134232E+03  0.83218559327E+03  0.00000000000E+00 0.  1.
          3    1    3    3  501    0  0.34699306756E+02 -0.25432597564E+03 -0.92883713627E+02  0.27297092891E+03  0.00000000000E+00 0.  1.
         -3    1    1    2    0  502  0.64336294803E+02  0.29942758832E+02  0.37028857811E+03  0.37702699998E+03  0.00000000000E+00 0. -1.
<mgrwt>
<rscale>  1 0.65775402E+03</rscale>
<asrwt>0</asrwt>
<pdfrwt beam="1">  1       21 0.74182078E-01 0.65775402E+03</pdfrwt>
<pdfrwt beam="2">0</pdfrwt>
<totfact> 0.14699290E+02</totfact>
</mgrwt>
</event>
<event>
 6    1  0.1364923E-004  0.6795803E+03  0.7818608E-02  0.9752804E-01
         21   -1    0    0  501  502  0.00000000000E+00  0.00000000000E+00  0.13155528535E+03  0.13155528535E+03  0.00000000000E+00 0.  1.
         13   -1    0    0    0    0 -0.00000000000E+00 -0.00000000000E+00 -0.10000000000E+04  0.10000000000E+04  0.00000000000E+00 0.  1.
    9000005    2    1    2  501    0 -0.99556931730E+01  0.17793708265E+02 -0.87696428791E+03  0.11094574346E+04  0.67927439594E+03 0.  0.
         13    1    3    3    0    0  0.16974346746E+03 -0.27803397548E+03 -0.50869749146E+03  0.60406032321E+03  0.00000000000E+00 0.  1.
          1    1    3    3  501    0 -0.17969916063E+03  0.29582768375E+03 -0.36826679645E+03  0.50539711136E+03  0.00000000000E+00 0.  1.
         -1    1    1    2    0  502  0.99556931730E+01 -0.17793708265E+02  0.85195732582E+01  0.22097850775E+02  0.00000000000E+00 0. -1.
<mgrwt>
<rscale>  1 0.67958034E+03</rscale>
<asrwt>0</asrwt>
<pdfrwt beam="1">  1       21 0.20239274E-01 0.67958034E+03</pdfrwt>
<pdfrwt beam="2">0</pdfrwt>
<totfact> 0.21910919E+03</totfact>
</mgrwt>
</event>
<event>
 6    1  0.1364923E-004  0.6523662E+03  0.7818608E-02  0.9802349E-01
         21   -1    0    0  501  502  0.00000000000E+00  0.00000000000E+00  0.18513014509E+03  0.18513014509E+03  0.00000000000E+00 0.  1.
         13   -1    0    0    0    0 -0.00000000000E+00 -0.00000000000E+00 -0.10000000000E+04  0.10000000000E+04  0.00000000000E+00 0.  1.
    9000005    2    1    2  501    0 -0.95308574098E+01  0.31188178957E+02 -0.88984983253E+03  0.11033650132E+04  0.65155052617E+03 0.  0.
         13    1    3    3    0    0  0.24852534929E+03  0.91738189113E+02 -0.12315516224E+03  0.29214369507E+03  0.00000000000E+00 0.  1.
          3    1    3    3  501    0 -0.25805620670E+03 -0.60550010156E+02 -0.76669467028E+03  0.81122131813E+03  0.00000000000E+00 0.  1.
         -3    1    1    2    0  502  0.95308574098E+01 -0.31188178957E+02  0.74979977612E+02  0.81765131886E+02  0.00000000000E+00 0. -1.
<mgrwt>
<rscale>  1 0.65236618E+03</rscale>
<asrwt>0</asrwt>
<pdfrwt beam="1">  1       21 0.28481560E-01 0.65236618E+03</pdfrwt>
<pdfrwt beam="2">0</pdfrwt>
<totfact> 0.11254882E+03</totfact>
</mgrwt>
</event>
<event>
 6    1  0.1364923E-004  0.6715058E+03  0.7818608E-02  0.9767241E-01
         21   -1    0    0  501  502  0.00000000000E+00  0.00000000000E+00  0.16440424323E+03  0.16440424323E+03  0.00000000000E+00 0. -1.
         13   -1    0    0    0    0 -0.00000000000E+00 -0.00000000000E+00 -0.10000000000E+04  0.10000000000E+04  0.00000000000E+00 0.  1.
    9000005    2    1    2  501    0  0.49966577523E+02 -0.12085988493E+03 -0.75660911207E+03  0.10116211921E+04  0.65864733908E+03 0.  0.
         13    1    3    3    0    0  0.35019615926E+03 -0.86557497157E+02 -0.33053835911E+03  0.48927002475E+03  0.00000000000E+00 0.  1.
          3    1    3    3  501    0 -0.30022958174E+03 -0.34302387774E+02 -0.42607075296E+03  0.52235116740E+03  0.00000000000E+00 0.  1.
         -3    1    1    2    0  502 -0.49966577523E+02  0.12085988493E+03 -0.78986644705E+02  0.15278305108E+03  0.00000000000E+00 0. -1.
<mgrwt>
<rscale>  1 0.67150584E+03</rscale>
<asrwt>0</asrwt>
<pdfrwt beam="1">  1       21 0.25292960E-01 0.67150584E+03</pdfrwt>
<pdfrwt beam="2">0</pdfrwt>
<totfact> 0.14216862E+03</totfact>
</mgrwt>
</event>
<event>
 6    1  0.1364923E-004  0.7768694E+03  0.7818608E-02  0.9594115E-01
         21   -1    0    0  501  502  0.00000000000E+00  0.00000000000E+00  0.37410566645E+03  0.37410566645E+03  0.00000000000E+00 0. -1.
         13   -1    0    0    0    0 -0.00000000000E+00 -0.00000000000E+00 -0.10000000000E+04  0.10000000000E+04  0.00000000000E+00 0.  1.
    9000005    2    1    2  501    0 -0.43387360853E+03 -0.25771630131E+02 -0.49096024630E+03  0.91900381742E+03  0.64390649002E+03 0.  0.
         13    1    3    3    0    0 -0.85827097844E+02 -0.31336784821E+03 -0.22119468560E+03  0.39305570592E+03  0.00000000000E+00 0.  1.
          3    1    3    3  501    0 -0.34804651068E+03  0.28759621808E+03 -0.26976556070E+03  0.52594811150E+03  0.00000000000E+00 0.  1.
         -3    1    1    2    0  502  0.43387360853E+03  0.25771630131E+02 -0.13493408725E+03  0.45510184904E+03  0.00000000000E+00 0. -1.
<mgrwt>
<rscale>  1 0.77686939E+03</rscale>
<asrwt>0</asrwt>
<pdfrwt beam="1">  1       21 0.57554716E-01 0.77686939E+03</pdfrwt>
<pdfrwt beam="2">0</pdfrwt>
<totfact> 0.25685363E+02</totfact>
</mgrwt>
</event>
<event>
 6    1  0.1364923E-004  0.6524324E+03  0.7818608E-02  0.9802226E-01
         21   -1    0    0  501  502  0.00000000000E+00  0.00000000000E+00  0.12707878289E+03  0.12707878289E+03  0.00000000000E+00 0.  1.
         13   -1    0    0    0    0 -0.00000000000E+00 -0.00000000000E+00 -0.10000000000E+04  0.10000000000E+04  0.00000000000E+00 0.  1.
    9000005    2    1    2  501    0 -0.32983645426E+02  0.68994567679E+01 -0.87707317753E+03  0.10931264318E+04  0.65156159632E+03 0.  0.
         13    1    3    3    0    0  0.26246352858E+03  0.12490312050E+03 -0.22497940071E+03  0.36756444889E+03  0.00000000000E+00 0.  1.
          1    1    3    3  501    0 -0.29544717400E+03 -0.11800366373E+03 -0.65209377682E+03  0.72556198291E+03  0.00000000000E+00 0.  1.
         -1    1    1    2    0  502  0.32983645426E+02 -0.68994567679E+01  0.41519604196E+01  0.33952351091E+02  0.00000000000E+00 0. -1.
<mgrwt>
<rscale>  1 0.65243240E+03</rscale>
<asrwt>0</asrwt>
<pdfrwt beam="1">  1       21 0.19550581E-01 0.65243240E+03</pdfrwt>
<pdfrwt beam="2">0</pdfrwt>
<totfact> 0.23438996E+03</totfact>
</mgrwt>
</event>
<event>
 6    1  0.1364923E-004  0.6667551E+03  0.7818608E-02  0.9775838E-01
         21   -1    0    0  501  502  0.00000000000E+00  0.00000000000E+00  0.15592877634E+03  0.15592877634E+03  0.00000000000E+00 0.  1.
         13   -1    0    0    0    0 -0.00000000000E+00 -0.00000000000E+00 -0.10000000000E+04  0.10000000000E+04  0.00000000000E+00 0.  1.
    9000005    2    1    2  501    0 -0.11644683859E+03 -0.36006040118E+02 -0.69057337274E+03  0.95992395146E+03  0.65551972380E+03 0.  0.
         13    1    3    3    0    0  0.26542377475E+03 -0.66506229990E+02 -0.20760632892E+03  0.34347233752E+03  0.00000000000E+00 0.  1.
          3    1    3    3  501    0 -0.38187061334E+03  0.30500189873E+02 -0.48296704382E+03  0.61645161394E+03  0.00000000000E+00 0.  1.
         -1    1    1    2    0  502  0.11644683859E+03  0.36006040118E+02 -0.15349785092E+03  0.19600482489E+03  0.00000000000E+00 0. -1.
<mgrwt>
<rscale>  1 0.66675513E+03</rscale>
<asrwt>0</asrwt>
<pdfrwt beam="1">  1       21 0.23989042E-01 0.66675513E+03</pdfrwt>
<pdfrwt beam="2">0</pdfrwt>
<totfact> 0.15773291E+03</totfact>
</mgrwt>
</event>
<event>
 6    1  0.1364923E-004  0.6609223E+03  0.7818608E-02  0.9786497E-01
         21   -1    0    0  501  502  0.00000000000E+00  0.00000000000E+00  0.12303823434E+03  0.12303823434E+03  0.00000000000E+00 0.  1.
         13   -1    0    0    0    0 -0.00000000000E+00 -0.00000000000E+00 -0.10000000000E+04  0.10000000000E+04  0.00000000000E+00 0.  1.
    9000005    2    1    2  501    0 -0.24150904579E+02 -0.32605133932E+02 -0.82894057186E+03  0.10601701502E+04  0.65967561326E+03 0.  0.
         13    1    3    3    0    0  0.28594733998E+03  0.70643167882E+02 -0.57581934156E+03  0.64677991042E+03  0.00000000000E+00 0.  1.
          3    1    3    3  501    0 -0.31009824456E+03 -0.10324830181E+03 -0.25312123031E+03  0.41339023977E+03  0.00000000000E+00 0.  1.
         -1    1    1    2    0  502  0.24150904579E+02  0.32605133932E+02 -0.48021193796E+02  0.62868084147E+02  0.00000000000E+00 0. -1.
<mgrwt>
<rscale>  1 0.66092229E+03</rscale>
<asrwt>0</asrwt>
<pdfrwt beam="1">  1       21 0.18928959E-01 0.66092229E+03</pdfrwt>
<pdfrwt beam="2">0</pdfrwt>
<totfact> 0.24924201E+03</totfact>
</mgrwt>
</event>
<event>
 6    1  0.1364923E-004  0.4936237E+03  0.7818608E-02  0.1015457E+00
         21   -1    0    0  501  502  0.00000000000E+00  0.00000000000E+00  0.56291575664E+03  0.56291575664E+03  0.00000000000E+00 0. -1.
         13   -1    0    0    0    0 -0.00000000000E+00 -0.00000000000E+00 -0.10000000000E+04  0.10000000000E+04  0.00000000000E+00 0.  1.
    9000005    2    1    2  501    0 -0.22722100443E+02 -0.68917195919E+02 -0.93630041298E+03  0.10584530149E+04  0.48826063507E+03 0.  0.
         13    1    3    3    0    0 -0.74322716528E+02 -0.34918959281E+02 -0.97957636303E+03  0.98301223335E+03  0.00000000000E+00 0.  1.
          1    1    3    3  501    0  0.51600616086E+02 -0.33998236638E+02  0.43275950051E+02  0.75440781595E+02  0.00000000000E+00 0.  1.
         -3    1    1    2    0  502  0.22722100443E+02  0.68917195919E+02  0.49921616963E+03  0.50446274169E+03  0.00000000000E+00 0. -1.
<mgrwt>
<rscale>  1 0.49362366E+03</rscale>
<asrwt>0</asrwt>
<pdfrwt beam="1">  1       21 0.86602422E-01 0.49362366E+03</pdfrwt>
<pdfrwt beam="2">0</pdfrwt>
<totfact> 0.10511412E+02</totfact>
</mgrwt>
</event>
<event>
 6    1  0.1364923E-004  0.6750609E+03  0.7818608E-02  0.9760858E-01
         21   -1    0    0  501  502  0.00000000000E+00  0.00000000000E+00  0.14939125070E+03  0.14939125070E+03  0.00000000000E+00 0.  1.
         13   -1    0    0    0    0 -0.00000000000E+00 -0.00000000000E+00 -0.10000000000E+04  0.10000000000E+04  0.00000000000E+00 0.  1.
    9000005    2    1    2  501    0  0.14379369820E+02 -0.82560211398E+02 -0.81517941120E+03  0.10584066763E+04  0.66983898453E+03 0.  0.
         13    1    3    3    0    0  0.32073423037E+03  0.76042532108E+02 -0.37880118924E+03  0.50213868024E+03  0.00000000000E+00 0.  1.
          3    1    3    3  501    0 -0.30635486055E+03 -0.15860274351E+03 -0.43637822196E+03  0.55626799605E+03  0.00000000000E+00 0.  1.
         -1    1    1    2    0  502 -0.14379369820E+02  0.82560211398E+02 -0.35429338102E+02  0.90984574412E+02  0.00000000000E+00 0. -1.
<mgrwt>
<rscale>  1 0.67506090E+03</rscale>
<asrwt>0</asrwt>
<pdfrwt beam="1">  1       21 0.22983269E-01 0.67506090E+03</pdfrwt>
<pdfrwt beam="2">0</pdfrwt>
<totfact> 0.17139765E+03</totfact>
</mgrwt>
</event>
<event>
 6    1  0.1364923E-004  0.6650310E+03  0.7818608E-02  0.9778976E-01
         21   -1    0    0  501  502  0.00000000000E+00  0.00000000000E+00  0.15889389863E+03  0.15889389863E+03  0.00000000000E+00 0.  1.
         13   -1    0    0    0    0 -0.00000000000E+00 -0.00000000000E+00 -0.10000000000E+04  0.10000000000E+04  0.00000000000E+00 0.  1.
    9000005    2    1    2  501    0  0.96459671675E+01  0.60688761250E+02 -0.86659971501E+03  0.10923649969E+04  0.66218581233E+03 0.  0.
         13    1    3    3    0    0 -0.28857281576E+03  0.18263239717E+03 -0.48042620235E+03  0.58943888436E+03  0.00000000000E+00 0.  1.
          3    1    3    3  501    0  0.29821878293E+03 -0.12194363592E+03 -0.38617351265E+03  0.50292611257E+03  0.00000000000E+00 0.  1.
         -3    1    1    2    0  502 -0.96459671675E+01 -0.60688761250E+02  0.25493613633E+02  0.66528901694E+02  0.00000000000E+00 0. -1.
<mgrwt>
<rscale>  1 0.66503099E+03</rscale>
<asrwt>0</asrwt>
<pdfrwt beam="1">  1       21 0.24445214E-01 0.66503099E+03</pdfrwt>
<pdfrwt beam="2">0</pdfrwt>
<totfact> 0.15204341E+03</totfact>
</mgrwt>
</event>
<event>
 6    1  0.1364923E-004  0.6401930E+03  0.7818608E-02  0.9825357E-01
         21   -1    0    0  501  502  0.00000000000E+00  0.00000000000E+00  0.13025504647E+03  0.13025504647E+03  0.00000000000E+00 0.  1.
         13   -1    0    0    0    0 -0.00000000000E+00 -0.00000000000E+00 -0.10000000000E+04  0.10000000000E+04  0.00000000000E+00 0.  1.
    9000005    2    1    2  501    0 -0.94281114863E+01 -0.19509070906E+02 -0.89280538393E+03  0.10986120917E+04  0.63982621187E+03 0.  0.
         13    1    3    3    0    0  0.80551842352E+02  0.49958387464E+02  0.77028708694E+02  0.12213869881E+03  0.00000000000E+00 0.  1.
          3    1    3    3  501    0 -0.89979953838E+02 -0.69467458371E+02 -0.96983409263E+03  0.97647339292E+03  0.00000000000E+00 0.  1.
         -3    1    1    2    0  502  0.94281114863E+01  0.19509070906E+02  0.23060430404E+02  0.31642954733E+02  0.00000000000E+00 0. -1.
<mgrwt>
<rscale>  1 0.64019300E+03</rscale>
<asrwt>0</asrwt>
<pdfrwt beam="1">  1       21 0.20039237E-01 0.64019300E+03</pdfrwt>
<pdfrwt beam="2">0</pdfrwt>
<totfact> 0.22367017E+03</totfact>
</mgrwt>
</event>
<event>
 6    1  0.1364923E-004  0.6562931E+03  0.7818608E-02  0.9795042E-01
         21   -1    0    0  501  502  0.00000000000E+00  0.00000000000E+00  0.12495095707E+03  0.12495095707E+03  0.00000000000E+00 0.  1.
         13   -1    0    0    0    0 -0.00000000000E+00 -0.00000000000E+00 -0.10000000000E+04  0.10000000000E+04  0.00000000000E+00 0.  1.
    9000005    2    1    2  501    0 -0.30105999038E+02  0.51690530693E+01 -0.87577486094E+03  0.10943958086E+04  0.65558179390E+03 0.  0.
         13    1    3    3    0    0 -0.94860280411E+02 -0.23047395783E+03 -0.79714823414E+02  0.26166996601E+03  0.00000000000E+00 0.  1.
          1    1    3    3  501    0  0.64754281373E+02  0.23564301090E+03 -0.79606003752E+03  0.83272584257E+03  0.00000000000E+00 0.  1.
         -3    1    1    2    0  502  0.30105999038E+02 -0.51690530693E+01  0.72581801289E+00  0.30555148494E+02  0.00000000000E+00 0. -1.
<mgrwt>
<rscale>  1 0.65629306E+03</rscale>
<asrwt>0</asrwt>
<pdfrwt beam="1">  1       21 0.19223224E-01 0.65629306E+03</pdfrwt>
<pdfrwt beam="2">0</pdfrwt>
<totfact> 0.24204725E+03</totfact>
</mgrwt>
</event>
<event>
 6    1  0.1364923E-004  0.6305272E+03  0.7818608E-02  0.9844021E-01
         21   -1    0    0  501  502  0.00000000000E+00  0.00000000000E+00  0.24742514925E+03  0.24742514925E+03  0.00000000000E+00 0. -1.
         13   -1    0    0    0    0 -0.00000000000E+00 -0.00000000000E+00 -0.10000000000E+04  0.10000000000E+04  0.00000000000E+00 0.  1.
    9000005    2    1    2  501    0  0.11922815440E+03 -0.81415615659E+02 -0.86077610783E+03  0.10670051744E+04  0.61377575645E+03 0.  0.
         13    1    3    3    0    0  0.11274498517E+02 -0.17318771434E+03 -0.90270812856E+03  0.91924048219E+03  0.00000000000E+00 0.  1.
          1    1    3    3  501    0  0.10795365589E+03  0.91772098679E+02  0.41932020736E+02  0.14776469226E+03  0.00000000000E+00 0.  1.
         -1    1    1    2    0  502 -0.11922815440E+03  0.81415615659E+02  0.10820125708E+03  0.18041997480E+03  0.00000000000E+00 0. -1.
<mgrwt>
<rscale>  1 0.63052719E+03</rscale>
<asrwt>0</asrwt>
<pdfrwt beam="1">  1       21 0.38065406E-01 0.63052719E+03</pdfrwt>
<pdfrwt beam="2">0</pdfrwt>
<totfact> 0.62669491E+02</totfact>
</mgrwt>
</event>
<event>
 6    1  0.1364923E-004  0.6695672E+03  0.7818608E-02  0.9770740E-01
         21   -1    0    0  501  502  0.00000000000E+00  0.00000000000E+00  0.21791435859E+03  0.21791435859E+03  0.00000000000E+00 0. -1.
         13   -1    0    0    0    0 -0.00000000000E+00 -0.00000000000E+00 -0.10000000000E+04  0.10000000000E+04  0.00000000000E+00 0.  1.
    9000005    2    1    2  501    0  0.77820876183E+02  0.21352916908E+03 -0.71806051363E+03  0.98179995453E+03  0.62981700093E+03 0.  0.
         13    1    3    3    0    0 -0.25488506364E+03  0.16744191328E+02 -0.15486513457E+03  0.29871386563E+03  0.00000000000E+00 0.  1.
          1    1    3    3  501    0  0.33270593983E+03  0.19678497775E+03 -0.56319537905E+03  0.68308608890E+03  0.00000000000E+00 0.  1.
         -3    1    1    2    0  502 -0.77820876183E+02 -0.21352916908E+03 -0.64025127787E+02  0.23611440406E+03  0.00000000000E+00 0. -1.
<mgrwt>
<rscale>  1 0.66956721E+03</rscale>
<asrwt>0</asrwt>
<pdfrwt beam="1">  1       21 0.33525285E-01 0.66956721E+03</pdfrwt>
<pdfrwt beam="2">0</pdfrwt>
<totfact> 0.81015485E+02</totfact>
</mgrwt>
</event>
<event>
 6    1  0.1364923E-004  0.6364756E+03  0.7818608E-02  0.9832493E-01
         21   -1    0    0  501  502  0.00000000000E+00  0.00000000000E+00  0.25919524770E+03  0.25919524770E+03  0.00000000000E+00 0. -1.
         13   -1    0    0    0    0 -0.00000000000E+00 -0.00000000000E+00 -0.10000000000E+04  0.10000000000E+04  0.00000000000E+00 0.  1.
    9000005    2    1    2  501    0  0.30398447567E+02  0.30144915838E+01 -0.89709608240E+03  0.10999465974E+04  0.63574207285E+03 0.  0.
         13    1    3    3    0    0  0.91487793888E+02  0.30587237820E+03 -0.36742949670E+03  0.48675698580E+03  0.00000000000E+00 0.  1.
          1    1    3    3  501    0 -0.61089346322E+02 -0.30285788661E+03 -0.52966658570E+03  0.61318961156E+03  0.00000000000E+00 0.  1.
         -1    1    1    2    0  502 -0.30398447567E+02 -0.30144915838E+01  0.15629133010E+03  0.15924865035E+03  0.00000000000E+00 0. -1.
<mgrwt>
<rscale>  1 0.63647556E+03</rscale>
<asrwt>0</asrwt>
<pdfrwt beam="1">  1       21 0.39876191E-01 0.63647556E+03</pdfrwt>
<pdfrwt beam="2">0</pdfrwt>
<totfact> 0.56903011E+02</totfact>
</mgrwt>
</event>
<event>
 6    1  0.1364923E-004  0.6755579E+03  0.7818608E-02  0.9759969E-01
         21   -1    0    0  501  502  0.00000000000E+00  0.00000000000E+00  0.14589601287E+03  0.14589601287E+03  0.00000000000E+00 0.  1.
         13   -1    0    0    0    0 -0.00000000000E+00 -0.00000000000E+00 -0.10000000000E+04  0.10000000000E+04  0.00000000000E+00 0.  1.
    9000005    2    1    2  501    0  0.83172963440E+02  0.27292328765E+02 -0.77248132656E+03  0.10262094565E+04  0.66986254983E+03 0.  0.
         13    1    3    3    0    0 -0.22141340132E+03  0.12001779147E+03 -0.80346203997E+02  0.26435520999E+03  0.00000000000E+00 0.  1.
          3    1    3    3  501    0  0.30458636476E+03 -0.92725462700E+02 -0.69213512256E+03  0.76185424650E+03  0.00000000000E+00 0.  1.
         -3    1    1    2    0  502 -0.83172963440E+02 -0.27292328765E+02 -0.81622660573E+02  0.11968655637E+03  0.00000000000E+00 0. -1.
<mgrwt>
<rscale>  1 0.67555788E+03</rscale>
<asrwt>0</asrwt>
<pdfrwt beam="1">  1       21 0.22445540E-01 0.67555788E+03</pdfrwt>
<pdfrwt beam="2">0</pdfrwt>
<totfact> 0.17946078E+03</totfact>
</mgrwt>
</event>
<event>
 6    1  0.1364923E-004  0.6741668E+03  0.7818608E-02  0.9762460E-01
         21   -1    0    0  501  502  0.00000000000E+00  0.00000000000E+00  0.23312353658E+03  0.23312353658E+03  0.00000000000E+00 0.  1.
         13   -1    0    0    0    0 -0.00000000000E+00 -0.00000000000E+00 -0.10000000000E+04  0.10000000000E+04  0.00000000000E+00 0.  1.
    9000005    2    1    2  501    0  0.12896919286E+03 -0.82777296851E+02 -0.82833780105E+03  0.10680095468E+04  0.65651789460E+03 0.  0.
         13    1    3    3    0    0  0.23756644017E+03 -0.26733401883E+03 -0.21250526624E+03  0.41600935001E+03  0.00000000000E+00 0.  1.
          1    1    3    3  501    0 -0.10859724730E+03  0.18455672198E+03 -0.61583253481E+03  0.65200019684E+03  0.00000000000E+00 0.  1.
         -1    1    1    2    0  502 -0.12896919286E+03  0.82777296851E+02  0.61461337622E+02  0.16511398973E+03  0.00000000000E+00 0. -1.
<mgrwt>
<rscale>  1 0.67416680E+03</rscale>
<asrwt>0</asrwt>
<pdfrwt beam="1">  1       21 0.35865158E-01 0.67416680E+03</pdfrwt>
<pdfrwt beam="2">0</pdfrwt>
<totfact> 0.70585083E+02</totfact>
</mgrwt>
</event>
<event>
 6    1  0.1364923E-004  0.6472340E+03  0.7818608E-02  0.9811983E-01
         21   -1    0    0  501  502  0.00000000000E+00  0.00000000000E+00  0.11326341616E+03  0.11326341616E+03  0.00000000000E+00 0.  1.
         13   -1    0    0    0    0 -0.00000000000E+00 -0.00000000000E+00 -0.10000000000E+04  0.10000000000E+04  0.00000000000E+00 0.  1.
    9000005    2    1    2  501    0  0.86856170157E+01 -0.21791579776E+02 -0.87043122342E+03  0.10846945928E+04  0.64680872905E+03 0.  0.
         13    1    3    3    0    0 -0.50576196425E+02 -0.30219779133E+03 -0.23019583439E+03  0.38323827954E+03  0.00000000000E+00 0.  1.
          1    1    3    3  501    0  0.59261813441E+02  0.28040621155E+03 -0.64023538903E+03  0.70145631323E+03  0.00000000000E+00 0.  1.
         -1    1    1    2    0  502 -0.86856170157E+01  0.21791579776E+02 -0.16305360411E+02  0.28568823396E+02  0.00000000000E+00 0. -1.
<mgrwt>
<rscale>  1 0.64723400E+03</rscale>
<asrwt>0</asrwt>
<pdfrwt beam="1">  1       21 0.17425140E-01 0.64723400E+03</pdfrwt>
<pdfrwt beam="2">0</pdfrwt>
<totfact> 0.29181579E+03</totfact>
</mgrwt>
</event>
<event>
 6    1  0.1364923E-004  0.5505357E+03  0.7818608E-02  0.1001370E+00
         21   -1    0    0  501  502  0.00000000000E+00  0.00000000000E+00  0.21518675953E+03  0.21518675953E+03  0.00000000000E+00 0.  1.
         13   -1    0    0    0    0 -0.00000000000E+00 -0.00000000000E+00 -0.10000000000E+04  0.10000000000E+04  0.00000000000E+00 0.  1.
    9000005    2    1    2  501    0 -0.77286526600E+02 -0.82345622731E+02 -0.89926100557E+03  0.10544002560E+04  0.53882792704E+03 0.  0.
         13    1    3    3    0    0  0.69306302336E+02  0.60496530333E+02 -0.83473839207E+03  0.83979246063E+03  0.00000000000E+00 0.  1.
          3    1    3    3  501    0 -0.14659282894E+03 -0.14284215306E+03 -0.64522613501E+02  0.21460779539E+03  0.00000000000E+00 0.  1.
         -1    1    1    2    0  502  0.77286526600E+02  0.82345622731E+02  0.11444776510E+03  0.16078650352E+03  0.00000000000E+00 0. -1.
<mgrwt>
<rscale>  1 0.55053569E+03</rscale>
<asrwt>0</asrwt>
<pdfrwt beam="1">  1       21 0.33105654E-01 0.55053569E+03</pdfrwt>
<pdfrwt beam="2">0</pdfrwt>
<totfact> 0.83844504E+02</totfact>
</mgrwt>
</event>
<event>
 6    1  0.1364923E-004  0.6548116E+03  0.7818608E-02  0.9797792E-01
         21   -1    0    0  501  502  0.00000000000E+00  0.00000000000E+00  0.16492896982E+03  0.16492896982E+03  0.00000000000E+00 0. -1.
         13   -1    0    0    0    0 -0.00000000000E+00 -0.00000000000E+00 -0.10000000000E+04  0.10000000000E+04  0.00000000000E+00 0.  1.
    9000005    2    1    2  501    0  0.47969452443E+01  0.56366335325E+02 -0.87701783722E+03  0.10945037679E+04  0.65236342384E+03 0.  0.
         13    1    3    3    0    0  0.14441178590E+03 -0.14962310585E+02  0.50585101446E+02  0.15374487677E+03  0.00000000000E+00 0.  1.
          3    1    3    3  501    0 -0.13961484066E+03  0.71328645910E+02 -0.92760293866E+03  0.94075889115E+03  0.00000000000E+00 0.  1.
         -1    1    1    2    0  502 -0.47969452443E+01 -0.56366335325E+02  0.41946807035E+02  0.70425201896E+02  0.00000000000E+00 0. -1.
<mgrwt>
<rscale>  1 0.65481158E+03</rscale>
<asrwt>0</asrwt>
<pdfrwt beam="1">  1       21 0.25373687E-01 0.65481158E+03</pdfrwt>
<pdfrwt beam="2">0</pdfrwt>
<totfact> 0.14140413E+03</totfact>
</mgrwt>
</event>
<event>
 6    1  0.1364923E-004  0.6477895E+03  0.7818608E-02  0.9810936E-01
         21   -1    0    0  501  502  0.00000000000E+00  0.00000000000E+00  0.26026692547E+03  0.26026692547E+03  0.00000000000E+00 0.  1.
         13   -1    0    0    0    0 -0.00000000000E+00 -0.00000000000E+00 -0.10000000000E+04  0.10000000000E+04  0.00000000000E+00 0.  1.
    9000005    2    1    2  501    0  0.23980513983E+02  0.42891749937E+02 -0.89078578699E+03  0.11014220666E+04  0.64592296997E+03 0.  0.
         13    1    3    3    0    0  0.18294059802E+02 -0.30213658265E+03 -0.41148180633E+03  0.51082136226E+03  0.00000000000E+00 0.  1.
          3    1    3    3  501    0  0.56864541808E+01  0.34502833258E+03 -0.47930398065E+03  0.59060070429E+03  0.00000000000E+00 0.  1.
         -3    1    1    2    0  502 -0.23980513983E+02 -0.42891749937E+02  0.15105271245E+03  0.15884485891E+03  0.00000000000E+00 0. -1.
<mgrwt>
<rscale>  1 0.64778951E+03</rscale>
<asrwt>0</asrwt>
<pdfrwt beam="1">  1       21 0.40041064E-01 0.64778951E+03</pdfrwt>
<pdfrwt beam="2">0</pdfrwt>
<totfact> 0.56365564E+02</totfact>
</mgrwt>
</event>
<event>
 6    1  0.1364923E-004  0.6529761E+03  0.7818608E-02  0.9801211E-01
         21   -1    0    0  501  502  0.00000000000E+00  0.00000000000E+00  0.31780285399E+03  0.31780285399E+03  0.00000000000E+00 0. -1.
         13   -1    0    0    0    0 -0.00000000000E+00 -0.00000000000E+00 -0.10000000000E+04  0.10000000000E+04  0.00000000000E+00 0.  1.
    9000005    2    1    2  501    0 -0.87476179000E+02 -0.20512480652E+02 -0.88276951833E+03  0.10980254205E+04  0.64676499419E+03 0.  0.
         13    1    3    3    0    0 -0.66117153977E+02  0.13695869458E+02  0.96582109276E+02  0.11784378949E+03  0.00000000000E+00 0.  1.
          3    1    3    3  501    0 -0.21359025023E+02 -0.34208350110E+02 -0.97935162761E+03  0.98018163096E+03  0.00000000000E+00 0.  1.
         -3    1    1    2    0  502  0.87476179000E+02  0.20512480652E+02  0.20057237232E+03  0.21977743354E+03  0.00000000000E+00 0. -1.
<mgrwt>
<rscale>  1 0.65297611E+03</rscale>
<asrwt>0</asrwt>
<pdfrwt beam="1">  1       21 0.48892745E-01 0.65297611E+03</pdfrwt>
<pdfrwt beam="2">0</pdfrwt>
<totfact> 0.36992875E+02</totfact>
</mgrwt>
</event>
<event>
 6    1  0.1364923E-004  0.6586913E+03  0.7818608E-02  0.9790606E-01
         21   -1    0    0  501  502  0.00000000000E+00  0.00000000000E+00  0.17031429793E+03  0.17031429793E+03  0.00000000000E+00 0.  1.
         13   -1    0    0    0    0 -0.00000000000E+00 -0.00000000000E+00 -0.10000000000E+04  0.10000000000E+04  0.00000000000E+00 0.  1.
    9000005    2    1    2  501    0 -0.77928484130E+02  0.94841706257E+02 -0.81313516178E+03  0.10464526079E+04  0.64715258732E+03 0.  0.
         13    1    3    3    0    0  0.22459510603E+02 -0.28806766758E+02 -0.87487370455E+03  0.87563591655E+03  0.00000000000E+00 0.  1.
          3    1    3    3  501    0 -0.10038799473E+03  0.12364847301E+03  0.61738542774E+02  0.17081669131E+03  0.00000000000E+00 0.  1.
         -1    1    1    2    0  502  0.77928484130E+02 -0.94841706257E+02 -0.16550540292E+02  0.12386169008E+03  0.00000000000E+00 0. -1.
<mgrwt>
<rscale>  1 0.65869133E+03</rscale>
<asrwt>0</asrwt>
<pdfrwt beam="1">  1       21 0.26202199E-01 0.65869133E+03</pdfrwt>
<pdfrwt beam="2">0</pdfrwt>
<totfact> 0.13271640E+03</totfact>
</mgrwt>
</event>
<event>
 6    1  0.1364923E-004  0.6551382E+03  0.7818608E-02  0.9797185E-01
         21   -1    0    0  501  502  0.00000000000E+00  0.00000000000E+00  0.12096505586E+03  0.12096505586E+03  0.00000000000E+00 0.  1.
         13   -1    0    0    0    0 -0.00000000000E+00 -0.00000000000E+00 -0.10000000000E+04  0.10000000000E+04  0.00000000000E+00 0.  1.
    9000005    2    1    2  501    0  0.18092582434E+02 -0.18346073699E+02 -0.87759039198E+03  0.10951579504E+04  0.65463128580E+03 0.  0.
         13    1    3    3    0    0 -0.18022664521E+03  0.19646884717E+03 -0.13870564622E+03  0.30053437049E+03  0.00000000000E+00 0.  1.
          3    1    3    3  501    0  0.19831922764E+03 -0.21481492087E+03 -0.73888474576E+03  0.79462357995E+03  0.00000000000E+00 0.  1.
         -1    1    1    2    0  502 -0.18092582434E+02  0.18346073699E+02 -0.14445521593E+01  0.25807105422E+02  0.00000000000E+00 0. -1.
<mgrwt>
<rscale>  1 0.65513818E+03</rscale>
<asrwt>0</asrwt>
<pdfrwt beam="1">  1       21 0.18610008E-01 0.65513818E+03</pdfrwt>
<pdfrwt beam="2">0</pdfrwt>
<totfact> 0.25749978E+03</totfact>
</mgrwt>
</event>
<event>
 6    1  0.1364923E-004  0.6834743E+03  0.7818608E-02  0.9745918E-01
         21   -1    0    0  501  502  0.00000000000E+00  0.00000000000E+00  0.41804601223E+03  0.41804601223E+03  0.00000000000E+00 0. -1.
         13   -1    0    0    0    0 -0.00000000000E+00 -0.00000000000E+00 -0.10000000000E+04  0.10000000000E+04  0.00000000000E+00 0.  1.
    9000005    2    1    2  501    0 -0.65725832409E+02 -0.64802564545E+02 -0.87529263652E+03  0.11105288253E+04  0.67721327130E+03 0.  0.
         13    1    3    3    0    0 -0.18482912282E+03 -0.32157114602E+03 -0.33137928251E+03  0.49737514561E+03  0.00000000000E+00 0.  1.
          3    1    3    3  501    0  0.11910329041E+03  0.25676858148E+03 -0.54391335401E+03  0.61315367967E+03  0.00000000000E+00 0.  1.
         -3    1    1    2    0  502  0.65725832409E+02  0.64802564545E+02  0.29333864875E+03  0.30751718695E+03  0.00000000000E+00 0. -1.
<mgrwt>
<rscale>  1 0.68347427E+03</rscale>
<asrwt>0</asrwt>
<pdfrwt beam="1">  1       21 0.64314769E-01 0.68347427E+03</pdfrwt>
<pdfrwt beam="2">0</pdfrwt>
<totfact> 0.20254894E+02</totfact>
</mgrwt>
</event>
<event>
 6    1  0.1364923E-004  0.7869412E+03  0.7818608E-02  0.9579114E-01
         21   -1    0    0  501  502  0.00000000000E+00  0.00000000000E+00  0.39147434488E+03  0.39147434488E+03  0.00000000000E+00 0.  1.
         13   -1    0    0    0    0 -0.00000000000E+00 -0.00000000000E+00 -0.10000000000E+04  0.10000000000E+04  0.00000000000E+00 0.  1.
    9000005    2    1    2  501    0 -0.37967886914E+03  0.23301327417E+03 -0.50203972951E+03  0.93344543535E+03  0.64871046019E+03 0.  0.
         13    1    3    3    0    0 -0.40281540594E+02 -0.21332112784E+03 -0.78901188757E+02  0.23098463950E+03  0.00000000000E+00 0.  1.
          3    1    3    3  501    0 -0.33939732855E+03  0.44633440201E+03 -0.42313854075E+03  0.70246079585E+03  0.00000000000E+00 0.  1.
         -3    1    1    2    0  502  0.37967886914E+03 -0.23301327417E+03 -0.10648592561E+03  0.45802890953E+03  0.00000000000E+00 0. -1.
<mgrwt>
<rscale>  1 0.78694122E+03</rscale>
<asrwt>0</asrwt>
<pdfrwt beam="1">  1       21 0.60226821E-01 0.78694122E+03</pdfrwt>
<pdfrwt beam="2">0</pdfrwt>
<totfact> 0.23212562E+02</totfact>
</mgrwt>
</event>
<event>
 6    1  0.1364923E-004  0.6985582E+03  0.7818608E-02  0.9719701E-01
         21   -1    0    0  501  502  0.00000000000E+00  0.00000000000E+00  0.25930752285E+03  0.25930752285E+03  0.00000000000E+00 0. -1.
         13   -1    0    0    0    0 -0.00000000000E+00 -0.00000000000E+00 -0.10000000000E+04  0.10000000000E+04  0.00000000000E+00 0.  1.
    9000005    2    1    2  501    0 -0.60923528669E+02  0.24927222611E+02 -0.86908141179E+03  0.11150273741E+04  0.69544985585E+03 0.  0.
         13    1    3    3    0    0  0.80149229077E+02  0.34208593093E+03 -0.42822320830E+03  0.55391497469E+03  0.00000000000E+00 0.  1.
          1    1    3    3  501    0 -0.14107275775E+03 -0.31715870831E+03 -0.44085820349E+03  0.56111239945E+03  0.00000000000E+00 0.  1.
         -3    1    1    2    0  502  0.60923528669E+02 -0.24927222611E+02  0.12838893464E+03  0.14428014871E+03  0.00000000000E+00 0. -1.
<mgrwt>
<rscale>  1 0.69855819E+03</rscale>
<asrwt>0</asrwt>
<pdfrwt beam="1">  1       21 0.39893464E-01 0.69855819E+03</pdfrwt>
<pdfrwt beam="2">0</pdfrwt>
<totfact> 0.56574778E+02</totfact>
</mgrwt>
</event>
<event>
 6    1  0.1364923E-004  0.6665785E+03  0.7818608E-02  0.9776159E-01
         21   -1    0    0  501  502  0.00000000000E+00  0.00000000000E+00  0.38120923489E+03  0.38120923489E+03  0.00000000000E+00 0. -1.
         13   -1    0    0    0    0 -0.00000000000E+00 -0.00000000000E+00 -0.10000000000E+04  0.10000000000E+04  0.00000000000E+00 0.  1.
    9000005    2    1    2  501    0  0.53195197669E+02  0.50921233204E+02 -0.88332771102E+03  0.11066140842E+04  0.66249844166E+03 0.  0.
         13    1    3    3    0    0  0.12824082462E+03 -0.16947054567E+03 -0.84418864127E+03  0.87052882606E+03  0.00000000000E+00 0.  1.
          1    1    3    3  501    0 -0.75045626948E+02  0.22039177887E+03 -0.39139069742E+02  0.23608525811E+03  0.00000000000E+00 0.  1.
         -3    1    1    2    0  502 -0.53195197669E+02 -0.50921233204E+02  0.26453694591E+03  0.27459515072E+03  0.00000000000E+00 0. -1.
<mgrwt>
<rscale>  1 0.66657849E+03</rscale>
<asrwt>0</asrwt>
<pdfrwt beam="1">  1       21 0.58647573E-01 0.66657849E+03</pdfrwt>
<pdfrwt beam="2">0</pdfrwt>
<totfact> 0.24903186E+02</totfact>
</mgrwt>
</event>
<event>
 6    1  0.1364923E-004  0.5504889E+03  0.7818608E-02  0.1001381E+00
         21   -1    0    0  501  502  0.00000000000E+00  0.00000000000E+00  0.18737215197E+03  0.18737215197E+03  0.00000000000E+00 0.  1.
         13   -1    0    0    0    0 -0.00000000000E+00 -0.00000000000E+00 -0.10000000000E+04  0.10000000000E+04  0.00000000000E+00 0.  1.
    9000005    2    1    2  501    0 -0.92897976577E+01  0.17804568465E+02 -0.92326803442E+03  0.10749241469E+04  0.55012249112E+03 0.  0.
         13    1    3    3    0    0 -0.54842225092E+02  0.16232480837E+03 -0.90640772918E+03  0.92245974686E+03  0.00000000000E+00 0.  1.
          1    1    3    3  501    0  0.45552427434E+02 -0.14452023991E+03 -0.16860305237E+02  0.15246440005E+03  0.00000000000E+00 0.  1.
         -1    1    1    2    0  502  0.92897976577E+01 -0.17804568465E+02  0.11064018639E+03  0.11244800507E+03  0.00000000000E+00 0. -1.
<mgrwt>
<rscale>  1 0.55048893E+03</rscale>
<asrwt>0</asrwt>
<pdfrwt beam="1">  1       21 0.28826484E-01 0.55048893E+03</pdfrwt>
<pdfrwt beam="2">0</pdfrwt>
<totfact> 0.11061807E+03</totfact>
</mgrwt>
</event>
<event>
 6    1  0.1364923E-004  0.6048346E+03  0.7818608E-02  0.9895426E-01
         21   -1    0    0  501  502  0.00000000000E+00  0.00000000000E+00  0.93695964024E+03  0.93695964024E+03  0.00000000000E+00 0. -1.
         13   -1    0    0    0    0 -0.00000000000E+00 -0.00000000000E+00 -0.10000000000E+04  0.10000000000E+04  0.00000000000E+00 0.  1.
    9000005    2    1    2  501    0 -0.32042046462E+02  0.84511125434E+01 -0.90818935926E+03  0.10911612332E+04  0.60392616308E+03 0.  0.
         13    1    3    3    0    0 -0.26785235512E+03 -0.14294783474E+03 -0.61343506706E+03  0.68445711999E+03  0.00000000000E+00 0.  1.
          3    1    3    3  501    0  0.23581030866E+03  0.15139894728E+03 -0.29475429220E+03  0.40670411318E+03  0.00000000000E+00 0.  1.
         -1    1    1    2    0  502  0.32042046462E+02 -0.84511125434E+01  0.84514899950E+03  0.84579840707E+03  0.00000000000E+00 0. -1.
<mgrwt>
<rscale>  1 0.60483463E+03</rscale>
<asrwt>0</asrwt>
<pdfrwt beam="1">  1       21 0.14414763E+00 0.60483463E+03</pdfrwt>
<pdfrwt beam="2">0</pdfrwt>
<totfact> 0.28566747E+01</totfact>
</mgrwt>
</event>
<event>
 6    1  0.1364923E-004  0.7913244E+03  0.7818608E-02  0.9572660E-01
         21   -1    0    0  501  502  0.00000000000E+00  0.00000000000E+00  0.44020627904E+03  0.44020627904E+03  0.00000000000E+00 0. -1.
         13   -1    0    0    0    0 -0.00000000000E+00 -0.00000000000E+00 -0.10000000000E+04  0.10000000000E+04  0.00000000000E+00 0.  1.
    9000005    2    1    2  501    0  0.17148688195E+02 -0.45016089396E+03 -0.59246031234E+03  0.98853602969E+03  0.65058078081E+03 0.  0.
         13    1    3    3    0    0 -0.88252595497E+00 -0.57579162802E+03 -0.63261510375E+03  0.85541723576E+03  0.00000000000E+00 0.  1.
          3    1    3    3  501    0  0.18031214150E+02  0.12563073406E+03  0.40154791414E+02  0.13311879393E+03  0.00000000000E+00 0.  1.
         -3    1    1    2    0  502 -0.17148688195E+02  0.45016089396E+03  0.32666591379E+02  0.45167024935E+03  0.00000000000E+00 0. -1.
<mgrwt>
<rscale>  1 0.79132437E+03</rscale>
<asrwt>0</asrwt>
<pdfrwt beam="1">  1       21 0.67724041E-01 0.79132437E+03</pdfrwt>
<pdfrwt beam="2">0</pdfrwt>
<totfact> 0.17834775E+02</totfact>
</mgrwt>
</event>
<event>
 6    1  0.1364923E-004  0.6635931E+03  0.7818608E-02  0.9781602E-01
         21   -1    0    0  501  502  0.00000000000E+00  0.00000000000E+00  0.32821929013E+03  0.32821929013E+03  0.00000000000E+00 0. -1.
         13   -1    0    0    0    0 -0.00000000000E+00 -0.00000000000E+00 -0.10000000000E+04  0.10000000000E+04  0.00000000000E+00 0.  1.
    9000005    2    1    2  501    0  0.38480809281E+02  0.41697956417E+02 -0.88580576926E+03  0.11068006407E+04  0.66116284320E+03 0.  0.
         13    1    3    3    0    0 -0.42718232944E+02  0.21294261232E+03 -0.17317633744E+02  0.21787451435E+03  0.00000000000E+00 0.  1.
          3    1    3    3  501    0  0.81199042225E+02 -0.17124465590E+03 -0.86848813552E+03  0.88892612638E+03  0.00000000000E+00 0.  1.
         -3    1    1    2    0  502 -0.38480809281E+02 -0.41697956417E+02  0.21402505940E+03  0.22141864940E+03  0.00000000000E+00 0. -1.
<mgrwt>
<rscale>  1 0.66359310E+03</rscale>
<asrwt>0</asrwt>
<pdfrwt beam="1">  1       21 0.50495274E-01 0.66359310E+03</pdfrwt>
<pdfrwt beam="2">0</pdfrwt>
<totfact> 0.34488700E+02</totfact>
</mgrwt>
</event>
<event>
 6    1  0.1364923E-004  0.6430657E+03  0.7818608E-02  0.9819879E-01
         21   -1    0    0  501  502  0.00000000000E+00  0.00000000000E+00  0.12375987845E+03  0.12375987845E+03  0.00000000000E+00 0.  1.
         13   -1    0    0    0    0 -0.00000000000E+00 -0.00000000000E+00 -0.10000000000E+04  0.10000000000E+04  0.00000000000E+00 0.  1.
    9000005    2    1    2  501    0  0.13907203316E+02 -0.25169513574E+02 -0.88475791433E+03  0.10937687546E+04  0.64242245197E+03 0.  0.
         13    1    3    3    0    0  0.15921296133E+03 -0.12985091106E+03 -0.89119153839E+03  0.91456677409E+03  0.00000000000E+00 0.  1.
          3    1    3    3  501    0 -0.14530575802E+03  0.10468139748E+03  0.64336240620E+01  0.17920198049E+03  0.00000000000E+00 0.  1.
         -1    1    1    2    0  502 -0.13907203316E+02  0.25169513574E+02  0.85177927837E+01  0.29991123879E+02  0.00000000000E+00 0. -1.
<mgrwt>
<rscale>  1 0.64306572E+03</rscale>
<asrwt>0</asrwt>
<pdfrwt beam="1">  1       21 0.19039981E-01 0.64306572E+03</pdfrwt>
<pdfrwt beam="2">0</pdfrwt>
<totfact> 0.24663492E+03</totfact>
</mgrwt>
</event>
<event>
 6    1  0.1364923E-004  0.6569122E+03  0.7818608E-02  0.9793895E-01
         21   -1    0    0  501  502  0.00000000000E+00  0.00000000000E+00  0.12154297869E+03  0.12154297869E+03  0.00000000000E+00 0.  1.
         13   -1    0    0    0    0 -0.00000000000E+00 -0.00000000000E+00 -0.10000000000E+04  0.10000000000E+04  0.00000000000E+00 0.  1.
    9000005    2    1    2  501    0 -0.20831107332E+02 -0.31272321863E+02 -0.85077014452E+03  0.10748690428E+04  0.65583666195E+03 0.  0.
         13    1    3    3    0    0 -0.29912430750E+03 -0.13839688085E+02 -0.18229313985E+03  0.35056764987E+03  0.00000000000E+00 0.  1.
          1    1    3    3  501    0  0.27829320017E+03 -0.17432633778E+02 -0.66847700467E+03  0.72430139289E+03  0.00000000000E+00 0.  1.
         -3    1    1    2    0  502  0.20831107332E+02  0.31272321863E+02 -0.27686876796E+02  0.46673935918E+02  0.00000000000E+00 0. -1.
<mgrwt>
<rscale>  1 0.65691219E+03</rscale>
<asrwt>0</asrwt>
<pdfrwt beam="1">  1       21 0.18698919E-01 0.65691219E+03</pdfrwt>
<pdfrwt beam="2">0</pdfrwt>
<totfact> 0.25515781E+03</totfact>
</mgrwt>
</event>
<event>
 6    1  0.1364923E-004  0.6500249E+03  0.7818608E-02  0.9806732E-01
         21   -1    0    0  501  502  0.00000000000E+00  0.00000000000E+00  0.18876564250E+03  0.18876564250E+03  0.00000000000E+00 0.  1.
         13   -1    0    0    0    0 -0.00000000000E+00 -0.00000000000E+00 -0.10000000000E+04  0.10000000000E+04  0.00000000000E+00 0.  1.
    9000005    2    1    2  501    0 -0.21868425906E+02  0.84239179994E+02 -0.86832844743E+03  0.10846781668E+04  0.64417231030E+03 0.  0.
         13    1    3    3    0    0 -0.11926652297E+03  0.96839525063E+02 -0.94666660003E+03  0.95905164028E+03  0.00000000000E+00 0.  1.
          3    1    3    3  501    0  0.97398097065E+02 -0.12600345070E+02  0.78338152594E+02  0.12562652650E+03  0.00000000000E+00 0.  1.
         -1    1    1    2    0  502  0.21868425906E+02 -0.84239179994E+02  0.57094089928E+02  0.10408747572E+03  0.00000000000E+00 0. -1.
<mgrwt>
<rscale>  1 0.65002495E+03</rscale>
<asrwt>0</asrwt>
<pdfrwt beam="1">  1       21 0.29040867E-01 0.65002495E+03</pdfrwt>
<pdfrwt beam="2">0</pdfrwt>
<totfact> 0.10828673E+03</totfact>
</mgrwt>
</event>
<event>
 6    1  0.1364923E-004  0.6493780E+03  0.7818608E-02  0.9807947E-01
         21   -1    0    0  501  502  0.00000000000E+00  0.00000000000E+00  0.26572089417E+03  0.26572089417E+03  0.00000000000E+00 0.  1.
         13   -1    0    0    0    0 -0.00000000000E+00 -0.00000000000E+00 -0.10000000000E+04  0.10000000000E+04  0.00000000000E+00 0.  1.
    9000005    2    1    2  501    0 -0.26041974936E+02 -0.11072712171E+01 -0.89340480585E+03  0.11044745022E+04  0.64885465894E+03 0.  0.
         13    1    3    3    0    0 -0.28758395155E+03  0.16989354794E+03 -0.40955653128E+03  0.52849304549E+03  0.00000000000E+00 0.  1.
          1    1    3    3  501    0  0.26154197662E+03 -0.17100081916E+03 -0.48384827458E+03  0.57598145673E+03  0.00000000000E+00 0.  1.
         -1    1    1    2    0  502  0.26041974936E+02  0.11072712171E+01  0.15912570002E+03  0.16124639194E+03  0.00000000000E+00 0. -1.
<mgrwt>
<rscale>  1 0.64937799E+03</rscale>
<asrwt>0</asrwt>
<pdfrwt beam="1">  1       21 0.40880136E-01 0.64937799E+03</pdfrwt>
<pdfrwt beam="2">0</pdfrwt>
<totfact> 0.53978995E+02</totfact>
</mgrwt>
</event>
<event>
 6    1  0.1364923E-004  0.6667247E+03  0.7818608E-02  0.9775893E-01
         21   -1    0    0  501  502  0.00000000000E+00  0.00000000000E+00  0.22601034692E+03  0.22601034692E+03  0.00000000000E+00 0.  1.
         13   -1    0    0    0    0 -0.00000000000E+00 -0.00000000000E+00 -0.10000000000E+04  0.10000000000E+04  0.00000000000E+00 0.  1.
    9000005    2    1    2  501    0  0.12543003844E+03  0.14109220003E+03 -0.79327088765E+03  0.10362434650E+04  0.63943890575E+03 0.  0.
         13    1    3    3    0    0  0.31306654690E+03 -0.50118270986E+02 -0.67023738977E+03  0.74144498280E+03  0.00000000000E+00 0.  1.
          1    1    3    3  501    0 -0.18763650845E+03  0.19121047102E+03 -0.12303349788E+03  0.29479848224E+03  0.00000000000E+00 0.  1.
         -3    1    1    2    0  502 -0.12543003844E+03 -0.14109220003E+03  0.19281234570E+02  0.18976688188E+03  0.00000000000E+00 0. -1.
<mgrwt>
<rscale>  1 0.66672469E+03</rscale>
<asrwt>0</asrwt>
<pdfrwt beam="1">  1       21 0.34770822E-01 0.66672469E+03</pdfrwt>
<pdfrwt beam="2">0</pdfrwt>
<totfact> 0.75236814E+02</totfact>
</mgrwt>
</event>
<event>
 6    1  0.1364923E-004  0.6595393E+03  0.7818608E-02  0.9789042E-01
         21   -1    0    0  501  502  0.00000000000E+00  0.00000000000E+00  0.20113000535E+03  0.20113000535E+03  0.00000000000E+00 0. -1.
         13   -1    0    0    0    0 -0.00000000000E+00 -0.00000000000E+00 -0.10000000000E+04  0.10000000000E+04  0.00000000000E+00 0.  1.
    9000005    2    1    2  501    0  0.81256398458E+02 -0.27321189596E+02 -0.86860164280E+03  0.10906241121E+04  0.65394425627E+03 0.  0.
         13    1    3    3    0    0 -0.11895894014E+03  0.16321300282E+02  0.63799747650E+02  0.13597066626E+03  0.00000000000E+00 0.  1.
          3    1    3    3  501    0  0.20021533860E+03 -0.43642489878E+02 -0.93240139045E+03  0.95465344583E+03  0.00000000000E+00 0.  1.
         -1    1    1    2    0  502 -0.81256398458E+02  0.27321189596E+02  0.69731648145E+02  0.11050589326E+03  0.00000000000E+00 0. -1.
<mgrwt>
<rscale>  1 0.65953934E+03</rscale>
<asrwt>0</asrwt>
<pdfrwt beam="1">  1       21 0.30943077E-01 0.65953934E+03</pdfrwt>
<pdfrwt beam="2">0</pdfrwt>
<totfact> 0.95313167E+02</totfact>
</mgrwt>
</event>
<event>
 6    1  0.1364923E-004  0.6533830E+03  0.7818608E-02  0.9800452E-01
         21   -1    0    0  501  502  0.00000000000E+00  0.00000000000E+00  0.16256806390E+03  0.16256806390E+03  0.00000000000E+00 0.  1.
         13   -1    0    0    0    0 -0.00000000000E+00 -0.00000000000E+00 -0.10000000000E+04  0.10000000000E+04  0.00000000000E+00 0.  1.
    9000005    2    1    2  501    0 -0.18852246163E+02 -0.71631600440E+02 -0.86456058419E+03  0.10836855125E+04  0.64917085033E+03 0.  0.
         13    1    3    3    0    0 -0.22211750430E+03 -0.12941378983E+02 -0.84201959504E+03  0.87091943567E+03  0.00000000000E+00 0.  1.
          1    1    3    3  501    0  0.20326525814E+03 -0.58690221457E+02 -0.22540989151E+02  0.21276607684E+03  0.00000000000E+00 0.  1.
         -1    1    1    2    0  502  0.18852246163E+02  0.71631600440E+02  0.27128648085E+02  0.78882551391E+02  0.00000000000E+00 0. -1.
<mgrwt>
<rscale>  1 0.65338296E+03</rscale>
<asrwt>0</asrwt>
<pdfrwt beam="1">  1       21 0.25010471E-01 0.65338296E+03</pdfrwt>
<pdfrwt beam="2">0</pdfrwt>
<totfact> 0.14547223E+03</totfact>
</mgrwt>
</event>
<event>
 6    1  0.1364923E-004  0.6108805E+03  0.7818608E-02  0.9883086E-01
         21   -1    0    0  501  502  0.00000000000E+00  0.00000000000E+00  0.13201804126E+03  0.13201804126E+03  0.00000000000E+00 0. -1.
         13   -1    0    0    0    0 -0.00000000000E+00 -0.00000000000E+00 -0.10000000000E+04  0.10000000000E+04  0.00000000000E+00 0.  1.
    9000005    2    1    2  501    0  0.25253974742E+02 -0.17254804613E+02 -0.90000025246E+03  0.10877386707E+04  0.61011430883E+03 0.  0.
         13    1    3    3    0    0 -0.27004104505E+03  0.99065748969E+00 -0.63703064909E+03  0.69190403619E+03  0.00000000000E+00 0.  1.
          1    1    3    3  501    0  0.29529501979E+03 -0.18245462102E+02 -0.26296960337E+03  0.39583463453E+03  0.00000000000E+00 0.  1.
         -3    1    1    2    0  502 -0.25253974742E+02  0.17254804613E+02  0.32018293716E+02  0.44279370535E+02  0.00000000000E+00 0. -1.
<mgrwt>
<rscale>  1 0.61088048E+03</rscale>
<asrwt>0</asrwt>
<pdfrwt beam="1">  1       21 0.20310467E-01 0.61088048E+03</pdfrwt>
<pdfrwt beam="2">0</pdfrwt>
<totfact> 0.21824061E+03</totfact>
</mgrwt>
</event>
<event>
 6    1  0.1364923E-004  0.6647838E+03  0.7818608E-02  0.9779427E-01
         21   -1    0    0  501  502  0.00000000000E+00  0.00000000000E+00  0.19392350244E+03  0.19392350244E+03  0.00000000000E+00 0.  1.
         13   -1    0    0    0    0 -0.00000000000E+00 -0.00000000000E+00 -0.10000000000E+04  0.10000000000E+04  0.00000000000E+00 0.  1.
    9000005    2    1    2  501    0 -0.66848048327E+02 -0.44000263918E+02 -0.86757894422E+03  0.10929916654E+04  0.65994914298E+03 0.  0.
         13    1    3    3    0    0 -0.21287221247E+02  0.29020939173E+03 -0.22708446785E+03  0.36910972945E+03  0.00000000000E+00 0.  1.
          1    1    3    3  501    0 -0.45560827080E+02 -0.33420965564E+03 -0.64049447637E+03  0.72388193592E+03  0.00000000000E+00 0.  1.
         -3    1    1    2    0  502  0.66848048327E+02  0.44000263918E+02  0.61502446665E+02  0.10093183708E+03  0.00000000000E+00 0. -1.
<mgrwt>
<rscale>  1 0.66478384E+03</rscale>
<asrwt>0</asrwt>
<pdfrwt beam="1">  1       21 0.29834384E-01 0.66478384E+03</pdfrwt>
<pdfrwt beam="2">0</pdfrwt>
<totfact> 0.10251604E+03</totfact>
</mgrwt>
</event>
<event>
 6    1  0.1364923E-004  0.6335996E+03  0.7818608E-02  0.9838050E-01
         21   -1    0    0  501  502  0.00000000000E+00  0.00000000000E+00  0.11687223615E+03  0.11687223615E+03  0.00000000000E+00 0.  1.
         13   -1    0    0    0    0 -0.00000000000E+00 -0.00000000000E+00 -0.10000000000E+04  0.10000000000E+04  0.00000000000E+00 0.  1.
    9000005    2    1    2  501    0  0.45526706437E+02 -0.11601587598E+02 -0.84617161039E+03  0.10570973659E+04  0.63185533863E+03 0.  0.
         13    1    3    3    0    0  0.22601572922E+03 -0.22177712251E+03 -0.26361017898E+03  0.41201763116E+03  0.00000000000E+00 0.  1.
          3    1    3    3  501    0 -0.18048902278E+03  0.21017553492E+03 -0.58256143141E+03  0.64507973475E+03  0.00000000000E+00 0.  1.
         -3    1    1    2    0  502 -0.45526706437E+02  0.11601587598E+02 -0.36956153463E+02  0.59774870243E+02  0.00000000000E+00 0. -1.
<mgrwt>
<rscale>  1 0.63359959E+03</rscale>
<asrwt>0</asrwt>
<pdfrwt beam="1">  1       21 0.17980344E-01 0.63359959E+03</pdfrwt>
<pdfrwt beam="2">0</pdfrwt>
<totfact> 0.27510643E+03</totfact>
</mgrwt>
</event>
<event>
 6    1  0.1364923E-004  0.6861596E+03  0.7818608E-02  0.9741198E-01
         21   -1    0    0  501  502  0.00000000000E+00  0.00000000000E+00  0.30053794849E+03  0.30053794849E+03  0.00000000000E+00 0. -1.
         13   -1    0    0    0    0 -0.00000000000E+00 -0.00000000000E+00 -0.10000000000E+04  0.10000000000E+04  0.00000000000E+00 0.  1.
    9000005    2    1    2  501    0  0.66505435994E+02 -0.19618458547E+03 -0.81336902293E+03  0.10641354047E+04  0.65414343028E+03 0.  0.
         13    1    3    3    0    0  0.23072923532E+02 -0.43309203733E+03 -0.61253923044E+03  0.75053672890E+03  0.00000000000E+00 0.  1.
          1    1    3    3  501    0  0.43432512462E+02  0.23690745186E+03 -0.20082979249E+03  0.31359867576E+03  0.00000000000E+00 0.  1.
         -1    1    1    2    0  502 -0.66505435994E+02  0.19618458547E+03  0.11390697141E+03  0.23640254383E+03  0.00000000000E+00 0. -1.
<mgrwt>
<rscale>  1 0.68615960E+03</rscale>
<asrwt>0</asrwt>
<pdfrwt beam="1">  1       21 0.46236606E-01 0.68615960E+03</pdfrwt>
<pdfrwt beam="2">0</pdfrwt>
<totfact> 0.41541092E+02</totfact>
</mgrwt>
</event>
<event>
 6    1  0.1364923E-004  0.6548713E+03  0.7818608E-02  0.9797681E-01
         21   -1    0    0  501  502  0.00000000000E+00  0.00000000000E+00  0.27435398485E+03  0.27435398485E+03  0.00000000000E+00 0. -1.
         13   -1    0    0    0    0 -0.00000000000E+00 -0.00000000000E+00 -0.10000000000E+04  0.10000000000E+04  0.00000000000E+00 0.  1.
    9000005    2    1    2  501    0 -0.29383472438E+02 -0.46978356330E+01 -0.89131803035E+03  0.11060308589E+04  0.65419490327E+03 0.  0.
         13    1    3    3    0    0 -0.13119804158E+03 -0.30719459538E+03 -0.49511044054E+03  0.59725689103E+03  0.00000000000E+00 0.  1.
          3    1    3    3  501    0  0.10181456914E+03  0.30249675975E+03 -0.39620758981E+03  0.50877396786E+03  0.00000000000E+00 0.  1.
         -1    1    1    2    0  502  0.29383472438E+02  0.46978356330E+01  0.16567201520E+03  0.16832312596E+03  0.00000000000E+00 0. -1.
<mgrwt>
<rscale>  1 0.65487131E+03</rscale>
<asrwt>0</asrwt>
<pdfrwt beam="1">  1       21 0.42208304E-01 0.65487131E+03</pdfrwt>
<pdfrwt beam="2">0</pdfrwt>
<totfact> 0.50470639E+02</totfact>
</mgrwt>
</event>
<event>
 6    1  0.1364923E-004  0.6821190E+03  0.7818608E-02  0.9748309E-01
         21   -1    0    0  501  502  0.00000000000E+00  0.00000000000E+00  0.16606648184E+03  0.16606648184E+03  0.00000000000E+00 0.  1.
         13   -1    0    0    0    0 -0.00000000000E+00 -0.00000000000E+00 -0.10000000000E+04  0.10000000000E+04  0.00000000000E+00 0.  1.
    9000005    2    1    2  501    0  0.56341733588E+02 -0.80590095139E+01 -0.86470671891E+03  0.11013646390E+04  0.67974040620E+03 0.  0.
         13    1    3    3    0    0  0.49441109085E+02  0.31161733350E+03 -0.63041937630E+03  0.70496693243E+03  0.00000000000E+00 0.  1.
          1    1    3    3  501    0  0.69006245027E+01 -0.31967634301E+03 -0.23428734260E+03  0.39639770660E+03  0.00000000000E+00 0.  1.
         -3    1    1    2    0  502 -0.56341733588E+02  0.80590095139E+01  0.30773200743E+02  0.64701842802E+02  0.00000000000E+00 0. -1.
<mgrwt>
<rscale>  1 0.68211902E+03</rscale>
<asrwt>0</asrwt>
<pdfrwt beam="1">  1       21 0.25548689E-01 0.68211902E+03</pdfrwt>
<pdfrwt beam="2">0</pdfrwt>
<totfact> 0.13931014E+03</totfact>
</mgrwt>
</event>
<event>
 6    1  0.1364923E-004  0.6797173E+03  0.7818608E-02  0.9752561E-01
         21   -1    0    0  501  502  0.00000000000E+00  0.00000000000E+00  0.21829589210E+03  0.21829589210E+03  0.00000000000E+00 0.  1.
         13   -1    0    0    0    0 -0.00000000000E+00 -0.00000000000E+00 -0.10000000000E+04  0.10000000000E+04  0.00000000000E+00 0.  1.
    9000005    2    1    2  501    0  0.19130109573E+03 -0.27130941675E+02 -0.76652040796E+03  0.10244847934E+04  0.65167734265E+03 0.  0.
         13    1    3    3    0    0 -0.18330619844E+03 -0.10639670315E+03 -0.53879280236E+03  0.57898109183E+03  0.00000000000E+00 0.  1.
          1    1    3    3  501    0  0.37460729417E+03  0.79265761473E+02 -0.22772760560E+03  0.44550370160E+03  0.00000000000E+00 0.  1.
         -1    1    1    2    0  502 -0.19130109573E+03  0.27130941675E+02 -0.15183699933E+02  0.19381109867E+03  0.00000000000E+00 0. -1.
<mgrwt>
<rscale>  1 0.67971726E+03</rscale>
<asrwt>0</asrwt>
<pdfrwt beam="1">  1       21 0.33583982E-01 0.67971726E+03</pdfrwt>
<pdfrwt beam="2">0</pdfrwt>
<totfact> 0.80673105E+02</totfact>
</mgrwt>
</event>
<event>
 6    1  0.1364923E-004  0.6748646E+03  0.7818608E-02  0.9761210E-01
         21   -1    0    0  501  502  0.00000000000E+00  0.00000000000E+00  0.27467167563E+03  0.27467167563E+03  0.00000000000E+00 0. -1.
         13   -1    0    0    0    0 -0.00000000000E+00 -0.00000000000E+00 -0.10000000000E+04  0.10000000000E+04  0.00000000000E+00 0.  1.
    9000005    2    1    2  501    0  0.23135590053E+02  0.32086244220E+01 -0.88519408900E+03  0.11131086430E+04  0.67446032147E+03 0.  0.
         13    1    3    3    0    0 -0.20034217584E+03 -0.24165993027E+03 -0.26900752145E+03  0.41340241402E+03  0.00000000000E+00 0.  1.
          3    1    3    3  501    0  0.22347776589E+03  0.24486855469E+03 -0.61618656754E+03  0.69970622903E+03  0.00000000000E+00 0.  1.
         -3    1    1    2    0  502 -0.23135590053E+02 -0.32086244220E+01  0.15986576462E+03  0.16156303258E+03  0.00000000000E+00 0. -1.
<mgrwt>
<rscale>  1 0.67486464E+03</rscale>
<asrwt>0</asrwt>
<pdfrwt beam="1">  1       21 0.42257180E-01 0.67486464E+03</pdfrwt>
<pdfrwt beam="2">0</pdfrwt>
<totfact> 0.50265466E+02</totfact>
</mgrwt>
</event>
<event>
 6    1  0.1364923E-004  0.6229585E+03  0.7818608E-02  0.9858887E-01
         21   -1    0    0  501  502  0.00000000000E+00  0.00000000000E+00  0.75872916819E+03  0.75872916819E+03  0.00000000000E+00 0. -1.
         13   -1    0    0    0    0 -0.00000000000E+00 -0.00000000000E+00 -0.10000000000E+04  0.10000000000E+04  0.00000000000E+00 0.  1.
    9000005    2    1    2  501    0  0.26800851438E+02  0.72149101198E+02 -0.90052420273E+03  0.10949982095E+04  0.61818561992E+03 0.  0.
         13    1    3    3    0    0  0.19019199569E+03 -0.19965907885E+03 -0.58947429854E+03  0.65078160057E+03  0.00000000000E+00 0.  1.
          3    1    3    3  501    0 -0.16339114426E+03  0.27180818005E+03 -0.31104990419E+03  0.44421660894E+03  0.00000000000E+00 0.  1.
         -1    1    1    2    0  502 -0.26800851438E+02 -0.72149101198E+02  0.65925337092E+03  0.66373095868E+03  0.00000000000E+00 0. -1.
<mgrwt>
<rscale>  1 0.62295846E+03</rscale>
<asrwt>0</asrwt>
<pdfrwt beam="1">  1       21 0.11672756E+00 0.62295846E+03</pdfrwt>
<pdfrwt beam="2">0</pdfrwt>
<totfact> 0.49509719E+01</totfact>
</mgrwt>
</event>
<event>
 6    1  0.1364923E-004  0.6609065E+03  0.7818608E-02  0.9786526E-01
         21   -1    0    0  501  502  0.00000000000E+00  0.00000000000E+00  0.19787243112E+03  0.19787243112E+03  0.00000000000E+00 0.  1.
         13   -1    0    0    0    0 -0.00000000000E+00 -0.00000000000E+00 -0.10000000000E+04  0.10000000000E+04  0.00000000000E+00 0.  1.
    9000005    2    1    2  501    0  0.24518092868E+02  0.49426073023E+02 -0.88116917662E+03  0.11014792295E+04  0.65859950011E+03 0.  0.
         13    1    3    3    0    0  0.87499608422E+02  0.24652237049E+03 -0.85354247698E+03  0.89272852572E+03  0.00000000000E+00 0.  1.
          1    1    3    3  501    0 -0.62981515554E+02 -0.19709629747E+03 -0.27626699633E+02  0.20875070374E+03  0.00000000000E+00 0.  1.
         -1    1    1    2    0  502 -0.24518092868E+02 -0.49426073023E+02  0.79041607741E+02  0.96393201661E+02  0.00000000000E+00 0. -1.
<mgrwt>
<rscale>  1 0.66090648E+03</rscale>
<asrwt>0</asrwt>
<pdfrwt beam="1">  1       21 0.30441912E-01 0.66090648E+03</pdfrwt>
<pdfrwt beam="2">0</pdfrwt>
<totfact> 0.98481328E+02</totfact>
</mgrwt>
</event>
<event>
 6    1  0.1364923E-004  0.6645091E+03  0.7818608E-02  0.9779928E-01
         21   -1    0    0  501  502  0.00000000000E+00  0.00000000000E+00  0.44351183573E+03  0.44351183573E+03  0.00000000000E+00 0. -1.
         13   -1    0    0    0    0 -0.00000000000E+00 -0.00000000000E+00 -0.10000000000E+04  0.10000000000E+04  0.00000000000E+00 0.  1.
    9000005    2    1    2  501    0  0.63213149325E+01  0.23530785640E+02 -0.88911209552E+03  0.11099967138E+04  0.66406229333E+03 0.  0.
         13    1    3    3    0    0  0.26317592871E+03 -0.45846111080E+02 -0.77635519011E+03  0.82103033839E+03  0.00000000000E+00 0.  1.
          1    1    3    3  501    0 -0.25685461378E+03  0.69376896721E+02 -0.11275690541E+03  0.28896637544E+03  0.00000000000E+00 0.  1.
         -1    1    1    2    0  502 -0.63213149325E+01 -0.23530785640E+02  0.33262393125E+03  0.33351512190E+03  0.00000000000E+00 0. -1.
<mgrwt>
<rscale>  1 0.66450913E+03</rscale>
<asrwt>0</asrwt>
<pdfrwt beam="1">  1       21 0.68232588E-01 0.66450913E+03</pdfrwt>
<pdfrwt beam="2">0</pdfrwt>
<totfact> 0.17769376E+02</totfact>
</mgrwt>
</event>
<event>
 6    1  0.1364923E-004  0.6433225E+03  0.7818608E-02  0.9819390E-01
         21   -1    0    0  501  502  0.00000000000E+00  0.00000000000E+00  0.16823372912E+03  0.16823372912E+03  0.00000000000E+00 0.  1.
         13   -1    0    0    0    0 -0.00000000000E+00 -0.00000000000E+00 -0.10000000000E+04  0.10000000000E+04  0.00000000000E+00 0.  1.
    9000005    2    1    2  501    0  0.12385708933E+02  0.33437120119E+02 -0.89107265459E+03  0.10990333394E+04  0.64233352597E+03 0.  0.
         13    1    3    3    0    0 -0.21503281691E+03  0.20143133306E+03 -0.21062887070E+03  0.36218533302E+03  0.00000000000E+00 0.  1.
          1    1    3    3  501    0  0.22741852584E+03 -0.16799421294E+03 -0.68044378390E+03  0.73684800639E+03  0.00000000000E+00 0.  1.
         -1    1    1    2    0  502 -0.12385708933E+02 -0.33437120119E+02  0.59306383709E+02  0.69200389712E+02  0.00000000000E+00 0. -1.
<mgrwt>
<rscale>  1 0.64332247E+03</rscale>
<asrwt>0</asrwt>
<pdfrwt beam="1">  1       21 0.25882111E-01 0.64332247E+03</pdfrwt>
<pdfrwt beam="2">0</pdfrwt>
<totfact> 0.13608077E+03</totfact>
</mgrwt>
</event>
<event>
 6    1  0.1364923E-004  0.6338787E+03  0.7818608E-02  0.9837509E-01
         21   -1    0    0  501  502  0.00000000000E+00  0.00000000000E+00  0.12089962589E+03  0.12089962589E+03  0.00000000000E+00 0.  1.
         13   -1    0    0    0    0 -0.00000000000E+00 -0.00000000000E+00 -0.10000000000E+04  0.10000000000E+04  0.00000000000E+00 0.  1.
    9000005    2    1    2  501    0  0.18605263913E+02  0.35659729802E+02 -0.87499180248E+03  0.10804687895E+04  0.63260127916E+03 0.  0.
         13    1    3    3    0    0  0.56339709339E+02 -0.29091577226E+03 -0.32579001773E+03  0.44039219459E+03  0.00000000000E+00 0.  1.
          3    1    3    3  501    0 -0.37734445426E+02  0.32657550207E+03 -0.54920178475E+03  0.64007659486E+03  0.00000000000E+00 0.  1.
         -1    1    1    2    0  502 -0.18605263913E+02 -0.35659729802E+02 -0.41085716251E+01  0.40430836445E+02  0.00000000000E+00 0. -1.
<mgrwt>
<rscale>  1 0.63387866E+03</rscale>
<asrwt>0</asrwt>
<pdfrwt beam="1">  1       21 0.18599942E-01 0.63387866E+03</pdfrwt>
<pdfrwt beam="2">0</pdfrwt>
<totfact> 0.25795911E+03</totfact>
</mgrwt>
</event>
<event>
 6    1  0.1364923E-004  0.6556729E+03  0.7818608E-02  0.9796192E-01
         21   -1    0    0  501  502  0.00000000000E+00  0.00000000000E+00  0.17746751740E+03  0.17746751740E+03  0.00000000000E+00 0.  1.
         13   -1    0    0    0    0 -0.00000000000E+00 -0.00000000000E+00 -0.10000000000E+04  0.10000000000E+04  0.00000000000E+00 0.  1.
    9000005    2    1    2  501    0 -0.53091546260E+02  0.52310044597E+02 -0.86977276152E+03  0.10892252543E+04  0.65142301526E+03 0.  0.
         13    1    3    3    0    0  0.28029904282E+03  0.13368682710E+03 -0.45519478974E+03  0.55103721993E+03  0.00000000000E+00 0.  1.
          3    1    3    3  501    0 -0.33339058908E+03 -0.81376782507E+02 -0.41457797178E+03  0.53818803434E+03  0.00000000000E+00 0.  1.
         -1    1    1    2    0  502  0.53091546260E+02 -0.52310044597E+02  0.47240278915E+02  0.88242263128E+02  0.00000000000E+00 0. -1.
<mgrwt>
<rscale>  1 0.65567294E+03</rscale>
<asrwt>0</asrwt>
<pdfrwt beam="1">  1       21 0.27302694E-01 0.65567294E+03</pdfrwt>
<pdfrwt beam="2">0</pdfrwt>
<totfact> 0.12237974E+03</totfact>
</mgrwt>
</event>
<event>
 6    1  0.1364923E-004  0.7074738E+03  0.7818608E-02  0.9704536E-01
         21   -1    0    0  501  502  0.00000000000E+00  0.00000000000E+00  0.14065537117E+03  0.14065537117E+03  0.00000000000E+00 0.  1.
         13   -1    0    0    0    0 -0.00000000000E+00 -0.00000000000E+00 -0.10000000000E+04  0.10000000000E+04  0.00000000000E+00 0.  1.
    9000005    2    1    2  501    0  0.18537295851E+02 -0.17117153231E+02 -0.86215089672E+03  0.11152682994E+04  0.70702374977E+03 0.  0.
         13    1    3    3    0    0  0.26671259420E+03  0.20473072281E+02 -0.81771926974E+03  0.86036013314E+03  0.00000000000E+00 0.  1.
          3    1    3    3  501    0 -0.24817529835E+03 -0.37590225512E+02 -0.44431626977E+02  0.25490816629E+03  0.00000000000E+00 0.  1.
         -3    1    1    2    0  502 -0.18537295851E+02  0.17117153231E+02  0.28062678902E+01  0.25387071743E+02  0.00000000000E+00 0. -1.
<mgrwt>
<rscale>  1 0.70747382E+03</rscale>
<asrwt>0</asrwt>
<pdfrwt beam="1">  1       21 0.21639287E-01 0.70747382E+03</pdfrwt>
<pdfrwt beam="2">0</pdfrwt>
<totfact> 0.19238529E+03</totfact>
</mgrwt>
</event>
<event>
 6    1  0.1364923E-004  0.6992722E+03  0.7818608E-02  0.9718478E-01
         21   -1    0    0  501  502  0.00000000000E+00  0.00000000000E+00  0.23701379014E+03  0.23701379014E+03  0.00000000000E+00 0. -1.
         13   -1    0    0    0    0 -0.00000000000E+00 -0.00000000000E+00 -0.10000000000E+04  0.10000000000E+04  0.00000000000E+00 0.  1.
    9000005    2    1    2  501    0 -0.16057817753E+02 -0.12206904203E+02 -0.87675894401E+03  0.11214668427E+04  0.69898123823E+03 0.  0.
         13    1    3    3    0    0 -0.20483656742E+03 -0.29393742862E+03 -0.49133228540E+03  0.60808276244E+03  0.00000000000E+00 0.  1.
          1    1    3    3  501    0  0.18877874967E+03  0.28173052442E+03 -0.38542665862E+03  0.51338408028E+03  0.00000000000E+00 0.  1.
         -1    1    1    2    0  502  0.16057817753E+02  0.12206904203E+02  0.11377273415E+03  0.11554694742E+03  0.00000000000E+00 0. -1.
<mgrwt>
<rscale>  1 0.69927222E+03</rscale>
<asrwt>0</asrwt>
<pdfrwt beam="1">  1       21 0.36463659E-01 0.69927222E+03</pdfrwt>
<pdfrwt beam="2">0</pdfrwt>
<totfact> 0.68109970E+02</totfact>
</mgrwt>
</event>
<event>
 6    1  0.1364923E-004  0.6617374E+03  0.7818608E-02  0.9785001E-01
         21   -1    0    0  501  502  0.00000000000E+00  0.00000000000E+00  0.29552616269E+03  0.29552616269E+03  0.00000000000E+00 0. -1.
         13   -1    0    0    0    0 -0.00000000000E+00 -0.00000000000E+00 -0.10000000000E+04  0.10000000000E+04  0.00000000000E+00 0.  1.
    9000005    2    1    2  501    0  0.32389342435E+02  0.14709181901E+02 -0.88863716636E+03  0.11079586780E+04  0.66078059086E+03 0.  0.
         13    1    3    3    0    0  0.22141022393E+03 -0.24623379708E+03 -0.36232901912E+03  0.49085220604E+03  0.00000000000E+00 0.  1.
          3    1    3    3  501    0 -0.18902088149E+03  0.26094297898E+03 -0.52630814724E+03  0.61710647199E+03  0.00000000000E+00 0.  1.
         -3    1    1    2    0  502 -0.32389342435E+02 -0.14709181901E+02  0.18416332905E+03  0.18756748466E+03  0.00000000000E+00 0. -1.
<mgrwt>
<rscale>  1 0.66173742E+03</rscale>
<asrwt>0</asrwt>
<pdfrwt beam="1">  1       21 0.45465562E-01 0.66173742E+03</pdfrwt>
<pdfrwt beam="2">0</pdfrwt>
<totfact> 0.43138884E+02</totfact>
</mgrwt>
</event>
<event>
 6    1  0.1364923E-004  0.6871966E+03  0.7818608E-02  0.9739382E-01
         21   -1    0    0  501  502  0.00000000000E+00  0.00000000000E+00  0.31184168230E+03  0.31184168230E+03  0.00000000000E+00 0. -1.
         13   -1    0    0    0    0 -0.00000000000E+00 -0.00000000000E+00 -0.10000000000E+04  0.10000000000E+04  0.00000000000E+00 0.  1.
    9000005    2    1    2  501    0 -0.21783346226E+03  0.12844510835E+03 -0.78297135445E+03  0.10417693307E+04  0.63897545606E+03 0.  0.
         13    1    3    3    0    0 -0.21179707146E+03 -0.12169148580E+03 -0.75075615387E+03  0.78949453435E+03  0.00000000000E+00 0.  1.
          3    1    3    3  501    0 -0.60363907984E+01  0.25013659415E+03 -0.32215200576E+02  0.25227479639E+03  0.00000000000E+00 0.  1.
         -1    1    1    2    0  502  0.21783346226E+03 -0.12844510835E+03  0.94813036751E+02  0.27007235156E+03  0.00000000000E+00 0. -1.
<mgrwt>
<rscale>  1 0.68719662E+03</rscale>
<asrwt>0</asrwt>
<pdfrwt beam="1">  1       21 0.47975642E-01 0.68719662E+03</pdfrwt>
<pdfrwt beam="2">0</pdfrwt>
<totfact> 0.38399565E+02</totfact>
</mgrwt>
</event>
<event>
 6    1  0.1364923E-004  0.6941598E+03  0.7818608E-02  0.9727272E-01
         21   -1    0    0  501  502  0.00000000000E+00  0.00000000000E+00  0.27640932374E+03  0.27640932374E+03  0.00000000000E+00 0.  1.
         13   -1    0    0    0    0 -0.00000000000E+00 -0.00000000000E+00 -0.10000000000E+04  0.10000000000E+04  0.00000000000E+00 0.  1.
    9000005    2    1    2  501    0  0.10893484904E+03  0.20150529738E+03 -0.77626312973E+03  0.10413655543E+04  0.65527596084E+03 0.  0.
         13    1    3    3    0    0 -0.24791431653E+03  0.12293001127E+03 -0.53845283622E+03  0.60539636012E+03  0.00000000000E+00 0.  1.
          3    1    3    3  501    0  0.35684916557E+03  0.78575286108E+02 -0.23781029351E+03  0.43596919416E+03  0.00000000000E+00 0.  1.
         -3    1    1    2    0  502 -0.10893484904E+03 -0.20150529738E+03  0.52672453469E+02  0.23504376946E+03  0.00000000000E+00 0. -1.
<mgrwt>
<rscale>  1 0.69415976E+03</rscale>
<asrwt>0</asrwt>
<pdfrwt beam="1">  1       21 0.42524510E-01 0.69415976E+03</pdfrwt>
<pdfrwt beam="2">0</pdfrwt>
<totfact> 0.49528504E+02</totfact>
</mgrwt>
</event>
<event>
 6    1  0.1364923E-004  0.6535561E+03  0.7818608E-02  0.9800129E-01
         21   -1    0    0  501  502  0.00000000000E+00  0.00000000000E+00  0.24374537940E+03  0.24374537940E+03  0.00000000000E+00 0. -1.
         13   -1    0    0    0    0 -0.00000000000E+00 -0.00000000000E+00 -0.10000000000E+04  0.10000000000E+04  0.00000000000E+00 0.  1.
    9000005    2    1    2  501    0  0.72362250230E+01  0.24717527756E+02 -0.89187461329E+03  0.11057015402E+04  0.65304842927E+03 0.  0.
         13    1    3    3    0    0 -0.31391892062E+02 -0.31252638202E+03 -0.42588393389E+03  0.52918363117E+03  0.00000000000E+00 0.  1.
          3    1    3    3  501    0  0.38628117085E+02  0.33724390978E+03 -0.46599067940E+03  0.57651790900E+03  0.00000000000E+00 0.  1.
         -1    1    1    2    0  502 -0.72362250230E+01 -0.24717527756E+02  0.13561999269E+03  0.13804383923E+03  0.00000000000E+00 0. -1.
<mgrwt>
<rscale>  1 0.65355610E+03</rscale>
<asrwt>0</asrwt>
<pdfrwt beam="1">  1       21 0.37499288E-01 0.65355610E+03</pdfrwt>
<pdfrwt beam="2">0</pdfrwt>
<totfact> 0.64516294E+02</totfact>
</mgrwt>
</event>
<event>
 6    1  0.1364923E-004  0.6565588E+03  0.7818608E-02  0.9794549E-01
         21   -1    0    0  501  502  0.00000000000E+00  0.00000000000E+00  0.20757760646E+03  0.20757760646E+03  0.00000000000E+00 0. -1.
         13   -1    0    0    0    0 -0.00000000000E+00 -0.00000000000E+00 -0.10000000000E+04  0.10000000000E+04  0.00000000000E+00 0.  1.
    9000005    2    1    2  501    0  0.66303381924E+02  0.57464399297E+02 -0.87035558417E+03  0.10902239621E+04  0.65066976955E+03 0.  0.
         13    1    3    3    0    0  0.33345349581E+02 -0.15754975411E+03  0.30132957482E+02  0.16383477191E+03  0.00000000000E+00 0.  1.
          3    1    3    3  501    0  0.32958032343E+02  0.21501415341E+03 -0.90048854166E+03  0.92638919020E+03  0.00000000000E+00 0.  1.
         -3    1    1    2    0  502 -0.66303381924E+02 -0.57464399297E+02  0.77933190634E+02  0.11735364436E+03  0.00000000000E+00 0. -1.
<mgrwt>
<rscale>  1 0.65655879E+03</rscale>
<asrwt>0</asrwt>
<pdfrwt beam="1">  1       21 0.31935015E-01 0.65655879E+03</pdfrwt>
<pdfrwt beam="2">0</pdfrwt>
<totfact> 0.89463777E+02</totfact>
</mgrwt>
</event>
<event>
 6    1  0.1364923E-004  0.6538802E+03  0.7818608E-02  0.9799525E-01
         21   -1    0    0  501  502  0.00000000000E+00  0.00000000000E+00  0.15632266266E+03  0.15632266266E+03  0.00000000000E+00 0.  1.
         13   -1    0    0    0    0 -0.00000000000E+00 -0.00000000000E+00 -0.10000000000E+04  0.10000000000E+04  0.00000000000E+00 0.  1.
    9000005    2    1    2  501    0  0.18548321518E+02 -0.77457460879E+01 -0.89083782776E+03  0.11050571902E+04  0.65357120603E+03 0.  0.
         13    1    3    3    0    0  0.30140106354E+02 -0.28050154789E+03 -0.15873044926E+03  0.32370495810E+03  0.00000000000E+00 0.  1.
          3    1    3    3  501    0 -0.11591784836E+02  0.27275580180E+03 -0.73210737850E+03  0.78135223206E+03  0.00000000000E+00 0.  1.
         -3    1    1    2    0  502 -0.18548321518E+02  0.77457460879E+01  0.47160490423E+02  0.51265472499E+02  0.00000000000E+00 0. -1.
<mgrwt>
<rscale>  1 0.65388023E+03</rscale>
<asrwt>0</asrwt>
<pdfrwt beam="1">  1       21 0.24049640E-01 0.65388023E+03</pdfrwt>
<pdfrwt beam="2">0</pdfrwt>
<totfact> 0.15705679E+03</totfact>
</mgrwt>
</event>
<event>
 6    1  0.1364923E-004  0.6629299E+03  0.7818608E-02  0.9782815E-01
         21   -1    0    0  501  502  0.00000000000E+00  0.00000000000E+00  0.49214630272E+03  0.49214630272E+03  0.00000000000E+00 0. -1.
         13   -1    0    0    0    0 -0.00000000000E+00 -0.00000000000E+00 -0.10000000000E+04  0.10000000000E+04  0.00000000000E+00 0.  1.
    9000005    2    1    2  501    0 -0.19888015279E+02  0.12561358193E+03 -0.87834243631E+03  0.11004369578E+04  0.65061644435E+03 0.  0.
         13    1    3    3    0    0 -0.28000626996E+03 -0.92337216479E+02 -0.25108553973E+03  0.38726427802E+03  0.00000000000E+00 0.  1.
          1    1    3    3  501    0  0.26011825469E+03  0.21795079841E+03 -0.62725689658E+03  0.71317267983E+03  0.00000000000E+00 0.  1.
         -1    1    1    2    0  502  0.19888015279E+02 -0.12561358193E+03  0.37048873902E+03  0.39170934487E+03  0.00000000000E+00 0. -1.
<mgrwt>
<rscale>  1 0.66292991E+03</rscale>
<asrwt>0</asrwt>
<pdfrwt beam="1">  1       21 0.75714814E-01 0.66292991E+03</pdfrwt>
<pdfrwt beam="2">0</pdfrwt>
<totfact> 0.14014659E+02</totfact>
</mgrwt>
</event>
<event>
 6    1  0.1364923E-004  0.6798638E+03  0.7818608E-02  0.9752301E-01
         21   -1    0    0  501  502  0.00000000000E+00  0.00000000000E+00  0.32169792370E+03  0.32169792370E+03  0.00000000000E+00 0. -1.
         13   -1    0    0    0    0 -0.00000000000E+00 -0.00000000000E+00 -0.10000000000E+04  0.10000000000E+04  0.00000000000E+00 0.  1.
    9000005    2    1    2  501    0 -0.15749856742E+03 -0.14838005519E+03 -0.81837519397E+03  0.10639326859E+04  0.64450939679E+03 0.  0.
         13    1    3    3    0    0  0.25202064497E+03 -0.43612585611E+02 -0.27596695463E+03  0.37626350230E+03  0.00000000000E+00 0.  1.
          1    1    3    3  501    0 -0.40951921239E+03 -0.10476746958E+03 -0.54240823933E+03  0.68766918362E+03  0.00000000000E+00 0.  1.
         -1    1    1    2    0  502  0.15749856742E+03  0.14838005519E+03  0.14007311767E+03  0.25776523779E+03  0.00000000000E+00 0. -1.
<mgrwt>
<rscale>  1 0.67986381E+03</rscale>
<asrwt>0</asrwt>
<pdfrwt beam="1">  1       21 0.49491987E-01 0.67986381E+03</pdfrwt>
<pdfrwt beam="2">0</pdfrwt>
<totfact> 0.35951747E+02</totfact>
</mgrwt>
</event>
<event>
 6    1  0.1364923E-004  0.7035132E+03  0.7818608E-02  0.9711243E-01
         21   -1    0    0  501  502  0.00000000000E+00  0.00000000000E+00  0.25835210722E+03  0.25835210722E+03  0.00000000000E+00 0. -1.
         13   -1    0    0    0    0 -0.00000000000E+00 -0.00000000000E+00 -0.10000000000E+04  0.10000000000E+04  0.00000000000E+00 0.  1.
    9000005    2    1    2  501    0  0.14034492476E+03  0.15769489963E+03 -0.77269045808E+03  0.10449791470E+04  0.67109350649E+03 0.  0.
         13    1    3    3    0    0  0.39026451311E+03  0.12655387631E+03 -0.29618839464E+03  0.50601367464E+03  0.00000000000E+00 0.  1.
          3    1    3    3  501    0 -0.24991958835E+03  0.31141023329E+02 -0.47650206344E+03  0.53896547240E+03  0.00000000000E+00 0.  1.
         -1    1    1    2    0  502 -0.14034492476E+03 -0.15769489963E+03  0.31042565303E+02  0.21337296018E+03  0.00000000000E+00 0. -1.
<mgrwt>
<rscale>  1 0.70351324E+03</rscale>
<asrwt>0</asrwt>
<pdfrwt beam="1">  1       21 0.39746477E-01 0.70351324E+03</pdfrwt>
<pdfrwt beam="2">0</pdfrwt>
<totfact> 0.56989358E+02</totfact>
</mgrwt>
</event>
<event>
 6    1  0.1364923E-004  0.6463224E+03  0.7818608E-02  0.9813705E-01
         21   -1    0    0  501  502  0.00000000000E+00  0.00000000000E+00  0.35543355980E+03  0.35543355980E+03  0.00000000000E+00 0. -1.
         13   -1    0    0    0    0 -0.00000000000E+00 -0.00000000000E+00 -0.10000000000E+04  0.10000000000E+04  0.00000000000E+00 0.  1.
    9000005    2    1    2  501    0  0.10618944064E+03 -0.66872397753E+02 -0.87810054869E+03  0.10903179346E+04  0.63402248387E+03 0.  0.
         13    1    3    3    0    0 -0.12574506192E+03  0.23436906544E+03 -0.37368095922E+03  0.45866996710E+03  0.00000000000E+00 0.  1.
          3    1    3    3  501    0  0.23193450257E+03 -0.30124146319E+03 -0.50441958947E+03  0.63164796752E+03  0.00000000000E+00 0.  1.
         -3    1    1    2    0  502 -0.10618944064E+03  0.66872397753E+02  0.23353410849E+03  0.26511562518E+03  0.00000000000E+00 0. -1.
<mgrwt>
<rscale>  1 0.64632238E+03</rscale>
<asrwt>0</asrwt>
<pdfrwt beam="1">  1       21 0.54682085E-01 0.64632238E+03</pdfrwt>
<pdfrwt beam="2">0</pdfrwt>
<totfact> 0.29085003E+02</totfact>
</mgrwt>
</event>
<event>
 6    1  0.1364923E-004  0.6434395E+03  0.7818608E-02  0.9819168E-01
         21   -1    0    0  501  502  0.00000000000E+00  0.00000000000E+00  0.13308436185E+03  0.13308436185E+03  0.00000000000E+00 0.  1.
         13   -1    0    0    0    0 -0.00000000000E+00 -0.00000000000E+00 -0.10000000000E+04  0.10000000000E+04  0.00000000000E+00 0.  1.
    9000005    2    1    2  501    0  0.18128919103E+02 -0.10518929021E+02 -0.89234303283E+03  0.11001320027E+04  0.64309799367E+03 0.  0.
         13    1    3    3    0    0 -0.14627022064E+03  0.27365534983E+03 -0.50111978555E+03  0.58940925290E+03  0.00000000000E+00 0.  1.
          1    1    3    3  501    0  0.16439913975E+03 -0.28417427885E+03 -0.39122324728E+03  0.51072274976E+03  0.00000000000E+00 0.  1.
         -3    1    1    2    0  502 -0.18128919103E+02  0.10518929021E+02  0.25427394677E+02  0.32952359182E+02  0.00000000000E+00 0. -1.
<mgrwt>
<rscale>  1 0.64343946E+03</rscale>
<asrwt>0</asrwt>
<pdfrwt beam="1">  1       21 0.20474517E-01 0.64343946E+03</pdfrwt>
<pdfrwt beam="2">0</pdfrwt>
<totfact> 0.21460408E+03</totfact>
</mgrwt>
</event>
<event>
 6    1  0.1364923E-004  0.6225008E+03  0.7818608E-02  0.9859793E-01
         21   -1    0    0  501  502  0.00000000000E+00  0.00000000000E+00  0.21644684242E+03  0.21644684242E+03  0.00000000000E+00 0. -1.
         13   -1    0    0    0    0 -0.00000000000E+00 -0.00000000000E+00 -0.10000000000E+04  0.10000000000E+04  0.00000000000E+00 0.  1.
    9000005    2    1    2  501    0  0.28268336552E+02  0.42718730959E+02 -0.89707529274E+03  0.10919026173E+04  0.62038960025E+03 0.  0.
         13    1    3    3    0    0 -0.22455490222E+03 -0.15413332790E+03 -0.58172889025E+03  0.64233207037E+03  0.00000000000E+00 0.  1.
          3    1    3    3  501    0  0.25282323877E+03  0.19685205886E+03 -0.31534640249E+03  0.44957054697E+03  0.00000000000E+00 0.  1.
         -1    1    1    2    0  502 -0.28268336552E+02 -0.42718730959E+02  0.11352213516E+03  0.12454422507E+03  0.00000000000E+00 0. -1.
<mgrwt>
<rscale>  1 0.62250080E+03</rscale>
<asrwt>0</asrwt>
<pdfrwt beam="1">  1       21 0.33299513E-01 0.62250080E+03</pdfrwt>
<pdfrwt beam="2">0</pdfrwt>
<totfact> 0.82403892E+02</totfact>
</mgrwt>
</event>
<event>
 6    1  0.1364923E-004  0.6759990E+03  0.7818608E-02  0.9759181E-01
         21   -1    0    0  501  502  0.00000000000E+00  0.00000000000E+00  0.39006953828E+03  0.39006953828E+03  0.00000000000E+00 0. -1.
         13   -1    0    0    0    0 -0.00000000000E+00 -0.00000000000E+00 -0.10000000000E+04  0.10000000000E+04  0.00000000000E+00 0.  1.
    9000005    2    1    2  501    0 -0.39249218839E+02 -0.18782939140E+03 -0.84788743272E+03  0.10843835859E+04  0.64819308952E+03 0.  0.
         13    1    3    3    0    0 -0.42098007899E+02 -0.38778059229E+02 -0.91790039518E+03  0.91968316045E+03  0.00000000000E+00 0.  1.
          1    1    3    3  501    0  0.28487890600E+01 -0.14905133217E+03  0.70012962467E+02  0.16470042542E+03  0.00000000000E+00 0.  1.
         -1    1    1    2    0  502  0.39249218839E+02  0.18782939140E+03  0.23795697099E+03  0.30568595240E+03  0.00000000000E+00 0. -1.
<mgrwt>
<rscale>  1 0.67599901E+03</rscale>
<asrwt>0</asrwt>
<pdfrwt beam="1">  1       21 0.60010696E-01 0.67599901E+03</pdfrwt>
<pdfrwt beam="2">0</pdfrwt>
<totfact> 0.23648677E+02</totfact>
</mgrwt>
</event>
<event>
 6    1  0.1364923E-004  0.6792486E+03  0.7818608E-02  0.9753393E-01
         21   -1    0    0  501  502  0.00000000000E+00  0.00000000000E+00  0.56448472034E+03  0.56448472034E+03  0.00000000000E+00 0. -1.
         13   -1    0    0    0    0 -0.00000000000E+00 -0.00000000000E+00 -0.10000000000E+04  0.10000000000E+04  0.00000000000E+00 0.  1.
    9000005    2    1    2  501    0  0.20111928591E+03 -0.21647278480E+02 -0.85903691682E+03  0.10951360770E+04  0.64842966537E+03 0.  0.
         13    1    3    3    0    0  0.31679225352E+03 -0.25828419243E+03 -0.59767047154E+03  0.72407047205E+03  0.00000000000E+00 0.  1.
          1    1    3    3  501    0 -0.11567296761E+03  0.23663691395E+03 -0.26136644528E+03  0.37106560498E+03  0.00000000000E+00 0.  1.
         -3    1    1    2    0  502 -0.20111928591E+03  0.21647278480E+02  0.42352163717E+03  0.46934864331E+03  0.00000000000E+00 0. -1.
<mgrwt>
<rscale>  1 0.67924856E+03</rscale>
<asrwt>0</asrwt>
<pdfrwt beam="1">  1       21 0.86843801E-01 0.67924856E+03</pdfrwt>
<pdfrwt beam="2">0</pdfrwt>
<totfact> 0.10147747E+02</totfact>
</mgrwt>
</event>
<event>
 6    1  0.1364923E-004  0.6505486E+03  0.7818608E-02  0.9805750E-01
         21   -1    0    0  501  502  0.00000000000E+00  0.00000000000E+00  0.41570798955E+03  0.41570798955E+03  0.00000000000E+00 0. -1.
         13   -1    0    0    0    0 -0.00000000000E+00 -0.00000000000E+00 -0.10000000000E+04  0.10000000000E+04  0.00000000000E+00 0.  1.
    9000005    2    1    2  501    0 -0.14427112119E+02  0.58026093768E+02 -0.89100333998E+03  0.11032227758E+04  0.64779500783E+03 0.  0.
         13    1    3    3    0    0  0.31362851480E+03 -0.98835637718E+00 -0.37419054449E+03  0.48824418658E+03  0.00000000000E+00 0.  1.
          3    1    3    3  501    0 -0.32805562692E+03  0.59014450145E+02 -0.51681279548E+03  0.61497858926E+03  0.00000000000E+00 0.  1.
         -3    1    1    2    0  502  0.14427112119E+02 -0.58026093768E+02  0.30671132953E+03  0.31248521370E+03  0.00000000000E+00 0. -1.
<mgrwt>
<rscale>  1 0.65054865E+03</rscale>
<asrwt>0</asrwt>
<pdfrwt beam="1">  1       21 0.63955073E-01 0.65054865E+03</pdfrwt>
<pdfrwt beam="2">0</pdfrwt>
<totfact> 0.20585278E+02</totfact>
</mgrwt>
</event>
<event>
 6    1  0.1364923E-004  0.7076614E+03  0.7818608E-02  0.9704219E-01
         21   -1    0    0  501  502  0.00000000000E+00  0.00000000000E+00  0.34121556915E+03  0.34121556915E+03  0.00000000000E+00 0. -1.
         13   -1    0    0    0    0 -0.00000000000E+00 -0.00000000000E+00 -0.10000000000E+04  0.10000000000E+04  0.00000000000E+00 0.  1.
    9000005    2    1    2  501    0  0.16392930936E+02  0.12589889732E+02 -0.87424731422E+03  0.11247635245E+04  0.70735944625E+03 0.  0.
         13    1    3    3    0    0  0.32097024138E+03 -0.10817088704E+03 -0.25424809731E+03  0.42351497216E+03  0.00000000000E+00 0.  1.
          1    1    3    3  501    0 -0.30457731045E+03  0.12076077677E+03 -0.61999921691E+03  0.70124855238E+03  0.00000000000E+00 0.  1.
         -1    1    1    2    0  502 -0.16392930936E+02 -0.12589889732E+02  0.21546288337E+03  0.21645204462E+03  0.00000000000E+00 0. -1.
<mgrwt>
<rscale>  1 0.70766137E+03</rscale>
<asrwt>0</asrwt>
<pdfrwt beam="1">  1       21 0.52494701E-01 0.70766137E+03</pdfrwt>
<pdfrwt beam="2">0</pdfrwt>
<totfact> 0.31589514E+02</totfact>
</mgrwt>
</event>
<event>
 6    1  0.1364923E-004  0.7196108E+03  0.7818608E-02  0.9684271E-01
         21   -1    0    0  501  502  0.00000000000E+00  0.00000000000E+00  0.54892835601E+03  0.54892835601E+03  0.00000000000E+00 0. -1.
         13   -1    0    0    0    0 -0.00000000000E+00 -0.00000000000E+00 -0.10000000000E+04  0.10000000000E+04  0.00000000000E+00 0.  1.
    9000005    2    1    2  501    0 -0.13722827262E+03 -0.28851096082E+03 -0.79986585282E+03  0.10759298640E+04  0.64480192030E+03 0.  0.
         13    1    3    3    0    0 -0.33856119458E+03 -0.36412058586E+03 -0.48458622441E+03  0.69428473440E+03  0.00000000000E+00 0.  1.
          1    1    3    3  501    0  0.20133292196E+03  0.75609625040E+02 -0.31527962841E+03  0.38164512961E+03  0.00000000000E+00 0.  1.
         -1    1    1    2    0  502  0.13722827262E+03  0.28851096082E+03  0.34879420883E+03  0.47299849200E+03  0.00000000000E+00 0. -1.
<mgrwt>
<rscale>  1 0.71961079E+03</rscale>
<asrwt>0</asrwt>
<pdfrwt beam="1">  1       21 0.84450514E-01 0.71961079E+03</pdfrwt>
<pdfrwt beam="2">0</pdfrwt>
<totfact> 0.10786730E+02</totfact>
</mgrwt>
</event>
<event>
 6    1  0.1364923E-004  0.6741569E+03  0.7818608E-02  0.9762477E-01
         21   -1    0    0  501  502  0.00000000000E+00  0.00000000000E+00  0.20495930390E+03  0.20495930390E+03  0.00000000000E+00 0. -1.
         13   -1    0    0    0    0 -0.00000000000E+00 -0.00000000000E+00 -0.10000000000E+04  0.10000000000E+04  0.00000000000E+00 0.  1.
    9000005    2    1    2  501    0  0.12838998154E+03  0.11834476622E+03 -0.77809921551E+03  0.10295270240E+04  0.65115131345E+03 0.  0.
         13    1    3    3    0    0  0.16773289373E+03 -0.72439400751E+02 -0.81156293070E+03  0.83187509934E+03  0.00000000000E+00 0.  1.
          3    1    3    3  501    0 -0.39342912184E+02  0.19078416697E+03  0.33463715185E+02  0.19765192471E+03  0.00000000000E+00 0.  1.
         -1    1    1    2    0  502 -0.12838998154E+03 -0.11834476622E+03 -0.16941480584E+02  0.17543227986E+03  0.00000000000E+00 0. -1.
<mgrwt>
<rscale>  1 0.67415688E+03</rscale>
<asrwt>0</asrwt>
<pdfrwt beam="1">  1       21 0.31532200E-01 0.67415688E+03</pdfrwt>
<pdfrwt beam="2">0</pdfrwt>
<totfact> 0.91677969E+02</totfact>
</mgrwt>
</event>
<event>
 6    1  0.1364923E-004  0.6793368E+03  0.7818608E-02  0.9753236E-01
         21   -1    0    0  501  502  0.00000000000E+00  0.00000000000E+00  0.28141291324E+03  0.28141291324E+03  0.00000000000E+00 0. -1.
         13   -1    0    0    0    0 -0.00000000000E+00 -0.00000000000E+00 -0.10000000000E+04  0.10000000000E+04  0.00000000000E+00 0.  1.
    9000005    2    1    2  501    0 -0.32418029568E+02 -0.19209430340E+02 -0.88223664893E+03  0.11134810519E+04  0.67829095331E+03 0.  0.
         13    1    3    3    0    0  0.10116002922E+03  0.28546897044E+03 -0.22652446974E+03  0.37820526171E+03  0.00000000000E+00 0.  1.
          1    1    3    3  501    0 -0.13357805878E+03 -0.30467840078E+03 -0.65571217919E+03  0.73527579018E+03  0.00000000000E+00 0.  1.
         -1    1    1    2    0  502  0.32418029568E+02  0.19209430340E+02  0.16364956217E+03  0.16793186135E+03  0.00000000000E+00 0. -1.
<mgrwt>
<rscale>  1 0.67933684E+03</rscale>
<asrwt>0</asrwt>
<pdfrwt beam="1">  1       21 0.43294293E-01 0.67933684E+03</pdfrwt>
<pdfrwt beam="2">0</pdfrwt>
<totfact> 0.47755250E+02</totfact>
</mgrwt>
</event>
<event>
 6    1  0.1364923E-004  0.6632533E+03  0.7818608E-02  0.9782223E-01
         21   -1    0    0  501  502  0.00000000000E+00  0.00000000000E+00  0.17325722862E+03  0.17325722862E+03  0.00000000000E+00 0.  1.
         13   -1    0    0    0    0 -0.00000000000E+00 -0.00000000000E+00 -0.10000000000E+04  0.10000000000E+04  0.00000000000E+00 0.  1.
    9000005    2    1    2  501    0 -0.15623878210E+03 -0.43914693786E+02 -0.72041030692E+03  0.97923235816E+03  0.64309092948E+03 0.  0.
         13    1    3    3    0    0  0.16217282213E+03 -0.17854784233E+02  0.27952314824E+02  0.16552990503E+03  0.00000000000E+00 0.  1.
          3    1    3    3  501    0 -0.31841160423E+03 -0.26059909553E+02 -0.74836262175E+03  0.81370245312E+03  0.00000000000E+00 0.  1.
         -1    1    1    2    0  502  0.15623878210E+03  0.43914693786E+02 -0.10633246446E+03  0.19402487047E+03  0.00000000000E+00 0. -1.
<mgrwt>
<rscale>  1 0.66325335E+03</rscale>
<asrwt>0</asrwt>
<pdfrwt beam="1">  1       21 0.26654957E-01 0.66325335E+03</pdfrwt>
<pdfrwt beam="2">0</pdfrwt>
<totfact> 0.12827486E+03</totfact>
</mgrwt>
</event>
<event>
 6    1  0.1364923E-004  0.6492126E+03  0.7818608E-02  0.9808258E-01
         21   -1    0    0  501  502  0.00000000000E+00  0.00000000000E+00  0.17306429649E+03  0.17306429649E+03  0.00000000000E+00 0.  1.
         13   -1    0    0    0    0 -0.00000000000E+00 -0.00000000000E+00 -0.10000000000E+04  0.10000000000E+04  0.00000000000E+00 0.  1.
    9000005    2    1    2  501    0 -0.70649636483E+02  0.57295533317E+02 -0.85889479821E+03  0.10766509519E+04  0.64280856300E+03 0.  0.
         13    1    3    3    0    0  0.15225353679E+03  0.21640960915E+03 -0.12367140423E+03  0.29207683000E+03  0.00000000000E+00 0.  1.
          1    1    3    3  501    0 -0.22290317327E+03 -0.15911407583E+03 -0.73522339397E+03  0.78457412195E+03  0.00000000000E+00 0.  1.
         -3    1    1    2    0  502  0.70649636483E+02 -0.57295533317E+02  0.31959094698E+02  0.96413344549E+02  0.00000000000E+00 0. -1.
<mgrwt>
<rscale>  1 0.64921260E+03</rscale>
<asrwt>0</asrwt>
<pdfrwt beam="1">  1       21 0.26625276E-01 0.64921260E+03</pdfrwt>
<pdfrwt beam="2">0</pdfrwt>
<totfact> 0.12865715E+03</totfact>
</mgrwt>
</event>
<event>
 6    1  0.1364923E-004  0.6621377E+03  0.7818608E-02  0.9784267E-01
         21   -1    0    0  501  502  0.00000000000E+00  0.00000000000E+00  0.20837864121E+03  0.20837864121E+03  0.00000000000E+00 0.  1.
         13   -1    0    0    0    0 -0.00000000000E+00 -0.00000000000E+00 -0.10000000000E+04  0.10000000000E+04  0.00000000000E+00 0.  1.
    9000005    2    1    2  501    0  0.58945877479E+02 -0.94114194861E+02 -0.85430218446E+03  0.10808600776E+04  0.65275890414E+03 0.  0.
         13    1    3    3    0    0 -0.26673350763E+03  0.87717526047E+02 -0.28369111821E+03  0.39915132346E+03  0.00000000000E+00 0.  1.
          1    1    3    3  501    0  0.32567938511E+03 -0.18183172091E+03 -0.57061106624E+03  0.68170875419E+03  0.00000000000E+00 0.  1.
         -1    1    1    2    0  502 -0.58945877479E+02  0.94114194861E+02  0.62680825662E+02  0.12751856356E+03  0.00000000000E+00 0. -1.
<mgrwt>
<rscale>  1 0.66213766E+03</rscale>
<asrwt>0</asrwt>
<pdfrwt beam="1">  1       21 0.32058252E-01 0.66213766E+03</pdfrwt>
<pdfrwt beam="2">0</pdfrwt>
<totfact> 0.88738589E+02</totfact>
</mgrwt>
</event>
<event>
 6    1  0.1364923E-004  0.6606037E+03  0.7818608E-02  0.9787083E-01
         21   -1    0    0  501  502  0.00000000000E+00  0.00000000000E+00  0.12109243495E+03  0.12109243495E+03  0.00000000000E+00 0.  1.
         13   -1    0    0    0    0 -0.00000000000E+00 -0.00000000000E+00 -0.10000000000E+04  0.10000000000E+04  0.00000000000E+00 0.  1.
    9000005    2    1    2  501    0 -0.19110065045E+02  0.25487783572E+02 -0.85855971959E+03  0.10832922165E+04  0.65983514047E+03 0.  0.
         13    1    3    3    0    0 -0.42496778452E+02  0.15973655790E+03 -0.91933999657E+03  0.93408124561E+03  0.00000000000E+00 0.  1.
          3    1    3    3  501    0  0.23386713407E+02 -0.13424877433E+03  0.60780276984E+02  0.14921097092E+03  0.00000000000E+00 0.  1.
         -3    1    1    2    0  502  0.19110065045E+02 -0.25487783572E+02 -0.20347845462E+02  0.37800218417E+02  0.00000000000E+00 0. -1.
<mgrwt>
<rscale>  1 0.66060369E+03</rscale>
<asrwt>0</asrwt>
<pdfrwt beam="1">  1       21 0.18629605E-01 0.66060369E+03</pdfrwt>
<pdfrwt beam="2">0</pdfrwt>
<totfact> 0.25693557E+03</totfact>
</mgrwt>
</event>
<event>
 6    1  0.1364923E-004  0.6494545E+03  0.7818608E-02  0.9807803E-01
         21   -1    0    0  501  502  0.00000000000E+00  0.00000000000E+00  0.20297242359E+03  0.20297242359E+03  0.00000000000E+00 0. -1.
         13   -1    0    0    0    0 -0.00000000000E+00 -0.00000000000E+00 -0.10000000000E+04  0.10000000000E+04  0.00000000000E+00 0.  1.
    9000005    2    1    2  501    0 -0.50882752299E+02  0.19702676324E+02 -0.88603775236E+03  0.10985690646E+04  0.64715828146E+03 0.  0.
         13    1    3    3    0    0  0.15332898477E+03  0.23134782581E+03 -0.69368843799E+03  0.74715141911E+03  0.00000000000E+00 0.  1.
          1    1    3    3  501    0 -0.20421173707E+03 -0.21164514948E+03 -0.19234931437E+03  0.35141764554E+03  0.00000000000E+00 0.  1.
         -3    1    1    2    0  502  0.50882752299E+02 -0.19702676324E+02  0.89010175954E+02  0.10440335895E+03  0.00000000000E+00 0. -1.
<mgrwt>
<rscale>  1 0.64945446E+03</rscale>
<asrwt>0</asrwt>
<pdfrwt beam="1">  1       21 0.31226526E-01 0.64945446E+03</pdfrwt>
<pdfrwt beam="2">0</pdfrwt>
<totfact> 0.93642817E+02</totfact>
</mgrwt>
</event>
<event>
 6    1  0.1364923E-004  0.6418309E+03  0.7818608E-02  0.9822230E-01
         21   -1    0    0  501  502  0.00000000000E+00  0.00000000000E+00  0.17268602933E+03  0.17268602933E+03  0.00000000000E+00 0. -1.
         13   -1    0    0    0    0 -0.00000000000E+00 -0.00000000000E+00 -0.10000000000E+04  0.10000000000E+04  0.00000000000E+00 0.  1.
    9000005    2    1    2  501    0 -0.25499387413E+02 -0.11366589257E+01 -0.89442618602E+03  0.11008837996E+04  0.64132318462E+03 0.  0.
         13    1    3    3    0    0  0.20370973341E+03  0.11279676573E+02 -0.84074444832E+03  0.86514514040E+03  0.00000000000E+00 0.  1.
          3    1    3    3  501    0 -0.22920912082E+03 -0.12416335499E+02 -0.53681737700E+02  0.23573865915E+03  0.00000000000E+00 0.  1.
         -3    1    1    2    0  502  0.25499387413E+02  0.11366589257E+01  0.67112215344E+02  0.71802229772E+02  0.00000000000E+00 0. -1.
<mgrwt>
<rscale>  1 0.64183093E+03</rscale>
<asrwt>0</asrwt>
<pdfrwt beam="1">  1       21 0.26567081E-01 0.64183093E+03</pdfrwt>
<pdfrwt beam="2">0</pdfrwt>
<totfact> 0.12926725E+03</totfact>
</mgrwt>
</event>
<event>
 6    1  0.1364923E-004  0.7640663E+03  0.7818608E-02  0.9613537E-01
         21   -1    0    0  501  502  0.00000000000E+00  0.00000000000E+00  0.89165525748E+03  0.89165525748E+03  0.00000000000E+00 0. -1.
         13   -1    0    0    0    0 -0.00000000000E+00 -0.00000000000E+00 -0.10000000000E+04  0.10000000000E+04  0.00000000000E+00 0.  1.
    9000005    2    1    2  501    0  0.19562221526E+03 -0.34849802557E+03 -0.79154151099E+03  0.11001524152E+04  0.65121305889E+03 0.  0.
         13    1    3    3    0    0  0.28972921559E+03  0.84495681463E+02 -0.20409611454E+03  0.36433194003E+03  0.00000000000E+00 0.  1.
          1    1    3    3  501    0 -0.94107000332E+02 -0.43299370703E+03 -0.58744539645E+03  0.73582047515E+03  0.00000000000E+00 0.  1.
         -3    1    1    2    0  502 -0.19562221526E+03  0.34849802557E+03  0.68319676847E+03  0.79150284231E+03  0.00000000000E+00 0. -1.
<mgrwt>
<rscale>  1 0.76406634E+03</rscale>
<asrwt>0</asrwt>
<pdfrwt beam="1">  1       21 0.13717773E+00 0.76406634E+03</pdfrwt>
<pdfrwt beam="2">0</pdfrwt>
<totfact> 0.31748469E+01</totfact>
</mgrwt>
</event>
<event>
 6    1  0.1364923E-004  0.7364399E+03  0.7818608E-02  0.9656867E-01
         21   -1    0    0  501  502  0.00000000000E+00  0.00000000000E+00  0.26412855012E+03  0.26412855012E+03  0.00000000000E+00 0. -1.
         13   -1    0    0    0    0 -0.00000000000E+00 -0.00000000000E+00 -0.10000000000E+04  0.10000000000E+04  0.00000000000E+00 0.  1.
    9000005    2    1    2  501    0  0.15494448271E+03 -0.24556359787E+03 -0.55340345269E+03  0.92119438249E+03  0.67678241376E+03 0.  0.
         13    1    3    3    0    0  0.32289503493E+03  0.88458797980E+02 -0.38770559211E+03  0.51225168489E+03  0.00000000000E+00 0.  1.
          3    1    3    3  501    0 -0.16795055222E+03 -0.33402239585E+03 -0.16569786058E+03  0.40894269760E+03  0.00000000000E+00 0.  1.
         -1    1    1    2    0  502 -0.15494448271E+03  0.24556359787E+03 -0.18246799720E+03  0.34293416762E+03  0.00000000000E+00 0. -1.
<mgrwt>
<rscale>  1 0.73643989E+03</rscale>
<asrwt>0</asrwt>
<pdfrwt beam="1">  1       21 0.40635160E-01 0.73643989E+03</pdfrwt>
<pdfrwt beam="2">0</pdfrwt>
<totfact> 0.54293872E+02</totfact>
</mgrwt>
</event>
<event>
 6    1  0.1364923E-004  0.6281993E+03  0.7818608E-02  0.9848569E-01
         21   -1    0    0  501  502  0.00000000000E+00  0.00000000000E+00  0.14692804198E+03  0.14692804198E+03  0.00000000000E+00 0. -1.
         13   -1    0    0    0    0 -0.00000000000E+00 -0.00000000000E+00 -0.10000000000E+04  0.10000000000E+04  0.00000000000E+00 0.  1.
    9000005    2    1    2  501    0 -0.13111708773E+03 -0.42171135190E+01 -0.76031775168E+03  0.98626436366E+03  0.61434911635E+03 0.  0.
         13    1    3    3    0    0  0.25473454639E+02  0.10888237974E+03  0.71226066112E+02  0.13257987028E+03  0.00000000000E+00 0.  1.
          3    1    3    3  501    0 -0.15659054237E+03 -0.11309949326E+03 -0.83154381779E+03  0.85368449338E+03  0.00000000000E+00 0.  1.
         -3    1    1    2    0  502  0.13111708773E+03  0.42171135190E+01 -0.92754206334E+02  0.16066367833E+03  0.00000000000E+00 0. -1.
<mgrwt>
<rscale>  1 0.62819926E+03</rscale>
<asrwt>0</asrwt>
<pdfrwt beam="1">  1       21 0.22604314E-01 0.62819926E+03</pdfrwt>
<pdfrwt beam="2">0</pdfrwt>
<totfact> 0.17740906E+03</totfact>
</mgrwt>
</event>
<event>
 6    1  0.1364923E-004  0.7007726E+03  0.7818608E-02  0.9715912E-01
         21   -1    0    0  501  502  0.00000000000E+00  0.00000000000E+00  0.37837888132E+03  0.37837888132E+03  0.00000000000E+00 0. -1.
         13   -1    0    0    0    0 -0.00000000000E+00 -0.00000000000E+00 -0.10000000000E+04  0.10000000000E+04  0.00000000000E+00 0.  1.
    9000005    2    1    2  501    0  0.13182254340E+03  0.21294119440E+03 -0.80551120622E+03  0.10676753256E+04  0.65449305758E+03 0.  0.
         13    1    3    3    0    0 -0.13809825784E+03 -0.32446119620E+02  0.39526041307E+02  0.14726230828E+03  0.00000000000E+00 0.  1.
          1    1    3    3  501    0  0.26992080124E+03  0.24538731402E+03 -0.84503724752E+03  0.92041301736E+03  0.00000000000E+00 0.  1.
         -1    1    1    2    0  502 -0.13182254340E+03 -0.21294119440E+03  0.18389008753E+03  0.31070355568E+03  0.00000000000E+00 0. -1.
<mgrwt>
<rscale>  1 0.70077264E+03</rscale>
<asrwt>0</asrwt>
<pdfrwt beam="1">  1       21 0.58212134E-01 0.70077264E+03</pdfrwt>
<pdfrwt beam="2">0</pdfrwt>
<totfact> 0.25227531E+02</totfact>
</mgrwt>
</event>
<event>
 6    1  0.1364923E-004  0.6418651E+03  0.7818608E-02  0.9822165E-01
         21   -1    0    0  501  502  0.00000000000E+00  0.00000000000E+00  0.13115817109E+03  0.13115817109E+03  0.00000000000E+00 0.  1.
         13   -1    0    0    0    0 -0.00000000000E+00 -0.00000000000E+00 -0.10000000000E+04  0.10000000000E+04  0.00000000000E+00 0.  1.
    9000005    2    1    2  501    0 -0.52152104445E+02  0.11706203055E+02 -0.86559349494E+03  0.10776097924E+04  0.63963574712E+03 0.  0.
         13    1    3    3    0    0 -0.14049655705E+03  0.26252581185E+03 -0.70904554862E+03  0.76902839639E+03  0.00000000000E+00 0.  1.
          1    1    3    3  501    0  0.88344452608E+02 -0.25081960880E+03 -0.15654794631E+03  0.30858139600E+03  0.00000000000E+00 0.  1.
         -1    1    1    2    0  502  0.52152104445E+02 -0.11706203055E+02 -0.32483339701E+01  0.53548378702E+02  0.00000000000E+00 0. -1.
<mgrwt>
<rscale>  1 0.64186507E+03</rscale>
<asrwt>0</asrwt>
<pdfrwt beam="1">  1       21 0.20178180E-01 0.64186507E+03</pdfrwt>
<pdfrwt beam="2">0</pdfrwt>
<totfact> 0.22071063E+03</totfact>
</mgrwt>
</event>
<event>
 6    1  0.1364923E-004  0.7082548E+03  0.7818608E-02  0.9703219E-01
         21   -1    0    0  501  502  0.00000000000E+00  0.00000000000E+00  0.26447903309E+03  0.26447903309E+03  0.00000000000E+00 0.  1.
         13   -1    0    0    0    0 -0.00000000000E+00 -0.00000000000E+00 -0.10000000000E+04  0.10000000000E+04  0.00000000000E+00 0.  1.
    9000005    2    1    2  501    0  0.19855035361E+03 -0.19420160741E+03 -0.67878911711E+03  0.98100944033E+03  0.65152770414E+03 0.  0.
         13    1    3    3    0    0  0.13459685120E+02 -0.41633447583E+03 -0.44124415486E+03  0.60680471577E+03  0.00000000000E+00 0.  1.
          3    1    3    3  501    0  0.18509066849E+03  0.22213286841E+03 -0.23754496225E+03  0.37420472456E+03  0.00000000000E+00 0.  1.
         -1    1    1    2    0  502 -0.19855035361E+03  0.19420160741E+03 -0.56731849793E+02  0.28346959276E+03  0.00000000000E+00 0. -1.
<mgrwt>
<rscale>  1 0.70825480E+03</rscale>
<asrwt>0</asrwt>
<pdfrwt beam="1">  1       21 0.40689081E-01 0.70825480E+03</pdfrwt>
<pdfrwt beam="2">0</pdfrwt>
<totfact> 0.54256144E+02</totfact>
</mgrwt>
</event>
<event>
 6    1  0.1364923E-004  0.6593114E+03  0.7818608E-02  0.9789462E-01
         21   -1    0    0  501  502  0.00000000000E+00  0.00000000000E+00  0.12730307800E+03  0.12730307800E+03  0.00000000000E+00 0.  1.
         13   -1    0    0    0    0 -0.00000000000E+00 -0.00000000000E+00 -0.10000000000E+04  0.10000000000E+04  0.00000000000E+00 0.  1.
    9000005    2    1    2  501    0 -0.33000733436E+02 -0.74674023471E+01 -0.87233979807E+03  0.10934661449E+04  0.65844261421E+03 0.  0.
         13    1    3    3    0    0 -0.25403175548E+03 -0.22292256494E+03 -0.34862381515E+03  0.48555655411E+03  0.00000000000E+00 0.  1.
          1    1    3    3  501    0  0.22103102204E+03  0.21545516259E+03 -0.52371598293E+03  0.60790959078E+03  0.00000000000E+00 0.  1.
         -3    1    1    2    0  502  0.33000733436E+02  0.74674023471E+01 -0.35712392189E+00  0.33836933115E+02  0.00000000000E+00 0. -1.
<mgrwt>
<rscale>  1 0.65931137E+03</rscale>
<asrwt>0</asrwt>
<pdfrwt beam="1">  1       21 0.19585088E-01 0.65931137E+03</pdfrwt>
<pdfrwt beam="2">0</pdfrwt>
<totfact> 0.23353970E+03</totfact>
</mgrwt>
</event>
<event>
 6    1  0.1364923E-004  0.6474329E+03  0.7818608E-02  0.9811608E-01
         21   -1    0    0  501  502  0.00000000000E+00  0.00000000000E+00  0.41643514249E+03  0.41643514249E+03  0.00000000000E+00 0. -1.
         13   -1    0    0    0    0 -0.00000000000E+00 -0.00000000000E+00 -0.10000000000E+04  0.10000000000E+04  0.00000000000E+00 0.  1.
    9000005    2    1    2  501    0  0.24816876231E+02 -0.43323257334E+02 -0.89299646938E+03  0.11030014104E+04  0.64550494583E+03 0.  0.
         13    1    3    3    0    0 -0.27784066571E+03  0.29108631310E+02 -0.20072218675E+03  0.34399439558E+03  0.00000000000E+00 0.  1.
          3    1    3    3  501    0  0.30265754194E+03 -0.72431888643E+02 -0.69227428263E+03  0.75900701484E+03  0.00000000000E+00 0.  1.
         -1    1    1    2    0  502 -0.24816876231E+02  0.43323257334E+02  0.30943161187E+03  0.31343373206E+03  0.00000000000E+00 0. -1.
<mgrwt>
<rscale>  1 0.64743294E+03</rscale>
<asrwt>0</asrwt>
<pdfrwt beam="1">  1       21 0.64066943E-01 0.64743294E+03</pdfrwt>
<pdfrwt beam="2">0</pdfrwt>
<totfact> 0.20512281E+02</totfact>
</mgrwt>
</event>
<event>
 6    1  0.1364923E-004  0.6632443E+03  0.7818608E-02  0.9782240E-01
         21   -1    0    0  501  502  0.00000000000E+00  0.00000000000E+00  0.14391760742E+03  0.14391760742E+03  0.00000000000E+00 0.  1.
         13   -1    0    0    0    0 -0.00000000000E+00 -0.00000000000E+00 -0.10000000000E+04  0.10000000000E+04  0.00000000000E+00 0.  1.
    9000005    2    1    2  501    0  0.60052181392E+02  0.34351512794E+02 -0.84443441194E+03  0.10737608802E+04  0.65962615234E+03 0.  0.
         13    1    3    3    0    0  0.18757744467E+02  0.97738911726E+02 -0.94371134934E+03  0.94894460256E+03  0.00000000000E+00 0.  1.
          3    1    3    3  501    0  0.41294436925E+02 -0.63387398932E+02  0.99276937401E+02  0.12481627764E+03  0.00000000000E+00 0.  1.
         -1    1    1    2    0  502 -0.60052181392E+02 -0.34351512794E+02 -0.11647980643E+02  0.70156727220E+02  0.00000000000E+00 0. -1.
<mgrwt>
<rscale>  1 0.66324426E+03</rscale>
<asrwt>0</asrwt>
<pdfrwt beam="1">  1       21 0.22141170E-01 0.66324426E+03</pdfrwt>
<pdfrwt beam="2">0</pdfrwt>
<totfact> 0.18437488E+03</totfact>
</mgrwt>
</event>
<event>
 6    1  0.1364923E-004  0.6418360E+03  0.7818608E-02  0.9822220E-01
         21   -1    0    0  501  502  0.00000000000E+00  0.00000000000E+00  0.53576960476E+03  0.53576960476E+03  0.00000000000E+00 0. -1.
         13   -1    0    0    0    0 -0.00000000000E+00 -0.00000000000E+00 -0.10000000000E+04  0.10000000000E+04  0.00000000000E+00 0.  1.
    9000005    2    1    2  501    0 -0.13996504099E+02  0.18189508686E+02 -0.89667597766E+03  0.11027154025E+04  0.64142551368E+03 0.  0.
         13    1    3    3    0    0  0.11891871423E+03 -0.26954337105E+03 -0.60071141026E+03  0.66906613117E+03  0.00000000000E+00 0.  1.
          1    1    3    3  501    0 -0.13291521833E+03  0.28773287974E+03 -0.29596456741E+03  0.43364927131E+03  0.00000000000E+00 0.  1.
         -1    1    1    2    0  502  0.13996504099E+02 -0.18189508686E+02  0.43244558243E+03  0.43305420228E+03  0.00000000000E+00 0. -1.
<mgrwt>
<rscale>  1 0.64183600E+03</rscale>
<asrwt>0</asrwt>
<pdfrwt beam="1">  1       21 0.82426091E-01 0.64183600E+03</pdfrwt>
<pdfrwt beam="2">0</pdfrwt>
<totfact> 0.11535200E+02</totfact>
</mgrwt>
</event>
<event>
 6    1  0.1364923E-004  0.6643185E+03  0.7818608E-02  0.9780276E-01
         21   -1    0    0  501  502  0.00000000000E+00  0.00000000000E+00  0.19224162743E+03  0.19224162743E+03  0.00000000000E+00 0.  1.
         13   -1    0    0    0    0 -0.00000000000E+00 -0.00000000000E+00 -0.10000000000E+04  0.10000000000E+04  0.00000000000E+00 0.  1.
    9000005    2    1    2  501    0 -0.89906817171E+02  0.18905712119E+02 -0.85988572842E+03  0.10866105574E+04  0.65793493281E+03 0.  0.
         13    1    3    3    0    0 -0.22710514272E+03  0.99081117168E+02 -0.89089203643E+03  0.92470667468E+03  0.00000000000E+00 0.  1.
          1    1    3    3  501    0  0.13719832555E+03 -0.80175405048E+02  0.31006308008E+02  0.16190388273E+03  0.00000000000E+00 0.  1.
         -1    1    1    2    0  502  0.89906817171E+02 -0.18905712119E+02  0.52127355849E+02  0.10563107001E+03  0.00000000000E+00 0. -1.
<mgrwt>
<rscale>  1 0.66431848E+03</rscale>
<asrwt>0</asrwt>
<pdfrwt beam="1">  1       21 0.29575634E-01 0.66431848E+03</pdfrwt>
<pdfrwt beam="2">0</pdfrwt>
<totfact> 0.10432109E+03</totfact>
</mgrwt>
</event>
<event>
 6    1  0.1364923E-004  0.6708689E+03  0.7818608E-02  0.9768389E-01
         21   -1    0    0  501  502  0.00000000000E+00  0.00000000000E+00  0.26097544295E+03  0.26097544295E+03  0.00000000000E+00 0. -1.
         13   -1    0    0    0    0 -0.00000000000E+00 -0.00000000000E+00 -0.10000000000E+04  0.10000000000E+04  0.00000000000E+00 0.  1.
    9000005    2    1    2  501    0  0.16424128883E+02 -0.14261455423E+03 -0.84761110789E+03  0.10809762704E+04  0.65532926374E+03 0.  0.
         13    1    3    3    0    0 -0.23283850149E+03  0.15654424007E+03 -0.38283084704E+03  0.47463599139E+03  0.00000000000E+00 0.  1.
          1    1    3    3  501    0  0.24926263037E+03 -0.29915879430E+03 -0.46478026085E+03  0.60634027903E+03  0.00000000000E+00 0.  1.
         -3    1    1    2    0  502 -0.16424128883E+02  0.14261455423E+03  0.10858655084E+03  0.17999917253E+03  0.00000000000E+00 0. -1.
<mgrwt>
<rscale>  1 0.67086892E+03</rscale>
<asrwt>0</asrwt>
<pdfrwt beam="1">  1       21 0.40150067E-01 0.67086892E+03</pdfrwt>
<pdfrwt beam="2">0</pdfrwt>
<totfact> 0.55944773E+02</totfact>
</mgrwt>
</event>
<event>
 6    1  0.1364923E-004  0.6911126E+03  0.7818608E-02  0.9732553E-01
         21   -1    0    0  501  502  0.00000000000E+00  0.00000000000E+00  0.23911494455E+03  0.23911494455E+03  0.00000000000E+00 0. -1.
         13   -1    0    0    0    0 -0.00000000000E+00 -0.00000000000E+00 -0.10000000000E+04  0.10000000000E+04  0.00000000000E+00 0.  1.
    9000005    2    1    2  501    0 -0.52101140805E+01  0.21196573016E+02 -0.87947579378E+03  0.11185321796E+04  0.69076777927E+03 0.  0.
         13    1    3    3    0    0  0.21453481138E+03 -0.22937251820E+03 -0.62408314933E+03  0.69865350115E+03  0.00000000000E+00 0.  1.
          3    1    3    3  501    0 -0.21974492546E+03  0.25056909122E+03 -0.25539264445E+03  0.41987867840E+03  0.00000000000E+00 0.  1.
         -1    1    1    2    0  502  0.52101140805E+01 -0.21196573016E+02  0.11859073832E+03  0.12058276499E+03  0.00000000000E+00 0. -1.
<mgrwt>
<rscale>  1 0.69111256E+03</rscale>
<asrwt>0</asrwt>
<pdfrwt beam="1">  1       21 0.36786913E-01 0.69111256E+03</pdfrwt>
<pdfrwt beam="2">0</pdfrwt>
<totfact> 0.66925234E+02</totfact>
</mgrwt>
</event>
<event>
 6    1  0.1364923E-004  0.6791290E+03  0.7818608E-02  0.9753605E-01
         21   -1    0    0  501  502  0.00000000000E+00  0.00000000000E+00  0.23094845038E+03  0.23094845038E+03  0.00000000000E+00 0.  1.
         13   -1    0    0    0    0 -0.00000000000E+00 -0.00000000000E+00 -0.10000000000E+04  0.10000000000E+04  0.00000000000E+00 0.  1.
    9000005    2    1    2  501    0  0.27213837837E+03  0.11229739020E+02 -0.62441917325E+03  0.92255920232E+03  0.62211797422E+03 0.  0.
         13    1    3    3    0    0  0.37353514448E+03  0.21062050109E+03 -0.52471230821E+03  0.67765220137E+03  0.00000000000E+00 0.  1.
          3    1    3    3  501    0 -0.10139676611E+03 -0.19939076207E+03 -0.99706865039E+02  0.24490700095E+03  0.00000000000E+00 0.  1.
         -3    1    1    2    0  502 -0.27213837837E+03 -0.11229739020E+02 -0.14463237638E+03  0.30838924805E+03  0.00000000000E+00 0. -1.
<mgrwt>
<rscale>  1 0.67912898E+03</rscale>
<asrwt>0</asrwt>
<pdfrwt beam="1">  1       21 0.35530530E-01 0.67912898E+03</pdfrwt>
<pdfrwt beam="2">0</pdfrwt>
<totfact> 0.71926396E+02</totfact>
</mgrwt>
</event>
<event>
 6    1  0.1364923E-004  0.6644926E+03  0.7818608E-02  0.9779959E-01
         21   -1    0    0  501  502  0.00000000000E+00  0.00000000000E+00  0.16133624249E+03  0.16133624249E+03  0.00000000000E+00 0. -1.
         13   -1    0    0    0    0 -0.00000000000E+00 -0.00000000000E+00 -0.10000000000E+04  0.10000000000E+04  0.00000000000E+00 0.  1.
    9000005    2    1    2  501    0 -0.29170027081E+02  0.33008702828E+02 -0.87879914448E+03  0.11017433383E+04  0.66303090593E+03 0.  0.
         13    1    3    3    0    0  0.67320376343E+02 -0.34424946382E+02  0.94683119522E+02  0.12116931595E+03  0.00000000000E+00 0.  1.
          3    1    3    3  501    0 -0.96490403424E+02  0.67433649210E+02 -0.97348226400E+03  0.98057402236E+03  0.00000000000E+00 0.  1.
         -1    1    1    2    0  502  0.29170027081E+02 -0.33008702828E+02  0.40135386969E+02  0.59592904187E+02  0.00000000000E+00 0. -1.
<mgrwt>
<rscale>  1 0.66449262E+03</rscale>
<asrwt>0</asrwt>
<pdfrwt beam="1">  1       21 0.24820960E-01 0.66449262E+03</pdfrwt>
<pdfrwt beam="2">0</pdfrwt>
<totfact> 0.14757325E+03</totfact>
</mgrwt>
</event>
<event>
 6    1  0.1364923E-004  0.6367167E+03  0.7818608E-02  0.9832029E-01
         21   -1    0    0  501  502  0.00000000000E+00  0.00000000000E+00  0.19618565086E+03  0.19618565086E+03  0.00000000000E+00 0. -1.
         13   -1    0    0    0    0 -0.00000000000E+00 -0.00000000000E+00 -0.10000000000E+04  0.10000000000E+04  0.00000000000E+00 0.  1.
    9000005    2    1    2  501    0  0.59718915843E+02  0.26228086353E+02 -0.88612951080E+03  0.10911616190E+04  0.63336711905E+03 0.  0.
         13    1    3    3    0    0 -0.13582326282E+03  0.26398815184E+03 -0.60656658253E+03  0.67532267996E+03  0.00000000000E+00 0.  1.
          1    1    3    3  501    0  0.19554217866E+03 -0.23776006549E+03 -0.27956292828E+03  0.41583893906E+03  0.00000000000E+00 0.  1.
         -3    1    1    2    0  502 -0.59718915843E+02 -0.26228086353E+02  0.82315161667E+02  0.10502403184E+03  0.00000000000E+00 0. -1.
<mgrwt>
<rscale>  1 0.63671671E+03</rscale>
<asrwt>0</asrwt>
<pdfrwt beam="1">  1       21 0.30182407E-01 0.63671671E+03</pdfrwt>
<pdfrwt beam="2">0</pdfrwt>
<totfact> 0.10034019E+03</totfact>
</mgrwt>
</event>
<event>
 6    1  0.1364923E-004  0.6473424E+03  0.7818608E-02  0.9811779E-01
         21   -1    0    0  501  502  0.00000000000E+00  0.00000000000E+00  0.26265223348E+03  0.26265223348E+03  0.00000000000E+00 0. -1.
         13   -1    0    0    0    0 -0.00000000000E+00 -0.00000000000E+00 -0.10000000000E+04  0.10000000000E+04  0.00000000000E+00 0.  1.
    9000005    2    1    2  501    0 -0.19343049183E+02 -0.73040793090E+02 -0.88518022979E+03  0.10966294995E+04  0.64291765330E+03 0.  0.
         13    1    3    3    0    0  0.27905744657E+03 -0.16860480005E+03 -0.53695919755E+03  0.62819249989E+03  0.00000000000E+00 0.  1.
          3    1    3    3  501    0 -0.29840049575E+03  0.95564006965E+02 -0.34822103225E+03  0.46843699960E+03  0.00000000000E+00 0.  1.
         -1    1    1    2    0  502  0.19343049183E+02  0.73040793090E+02  0.14783246327E+03  0.16602273400E+03  0.00000000000E+00 0. -1.
<mgrwt>
<rscale>  1 0.64734243E+03</rscale>
<asrwt>0</asrwt>
<pdfrwt beam="1">  1       21 0.40408035E-01 0.64734243E+03</pdfrwt>
<pdfrwt beam="2">0</pdfrwt>
<totfact> 0.55309006E+02</totfact>
</mgrwt>
</event>
<event>
 6    1  0.1364923E-004  0.6731071E+03  0.7818608E-02  0.9764361E-01
         21   -1    0    0  501  502  0.00000000000E+00  0.00000000000E+00  0.50001480801E+03  0.50001480801E+03  0.00000000000E+00 0. -1.
         13   -1    0    0    0    0 -0.00000000000E+00 -0.00000000000E+00 -0.10000000000E+04  0.10000000000E+04  0.00000000000E+00 0.  1.
    9000005    2    1    2  501    0 -0.20680288410E+03 -0.52790340677E+02 -0.85354942006E+03  0.10870233840E+04  0.63837212652E+03 0.  0.
         13    1    3    3    0    0 -0.14271578546E+02  0.27244715939E+03 -0.49947224403E+03  0.56912534223E+03  0.00000000000E+00 0.  1.
          1    1    3    3  501    0 -0.19253130556E+03 -0.32523750007E+03 -0.35407717603E+03  0.51789804176E+03  0.00000000000E+00 0.  1.
         -1    1    1    2    0  502  0.20680288410E+03  0.52790340677E+02  0.35356422806E+03  0.41299142401E+03  0.00000000000E+00 0. -1.
<mgrwt>
<rscale>  1 0.67310714E+03</rscale>
<asrwt>0</asrwt>
<pdfrwt beam="1">  1       21 0.76925353E-01 0.67310714E+03</pdfrwt>
<pdfrwt beam="2">0</pdfrwt>
<totfact> 0.13493569E+02</totfact>
</mgrwt>
</event>
<event>
 6    1  0.1364923E-004  0.6334714E+03  0.7818608E-02  0.9838298E-01
         21   -1    0    0  501  502  0.00000000000E+00  0.00000000000E+00  0.20672544191E+03  0.20672544191E+03  0.00000000000E+00 0. -1.
         13   -1    0    0    0    0 -0.00000000000E+00 -0.00000000000E+00 -0.10000000000E+04  0.10000000000E+04  0.00000000000E+00 0.  1.
    9000005    2    1    2  501    0 -0.99008518737E+01  0.29458925650E+02 -0.89717564106E+03  0.10982759596E+04  0.63270854062E+03 0.  0.
         13    1    3    3    0    0 -0.12993828323E+03 -0.27513702696E+03 -0.39093101221E+03  0.49539014661E+03  0.00000000000E+00 0.  1.
          1    1    3    3  501    0  0.12003743136E+03  0.30459595261E+03 -0.50624462885E+03  0.60288581300E+03  0.00000000000E+00 0.  1.
         -3    1    1    2    0  502  0.99008518737E+01 -0.29458925650E+02  0.10390108297E+03  0.10844948230E+03  0.00000000000E+00 0. -1.
<mgrwt>
<rscale>  1 0.63347135E+03</rscale>
<asrwt>0</asrwt>
<pdfrwt beam="1">  1       21 0.31803913E-01 0.63347135E+03</pdfrwt>
<pdfrwt beam="2">0</pdfrwt>
<totfact> 0.90348670E+02</totfact>
</mgrwt>
</event>
<event>
 6    1  0.1364923E-004  0.6452618E+03  0.7818608E-02  0.9815711E-01
         21   -1    0    0  501  502  0.00000000000E+00  0.00000000000E+00  0.12648421784E+03  0.12648421784E+03  0.00000000000E+00 0.  1.
         13   -1    0    0    0    0 -0.00000000000E+00 -0.00000000000E+00 -0.10000000000E+04  0.10000000000E+04  0.00000000000E+00 0.  1.
    9000005    2    1    2  501    0  0.26843515352E+02  0.85832271201E+01 -0.88566524698E+03  0.10957945518E+04  0.64464604554E+03 0.  0.
         13    1    3    3    0    0  0.22443083943E+03  0.95407936159E+02 -0.72413872095E+02  0.25439269809E+03  0.00000000000E+00 0.  1.
          3    1    3    3  501    0 -0.19758732408E+03 -0.86824709039E+02 -0.81325137488E+03  0.84140185374E+03  0.00000000000E+00 0.  1.
         -1    1    1    2    0  502 -0.26843515352E+02 -0.85832271201E+01  0.12149464818E+02  0.30689666007E+02  0.00000000000E+00 0. -1.
<mgrwt>
<rscale>  1 0.64526178E+03</rscale>
<asrwt>0</asrwt>
<pdfrwt beam="1">  1       21 0.19459110E-01 0.64526178E+03</pdfrwt>
<pdfrwt beam="2">0</pdfrwt>
<totfact> 0.23656645E+03</totfact>
</mgrwt>
</event>
<event>
 6    1  0.1364923E-004  0.6563594E+03  0.7818608E-02  0.9794919E-01
         21   -1    0    0  501  502  0.00000000000E+00  0.00000000000E+00  0.21521086549E+03  0.21521086549E+03  0.00000000000E+00 0.  1.
         13   -1    0    0    0    0 -0.00000000000E+00 -0.00000000000E+00 -0.10000000000E+04  0.10000000000E+04  0.00000000000E+00 0.  1.
    9000005    2    1    2  501    0 -0.60452237270E+01 -0.39895989357E+02 -0.88808635120E+03  0.11043120392E+04  0.65511791155E+03 0.  0.
         13    1    3    3    0    0  0.11022010203E+03 -0.67008227305E+02 -0.95754346687E+03  0.96619256071E+03  0.00000000000E+00 0.  1.
          1    1    3    3  501    0 -0.11626532576E+03  0.27112237948E+02  0.69457115675E+02  0.13811947849E+03  0.00000000000E+00 0.  1.
         -3    1    1    2    0  502  0.60452237270E+01  0.39895989357E+02  0.10329721669E+03  0.11089882629E+03  0.00000000000E+00 0. -1.
<mgrwt>
<rscale>  1 0.65635944E+03</rscale>
<asrwt>0</asrwt>
<pdfrwt beam="1">  1       21 0.33109363E-01 0.65635944E+03</pdfrwt>
<pdfrwt beam="2">0</pdfrwt>
<totfact> 0.83167083E+02</totfact>
</mgrwt>
</event>
<event>
 6    1  0.1364923E-004  0.6550150E+03  0.7818608E-02  0.9797414E-01
         21   -1    0    0  501  502  0.00000000000E+00  0.00000000000E+00  0.21728608969E+03  0.21728608969E+03  0.00000000000E+00 0.  1.
         13   -1    0    0    0    0 -0.00000000000E+00 -0.00000000000E+00 -0.10000000000E+04  0.10000000000E+04  0.00000000000E+00 0.  1.
    9000005    2    1    2  501    0 -0.22609342506E+02 -0.21644712111E+02 -0.89026812640E+03  0.11052700849E+04  0.65426672525E+03 0.  0.
         13    1    3    3    0    0 -0.14070033360E+03 -0.36397968146E+02  0.52872293106E+02  0.15465081745E+03  0.00000000000E+00 0.  1.
          3    1    3    3  501    0  0.11809099109E+03  0.14753256035E+02 -0.94314041950E+03  0.95061926745E+03  0.00000000000E+00 0.  1.
         -3    1    1    2    0  502  0.22609342506E+02  0.21644712111E+02  0.10755421608E+03  0.11201600479E+03  0.00000000000E+00 0. -1.
<mgrwt>
<rscale>  1 0.65501498E+03</rscale>
<asrwt>0</asrwt>
<pdfrwt beam="1">  1       21 0.33428628E-01 0.65501498E+03</pdfrwt>
<pdfrwt beam="2">0</pdfrwt>
<totfact> 0.81572623E+02</totfact>
</mgrwt>
</event>
<event>
 6    1  0.1364923E-004  0.6497786E+03  0.7818608E-02  0.9807195E-01
         21   -1    0    0  501  502  0.00000000000E+00  0.00000000000E+00  0.14871658232E+03  0.14871658232E+03  0.00000000000E+00 0.  1.
         13   -1    0    0    0    0 -0.00000000000E+00 -0.00000000000E+00 -0.10000000000E+04  0.10000000000E+04  0.00000000000E+00 0.  1.
    9000005    2    1    2  501    0  0.12326986444E+02 -0.21319450922E+02 -0.89052813686E+03  0.11023849348E+04  0.64931171887E+03 0.  0.
         13    1    3    3    0    0 -0.19948212337E+03  0.24049313535E+03 -0.40580083117E+03  0.51215659741E+03  0.00000000000E+00 0.  1.
          3    1    3    3  501    0  0.21180910981E+03 -0.26181258627E+03 -0.48472730568E+03  0.59022833734E+03  0.00000000000E+00 0.  1.
         -3    1    1    2    0  502 -0.12326986444E+02  0.21319450922E+02  0.39244719178E+02  0.46331647562E+02  0.00000000000E+00 0. -1.
<mgrwt>
<rscale>  1 0.64977856E+03</rscale>
<asrwt>0</asrwt>
<pdfrwt beam="1">  1       21 0.22879474E-01 0.64977856E+03</pdfrwt>
<pdfrwt beam="2">0</pdfrwt>
<totfact> 0.17311445E+03</totfact>
</mgrwt>
</event>
<event>
 6    1  0.1364923E-004  0.6637693E+03  0.7818608E-02  0.9781280E-01
         21   -1    0    0  501  502  0.00000000000E+00  0.00000000000E+00  0.35577239332E+03  0.35577239332E+03  0.00000000000E+00 0. -1.
         13   -1    0    0    0    0 -0.00000000000E+00 -0.00000000000E+00 -0.10000000000E+04  0.10000000000E+04  0.00000000000E+00 0.  1.
    9000005    2    1    2  501    0 -0.94591187849E+02  0.38937729350E+02 -0.87795912116E+03  0.11006370166E+04  0.65583990756E+03 0.  0.
         13    1    3    3    0    0 -0.98465331977E+02 -0.29508217452E+03 -0.29476113762E+03  0.42854759312E+03  0.00000000000E+00 0.  1.
          3    1    3    3  501    0  0.38741441281E+01  0.33401990387E+03 -0.58319798354E+03  0.67208942350E+03  0.00000000000E+00 0.  1.
         -1    1    1    2    0  502  0.94591187849E+02 -0.38937729350E+02  0.23373151447E+03  0.25513537670E+03  0.00000000000E+00 0. -1.
<mgrwt>
<rscale>  1 0.66376926E+03</rscale>
<asrwt>0</asrwt>
<pdfrwt beam="1">  1       21 0.54734213E-01 0.66376926E+03</pdfrwt>
<pdfrwt beam="2">0</pdfrwt>
<totfact> 0.28973704E+02</totfact>
</mgrwt>
</event>
<event>
 6    1  0.1364923E-004  0.6513782E+03  0.7818608E-02  0.9804197E-01
         21   -1    0    0  501  502  0.00000000000E+00  0.00000000000E+00  0.38530950749E+03  0.38530950749E+03  0.00000000000E+00 0. -1.
         13   -1    0    0    0    0 -0.00000000000E+00 -0.00000000000E+00 -0.10000000000E+04  0.10000000000E+04  0.00000000000E+00 0.  1.
    9000005    2    1    2  501    0  0.20776278558E+02 -0.97053507215E+01 -0.89340576539E+03  0.11056524838E+04  0.65097442780E+03 0.  0.
         13    1    3    3    0    0 -0.25793633102E+03 -0.18533380272E+03 -0.37503023752E+03  0.49145442143E+03  0.00000000000E+00 0.  1.
          3    1    3    3  501    0  0.27871260958E+03  0.17562845200E+03 -0.51837552786E+03  0.61419806234E+03  0.00000000000E+00 0.  1.
         -3    1    1    2    0  502 -0.20776278558E+02  0.97053507215E+01  0.27871527287E+03  0.27965702372E+03  0.00000000000E+00 0. -1.
<mgrwt>
<rscale>  1 0.65137820E+03</rscale>
<asrwt>0</asrwt>
<pdfrwt beam="1">  1       21 0.59278384E-01 0.65137820E+03</pdfrwt>
<pdfrwt beam="2">0</pdfrwt>
<totfact> 0.24362018E+02</totfact>
</mgrwt>
</event>
<event>
 6    1  0.1364923E-004  0.6634778E+03  0.7818608E-02  0.9781813E-01
         21   -1    0    0  501  502  0.00000000000E+00  0.00000000000E+00  0.16962275285E+03  0.16962275285E+03  0.00000000000E+00 0.  1.
         13   -1    0    0    0    0 -0.00000000000E+00 -0.00000000000E+00 -0.10000000000E+04  0.10000000000E+04  0.00000000000E+00 0.  1.
    9000005    2    1    2  501    0  0.22989701482E+02  0.97267828799E+02 -0.83861593581E+03  0.10693359996E+04  0.65590642265E+03 0.  0.
         13    1    3    3    0    0 -0.29288028864E+03  0.87873733564E+01 -0.58648037862E+03  0.65560301701E+03  0.00000000000E+00 0.  1.
          3    1    3    3  501    0  0.31586999012E+03  0.88480455443E+02 -0.25213555719E+03  0.41373298255E+03  0.00000000000E+00 0.  1.
         -1    1    1    2    0  502 -0.22989701482E+02 -0.97267828799E+02  0.82386886569E+01  0.10028675328E+03  0.00000000000E+00 0. -1.
<mgrwt>
<rscale>  1 0.66347780E+03</rscale>
<asrwt>0</asrwt>
<pdfrwt beam="1">  1       21 0.26095807E-01 0.66347780E+03</pdfrwt>
<pdfrwt beam="2">0</pdfrwt>
<totfact> 0.13375005E+03</totfact>
</mgrwt>
</event>
<event>
 6    1  0.1364923E-004  0.6395602E+03  0.7818608E-02  0.9826568E-01
         21   -1    0    0  501  502  0.00000000000E+00  0.00000000000E+00  0.43343707374E+03  0.43343707374E+03  0.00000000000E+00 0. -1.
         13   -1    0    0    0    0 -0.00000000000E+00 -0.00000000000E+00 -0.10000000000E+04  0.10000000000E+04  0.00000000000E+00 0.  1.
    9000005    2    1    2  501    0 -0.40645935763E+02 -0.23372497678E+02 -0.89591027356E+03  0.11007690096E+04  0.63783918698E+03 0.  0.
         13    1    3    3    0    0  0.16896153466E+03  0.24210327997E+03 -0.34258094183E+03  0.45224296575E+03  0.00000000000E+00 0.  1.
          1    1    3    3  501    0 -0.20960747042E+03 -0.26547577765E+03 -0.55332933173E+03  0.64852604383E+03  0.00000000000E+00 0.  1.
         -3    1    1    2    0  502  0.40645935763E+02  0.23372497678E+02  0.32934734730E+03  0.33266806417E+03  0.00000000000E+00 0. -1.
<mgrwt>
<rscale>  1 0.63956016E+03</rscale>
<asrwt>0</asrwt>
<pdfrwt beam="1">  1       21 0.66682625E-01 0.63956016E+03</pdfrwt>
<pdfrwt beam="2">0</pdfrwt>
<totfact> 0.18769080E+02</totfact>
</mgrwt>
</event>
<event>
 6    1  0.1364923E-004  0.6438543E+03  0.7818608E-02  0.9818380E-01
         21   -1    0    0  501  502  0.00000000000E+00  0.00000000000E+00  0.23842854621E+03  0.23842854621E+03  0.00000000000E+00 0. -1.
         13   -1    0    0    0    0 -0.00000000000E+00 -0.00000000000E+00 -0.10000000000E+04  0.10000000000E+04  0.00000000000E+00 0.  1.
    9000005    2    1    2  501    0 -0.84481516252E+01 -0.44276415707E+02 -0.89219034600E+03  0.11002508807E+04  0.64227456331E+03 0.  0.
         13    1    3    3    0    0  0.27289132838E+03  0.13438251232E+03 -0.34886780906E+03  0.46285752119E+03  0.00000000000E+00 0.  1.
          1    1    3    3  501    0 -0.28133948000E+03 -0.17865892802E+03 -0.54332253693E+03  0.63739335948E+03  0.00000000000E+00 0.  1.
         -3    1    1    2    0  502  0.84481516252E+01  0.44276415707E+02  0.13061889221E+03  0.13817766554E+03  0.00000000000E+00 0. -1.
<mgrwt>
<rscale>  1 0.64385432E+03</rscale>
<asrwt>0</asrwt>
<pdfrwt beam="1">  1       21 0.36681314E-01 0.64385432E+03</pdfrwt>
<pdfrwt beam="2">0</pdfrwt>
<totfact> 0.67555826E+02</totfact>
</mgrwt>
</event>
<event>
 6    1  0.1364923E-004  0.6845784E+03  0.7818608E-02  0.9743975E-01
         21   -1    0    0  501  502  0.00000000000E+00  0.00000000000E+00  0.24883013238E+03  0.24883013238E+03  0.00000000000E+00 0. -1.
         13   -1    0    0    0    0 -0.00000000000E+00 -0.00000000000E+00 -0.10000000000E+04  0.10000000000E+04  0.00000000000E+00 0.  1.
    9000005    2    1    2  501    0 -0.22954472214E+03 -0.21008626372E+02 -0.75386225028E+03  0.10183103051E+04  0.64460487373E+03 0.  0.
         13    1    3    3    0    0 -0.33195679061E+03 -0.88650104050E+02 -0.81259313132E+03  0.88224812204E+03  0.00000000000E+00 0.  1.
          3    1    3    3  501    0  0.10241206847E+03  0.67641477678E+02  0.58730881041E+02  0.13606218306E+03  0.00000000000E+00 0.  1.
         -1    1    1    2    0  502  0.22954472214E+03  0.21008626372E+02  0.26923826624E+01  0.23051982728E+03  0.00000000000E+00 0. -1.
<mgrwt>
<rscale>  1 0.68457840E+03</rscale>
<asrwt>0</asrwt>
<pdfrwt beam="1">  1       21 0.38281558E-01 0.68457840E+03</pdfrwt>
<pdfrwt beam="2">0</pdfrwt>
<totfact> 0.61684572E+02</totfact>
</mgrwt>
</event>
<event>
 6    1  0.1364923E-004  0.6386771E+03  0.7818608E-02  0.9828261E-01
         21   -1    0    0  501  502  0.00000000000E+00  0.00000000000E+00  0.13739977913E+03  0.13739977913E+03  0.00000000000E+00 0. -1.
         13   -1    0    0    0    0 -0.00000000000E+00 -0.00000000000E+00 -0.10000000000E+04  0.10000000000E+04  0.00000000000E+00 0.  1.
    9000005    2    1    2  501    0 -0.70512014517E+02  0.11843984745E+02 -0.85247530360E+03  0.10651866355E+04  0.63466227319E+03 0.  0.
         13    1    3    3    0    0 -0.25447745292E+03 -0.20435628019E+03 -0.61011324014E+03  0.69192371624E+03  0.00000000000E+00 0.  1.
          3    1    3    3  501    0  0.18396543840E+03  0.21620026493E+03 -0.24236206346E+03  0.37326291925E+03  0.00000000000E+00 0.  1.
         -1    1    1    2    0  502  0.70512014517E+02 -0.11843984745E+02 -0.10124917266E+02  0.72213143648E+02  0.00000000000E+00 0. -1.
<mgrwt>
<rscale>  1 0.63867709E+03</rscale>
<asrwt>0</asrwt>
<pdfrwt beam="1">  1       21 0.21138427E-01 0.63867709E+03</pdfrwt>
<pdfrwt beam="2">0</pdfrwt>
<totfact> 0.20186285E+03</totfact>
</mgrwt>
</event>
<event>
 6    1  0.1364923E-004  0.6696834E+03  0.7818608E-02  0.9770530E-01
         21   -1    0    0  501  502  0.00000000000E+00  0.00000000000E+00  0.19755691426E+03  0.19755691426E+03  0.00000000000E+00 0. -1.
         13   -1    0    0    0    0 -0.00000000000E+00 -0.00000000000E+00 -0.10000000000E+04  0.10000000000E+04  0.00000000000E+00 0.  1.
    9000005    2    1    2  501    0 -0.11405474587E+03 -0.87865528260E+02 -0.81287373653E+03  0.10532044477E+04  0.65402374658E+03 0.  0.
         13    1    3    3    0    0  0.20002564638E+03  0.16248103371E+03 -0.23041976141E+03  0.34569294463E+03  0.00000000000E+00 0.  1.
          3    1    3    3  501    0 -0.31408039225E+03 -0.25034656197E+03 -0.58245397513E+03  0.70751150311E+03  0.00000000000E+00 0.  1.
         -3    1    1    2    0  502  0.11405474587E+03  0.87865528260E+02  0.10430650790E+02  0.14435246651E+03  0.00000000000E+00 0. -1.
<mgrwt>
<rscale>  1 0.66968343E+03</rscale>
<asrwt>0</asrwt>
<pdfrwt beam="1">  1       21 0.30393371E-01 0.66968343E+03</pdfrwt>
<pdfrwt beam="2">0</pdfrwt>
<totfact> 0.98743013E+02</totfact>
</mgrwt>
</event>
<event>
 6    1  0.1364923E-004  0.6503128E+03  0.7818608E-02  0.9806192E-01
         21   -1    0    0  501  502  0.00000000000E+00  0.00000000000E+00  0.13910702266E+03  0.13910702266E+03  0.00000000000E+00 0.  1.
         13   -1    0    0    0    0 -0.00000000000E+00 -0.00000000000E+00 -0.10000000000E+04  0.10000000000E+04  0.00000000000E+00 0.  1.
    9000005    2    1    2  501    0  0.22433844586E+02 -0.19509477495E+01 -0.89002046123E+03  0.11022899899E+04  0.64992285461E+03 0.  0.
         13    1    3    3    0    0 -0.22752765089E+03  0.35925888440E+01 -0.59861688435E+02  0.23529802455E+03  0.00000000000E+00 0.  1.
          3    1    3    3  501    0  0.24996149547E+03 -0.55435365935E+01 -0.83015877280E+03  0.86699196540E+03  0.00000000000E+00 0.  1.
         -3    1    1    2    0  502 -0.22433844586E+02  0.19509477495E+01  0.29127483887E+02  0.36817032711E+02  0.00000000000E+00 0. -1.
<mgrwt>
<rscale>  1 0.65031285E+03</rscale>
<asrwt>0</asrwt>
<pdfrwt beam="1">  1       21 0.21401080E-01 0.65031285E+03</pdfrwt>
<pdfrwt beam="2">0</pdfrwt>
<totfact> 0.19701344E+03</totfact>
</mgrwt>
</event>
<event>
 6    1  0.1364923E-004  0.6436531E+03  0.7818608E-02  0.9818762E-01
         21   -1    0    0  501  502  0.00000000000E+00  0.00000000000E+00  0.19602438802E+03  0.19602438802E+03  0.00000000000E+00 0. -1.
         13   -1    0    0    0    0 -0.00000000000E+00 -0.00000000000E+00 -0.10000000000E+04  0.10000000000E+04  0.00000000000E+00 0.  1.
    9000005    2    1    2  501    0 -0.18386796973E+02 -0.88554879430E+01 -0.89518307028E+03  0.11025615910E+04  0.64332949471E+03 0.  0.
         13    1    3    3    0    0  0.22563128832E+03  0.21285961211E+03 -0.49358732621E+03  0.58296409952E+03  0.00000000000E+00 0.  1.
          1    1    3    3  501    0 -0.24401808529E+03 -0.22171510006E+03 -0.40159574407E+03  0.51959749152E+03  0.00000000000E+00 0.  1.
         -3    1    1    2    0  502  0.18386796973E+02  0.88554879430E+01  0.91207458293E+02  0.93462796972E+02  0.00000000000E+00 0. -1.
<mgrwt>
<rscale>  1 0.64365312E+03</rscale>
<asrwt>0</asrwt>
<pdfrwt beam="1">  1       21 0.30157597E-01 0.64365312E+03</pdfrwt>
<pdfrwt beam="2">0</pdfrwt>
<totfact> 0.10046080E+03</totfact>
</mgrwt>
</event>
<event>
 6    1  0.1364923E-004  0.6888710E+03  0.7818608E-02  0.9736456E-01
         21   -1    0    0  501  502  0.00000000000E+00  0.00000000000E+00  0.24587310093E+03  0.24587310093E+03  0.00000000000E+00 0.  1.
         13   -1    0    0    0    0 -0.00000000000E+00 -0.00000000000E+00 -0.10000000000E+04  0.10000000000E+04  0.00000000000E+00 0.  1.
    9000005    2    1    2  501    0  0.22156499003E+03  0.36612013486E+02 -0.75400102868E+03  0.10213035122E+04  0.65123868777E+03 0.  0.
         13    1    3    3    0    0 -0.93794852926E+02  0.10480905193E+03 -0.67449373405E+03  0.68900232878E+03  0.00000000000E+00 0.  1.
          3    1    3    3  501    0  0.31535984295E+03 -0.68197038449E+02 -0.79507294630E+02  0.33230118342E+03  0.00000000000E+00 0.  1.
         -3    1    1    2    0  502 -0.22156499003E+03 -0.36612013486E+02 -0.12587039581E+00  0.22456958873E+03  0.00000000000E+00 0. -1.
<mgrwt>
<rscale>  1 0.68887104E+03</rscale>
<asrwt>0</asrwt>
<pdfrwt beam="1">  1       21 0.37826630E-01 0.68887104E+03</pdfrwt>
<pdfrwt beam="2">0</pdfrwt>
<totfact> 0.63204838E+02</totfact>
</mgrwt>
</event>
<event>
 6    1  0.1364923E-004  0.6641985E+03  0.7818608E-02  0.9780495E-01
         21   -1    0    0  501  502  0.00000000000E+00  0.00000000000E+00  0.16893031243E+03  0.16893031243E+03  0.00000000000E+00 0. -1.
         13   -1    0    0    0    0 -0.00000000000E+00 -0.00000000000E+00 -0.10000000000E+04  0.10000000000E+04  0.00000000000E+00 0.  1.
    9000005    2    1    2  501    0  0.11565230878E+03 -0.33482889722E+01 -0.81616096761E+03  0.10522729616E+04  0.65404357132E+03 0.  0.
         13    1    3    3    0    0  0.36837730137E+03  0.70439970685E+02 -0.33074326410E+03  0.50005472939E+03  0.00000000000E+00 0.  1.
          3    1    3    3  501    0 -0.25272499260E+03 -0.73788259657E+02 -0.48541770351E+03  0.55221823225E+03  0.00000000000E+00 0.  1.
         -1    1    1    2    0  502 -0.11565230878E+03  0.33482889722E+01 -0.14908719961E+02  0.11665735080E+03  0.00000000000E+00 0. -1.
<mgrwt>
<rscale>  1 0.66419851E+03</rscale>
<asrwt>0</asrwt>
<pdfrwt beam="1">  1       21 0.25989278E-01 0.66419851E+03</pdfrwt>
<pdfrwt beam="2">0</pdfrwt>
<totfact> 0.13482674E+03</totfact>
</mgrwt>
</event>
<event>
 6    1  0.1364923E-004  0.6516097E+03  0.7818608E-02  0.9803763E-01
         21   -1    0    0  501  502  0.00000000000E+00  0.00000000000E+00  0.44211778522E+03  0.44211778522E+03  0.00000000000E+00 0. -1.
         13   -1    0    0    0    0 -0.00000000000E+00 -0.00000000000E+00 -0.10000000000E+04  0.10000000000E+04  0.00000000000E+00 0.  1.
    9000005    2    1    2  501    0 -0.42741891306E+01  0.45732656510E+02 -0.89211353940E+03  0.11047451086E+04  0.64998880241E+03 0.  0.
         13    1    3    3    0    0  0.23059368944E+03  0.22724422926E+03 -0.63188423618E+03  0.70999371636E+03  0.00000000000E+00 0.  1.
          1    1    3    3  501    0 -0.23486787857E+03 -0.18151157275E+03 -0.26022930322E+03  0.39475139225E+03  0.00000000000E+00 0.  1.
         -3    1    1    2    0  502  0.42741891306E+01 -0.45732656510E+02  0.33423132462E+03  0.33737267661E+03  0.00000000000E+00 0. -1.
<mgrwt>
<rscale>  1 0.65160969E+03</rscale>
<asrwt>0</asrwt>
<pdfrwt beam="1">  1       21 0.68018119E-01 0.65160969E+03</pdfrwt>
<pdfrwt beam="2">0</pdfrwt>
<totfact> 0.17923120E+02</totfact>
</mgrwt>
</event>
<event>
 6    1  0.1364923E-004  0.6921342E+03  0.7818608E-02  0.9730779E-01
         21   -1    0    0  501  502  0.00000000000E+00  0.00000000000E+00  0.25822728478E+03  0.25822728478E+03  0.00000000000E+00 0.  1.
         13   -1    0    0    0    0 -0.00000000000E+00 -0.00000000000E+00 -0.10000000000E+04  0.10000000000E+04  0.00000000000E+00 0.  1.
    9000005    2    1    2  501    0  0.18548373039E+03  0.18584259516E+03 -0.71365337093E+03  0.99415838858E+03  0.64039681709E+03 0.  0.
         13    1    3    3    0    0  0.42316372417E+03  0.15815764341E+03 -0.43960630098E+03  0.63034520501E+03  0.00000000000E+00 0.  1.
          3    1    3    3  501    0 -0.23767999377E+03  0.27684951744E+02 -0.27404706995E+03  0.36381318357E+03  0.00000000000E+00 0.  1.
         -3    1    1    2    0  502 -0.18548373039E+03 -0.18584259516E+03 -0.28119344298E+02  0.26406889620E+03  0.00000000000E+00 0. -1.
<mgrwt>
<rscale>  1 0.69213421E+03</rscale>
<asrwt>0</asrwt>
<pdfrwt beam="1">  1       21 0.39727273E-01 0.69213421E+03</pdfrwt>
<pdfrwt beam="2">0</pdfrwt>
<totfact> 0.57095434E+02</totfact>
</mgrwt>
</event>
<event>
 6    1  0.1364923E-004  0.6477760E+03  0.7818608E-02  0.9810961E-01
         21   -1    0    0  501  502  0.00000000000E+00  0.00000000000E+00  0.48965475518E+03  0.48965475518E+03  0.00000000000E+00 0. -1.
         13   -1    0    0    0    0 -0.00000000000E+00 -0.00000000000E+00 -0.10000000000E+04  0.10000000000E+04  0.00000000000E+00 0.  1.
    9000005    2    1    2  501    0 -0.91931248095E+01 -0.41920621149E+02 -0.89377365065E+03  0.11038320052E+04  0.64635277136E+03 0.  0.
         13    1    3    3    0    0 -0.11247456167E+03  0.13835123615E+02  0.69828040232E+02  0.13310857549E+03  0.00000000000E+00 0.  1.
          3    1    3    3  501    0  0.10328143686E+03 -0.55755744764E+02 -0.96360169088E+03  0.97072342969E+03  0.00000000000E+00 0.  1.
         -3    1    1    2    0  502  0.91931248095E+01  0.41920621149E+02  0.38342840583E+03  0.38582275000E+03  0.00000000000E+00 0. -1.
<mgrwt>
<rscale>  1 0.64777601E+03</rscale>
<asrwt>0</asrwt>
<pdfrwt beam="1">  1       21 0.75331499E-01 0.64777601E+03</pdfrwt>
<pdfrwt beam="2">0</pdfrwt>
<totfact> 0.14206314E+02</totfact>
</mgrwt>
</event>
<event>
 6    1  0.1364923E-004  0.6267318E+03  0.7818608E-02  0.9851447E-01
         21   -1    0    0  501  502  0.00000000000E+00  0.00000000000E+00  0.15228730103E+03  0.15228730103E+03  0.00000000000E+00 0.  1.
         13   -1    0    0    0    0 -0.00000000000E+00 -0.00000000000E+00 -0.10000000000E+04  0.10000000000E+04  0.00000000000E+00 0.  1.
    9000005    2    1    2  501    0 -0.15306405641E+03  0.64960124733E+01 -0.66370128482E+03  0.91284836501E+03  0.60771863431E+03 0.  0.
         13    1    3    3    0    0 -0.25498062450E+03  0.23205665141E+03 -0.23308980762E+03  0.41616855569E+03  0.00000000000E+00 0.  1.
          3    1    3    3  501    0  0.10191656809E+03 -0.22556063893E+03 -0.43061147720E+03  0.49667980932E+03  0.00000000000E+00 0.  1.
         -1    1    1    2    0  502  0.15306405641E+03 -0.64960124733E+01 -0.18401141415E+03  0.23943893602E+03  0.00000000000E+00 0. -1.
<mgrwt>
<rscale>  1 0.62673179E+03</rscale>
<asrwt>0</asrwt>
<pdfrwt beam="1">  1       21 0.23428815E-01 0.62673179E+03</pdfrwt>
<pdfrwt beam="2">0</pdfrwt>
<totfact> 0.16549469E+03</totfact>
</mgrwt>
</event>
<event>
 6    1  0.1364923E-004  0.6515842E+03  0.7818608E-02  0.9803811E-01
         21   -1    0    0  501  502  0.00000000000E+00  0.00000000000E+00  0.28930157740E+03  0.28930157740E+03  0.00000000000E+00 0.  1.
         13   -1    0    0    0    0 -0.00000000000E+00 -0.00000000000E+00 -0.10000000000E+04  0.10000000000E+04  0.00000000000E+00 0.  1.
    9000005    2    1    2  501    0 -0.16297697956E+02  0.18693830284E+02 -0.89293035278E+03  0.11053897762E+04  0.65111202425E+03 0.  0.
         13    1    3    3    0    0  0.10203782413E+03  0.11691141391E+03 -0.93352671328E+03  0.94633615627E+03  0.00000000000E+00 0.  1.
          3    1    3    3  501    0 -0.11833552209E+03 -0.98217583623E+02  0.40596360501E+02  0.15905361991E+03  0.00000000000E+00 0.  1.
         -1    1    1    2    0  502  0.16297697956E+02 -0.18693830284E+02  0.18223193019E+03  0.18391180122E+03  0.00000000000E+00 0. -1.
<mgrwt>
<rscale>  1 0.65158418E+03</rscale>
<asrwt>0</asrwt>
<pdfrwt beam="1">  1       21 0.44507934E-01 0.65158418E+03</pdfrwt>
<pdfrwt beam="2">0</pdfrwt>
<totfact> 0.45162252E+02</totfact>
</mgrwt>
</event>
<event>
 6    1  0.1364923E-004  0.6613222E+03  0.7818608E-02  0.9785763E-01
         21   -1    0    0  501  502  0.00000000000E+00  0.00000000000E+00  0.20965358486E+03  0.20965358486E+03  0.00000000000E+00 0.  1.
         13   -1    0    0    0    0 -0.00000000000E+00 -0.00000000000E+00 -0.10000000000E+04  0.10000000000E+04  0.00000000000E+00 0.  1.
    9000005    2    1    2  501    0 -0.16208033133E+02 -0.64973621850E+02 -0.87809531906E+03  0.10992717838E+04  0.65792309076E+03 0.  0.
         13    1    3    3    0    0 -0.23408168740E+03 -0.27278608274E+03 -0.45117328870E+03  0.57685684511E+03  0.00000000000E+00 0.  1.
          1    1    3    3  501    0  0.21787365427E+03  0.20781246090E+03 -0.42692203036E+03  0.52241493866E+03  0.00000000000E+00 0.  1.
         -1    1    1    2    0  502  0.16208033133E+02  0.64973621850E+02  0.87748903922E+02  0.11038180110E+03  0.00000000000E+00 0. -1.
<mgrwt>
<rscale>  1 0.66132221E+03</rscale>
<asrwt>0</asrwt>
<pdfrwt beam="1">  1       21 0.32254397E-01 0.66132221E+03</pdfrwt>
<pdfrwt beam="2">0</pdfrwt>
<totfact> 0.87657193E+02</totfact>
</mgrwt>
</event>
<event>
 6    1  0.1364923E-004  0.6181488E+03  0.7818608E-02  0.9868452E-01
         21   -1    0    0  501  502  0.00000000000E+00  0.00000000000E+00  0.11158597066E+03  0.11158597066E+03  0.00000000000E+00 0.  1.
         13   -1    0    0    0    0 -0.00000000000E+00 -0.00000000000E+00 -0.10000000000E+04  0.10000000000E+04  0.00000000000E+00 0.  1.
    9000005    2    1    2  501    0 -0.25564518422E+02  0.12151556658E+00 -0.89253432714E+03  0.10856912565E+04  0.61761996399E+03 0.  0.
         13    1    3    3    0    0  0.50336816945E+02 -0.29116879182E+03 -0.30003054633E+03  0.42110733691E+03  0.00000000000E+00 0.  1.
          3    1    3    3  501    0 -0.75901335367E+02  0.29129030738E+03 -0.59250378081E+03  0.66458391958E+03  0.00000000000E+00 0.  1.
         -1    1    1    2    0  502  0.25564518422E+02 -0.12151556658E+00  0.41202977924E+01  0.25894714173E+02  0.00000000000E+00 0. -1.
<mgrwt>
<rscale>  1 0.61814883E+03</rscale>
<asrwt>0</asrwt>
<pdfrwt beam="1">  1       21 0.17167072E-01 0.61814883E+03</pdfrwt>
<pdfrwt beam="2">0</pdfrwt>
<totfact> 0.30044055E+03</totfact>
</mgrwt>
</event>
<event>
 6    1  0.1364923E-004  0.6899318E+03  0.7818608E-02  0.9734607E-01
         21   -1    0    0  501  502  0.00000000000E+00  0.00000000000E+00  0.40681286695E+03  0.40681286695E+03  0.00000000000E+00 0.  1.
         13   -1    0    0    0    0 -0.00000000000E+00 -0.00000000000E+00 -0.10000000000E+04  0.10000000000E+04  0.00000000000E+00 0.  1.
    9000005    2    1    2  501    0 -0.13133148092E+03  0.13717472052E+03 -0.84533789951E+03  0.10911471088E+04  0.66328047378E+03 0.  0.
         13    1    3    3    0    0  0.41915001960E+02  0.25477410782E+03 -0.84309465052E+03  0.88174560001E+03  0.00000000000E+00 0.  1.
          1    1    3    3  501    0 -0.17324648288E+03 -0.11759938730E+03 -0.22432489893E+01  0.20940150880E+03  0.00000000000E+00 0.  1.
         -1    1    1    2    0  502  0.13133148092E+03 -0.13717472052E+03  0.25215076646E+03  0.31566575813E+03  0.00000000000E+00 0. -1.
<mgrwt>
<rscale>  1 0.68993177E+03</rscale>
<asrwt>0</asrwt>
<pdfrwt beam="1">  1       21 0.62586593E-01 0.68993177E+03</pdfrwt>
<pdfrwt beam="2">0</pdfrwt>
<totfact> 0.21510593E+02</totfact>
</mgrwt>
</event>
<event>
 6    1  0.1364923E-004  0.6485566E+03  0.7818608E-02  0.9809491E-01
         21   -1    0    0  501  502  0.00000000000E+00  0.00000000000E+00  0.15018404306E+03  0.15018404306E+03  0.00000000000E+00 0.  1.
         13   -1    0    0    0    0 -0.00000000000E+00 -0.00000000000E+00 -0.10000000000E+04  0.10000000000E+04  0.00000000000E+00 0.  1.
    9000005    2    1    2  501    0  0.60450555201E+02 -0.16141522269E+02 -0.86936785113E+03  0.10846318125E+04  0.64553147850E+03 0.  0.
         13    1    3    3    0    0  0.27863793785E+03  0.17036433081E+03 -0.28452741675E+03  0.43315003925E+03  0.00000000000E+00 0.  1.
          3    1    3    3  501    0 -0.21818738265E+03 -0.18650585308E+03 -0.58484043438E+03  0.65148177324E+03  0.00000000000E+00 0.  1.
         -1    1    1    2    0  502 -0.60450555201E+02  0.16141522269E+02  0.19551894189E+02  0.65552230562E+02  0.00000000000E+00 0. -1.
<mgrwt>
<rscale>  1 0.64855663E+03</rscale>
<asrwt>0</asrwt>
<pdfrwt beam="1">  1       21 0.23105237E-01 0.64855663E+03</pdfrwt>
<pdfrwt beam="2">0</pdfrwt>
<totfact> 0.16985184E+03</totfact>
</mgrwt>
</event>
<event>
 6    1  0.1364923E-004  0.6781970E+03  0.7818608E-02  0.9755262E-01
         21   -1    0    0  501  502  0.00000000000E+00  0.00000000000E+00  0.20778213402E+03  0.20778213402E+03  0.00000000000E+00 0. -1.
         13   -1    0    0    0    0 -0.00000000000E+00 -0.00000000000E+00 -0.10000000000E+04  0.10000000000E+04  0.00000000000E+00 0.  1.
    9000005    2    1    2  501    0 -0.33838851883E+02 -0.12919971036E+02 -0.88105214724E+03  0.11118471400E+04  0.67722904769E+03 0.  0.
         13    1    3    3    0    0 -0.34283115274E+03  0.96612466026E+00 -0.30902801964E+03  0.46155438424E+03  0.00000000000E+00 0.  1.
          1    1    3    3  501    0  0.30899230086E+03 -0.13886095696E+02 -0.57202412760E+03  0.65029275577E+03  0.00000000000E+00 0.  1.
         -1    1    1    2    0  502  0.33838851883E+02  0.12919971036E+02  0.88834281265E+02  0.95934994013E+02  0.00000000000E+00 0. -1.
<mgrwt>
<rscale>  1 0.67819700E+03</rscale>
<asrwt>0</asrwt>
<pdfrwt beam="1">  1       21 0.31966481E-01 0.67819700E+03</pdfrwt>
<pdfrwt beam="2">0</pdfrwt>
<totfact> 0.89160420E+02</totfact>
</mgrwt>
</event>
<event>
 6    1  0.1364923E-004  0.6492203E+03  0.7818608E-02  0.9808243E-01
         21   -1    0    0  501  502  0.00000000000E+00  0.00000000000E+00  0.11465793238E+03  0.11465793238E+03  0.00000000000E+00 0.  1.
         13   -1    0    0    0    0 -0.00000000000E+00 -0.00000000000E+00 -0.10000000000E+04  0.10000000000E+04  0.00000000000E+00 0.  1.
    9000005    2    1    2  501    0 -0.12491254843E+02 -0.22051567826E+02 -0.86806620704E+03  0.10839861465E+04  0.64872546034E+03 0.  0.
         13    1    3    3    0    0  0.23167164068E+03  0.18280533922E+03 -0.24271860640E+03  0.38210190138E+03  0.00000000000E+00 0.  1.
          1    1    3    3  501    0 -0.24416289552E+03 -0.20485690705E+03 -0.62534760064E+03  0.70188424511E+03  0.00000000000E+00 0.  1.
         -1    1    1    2    0  502  0.12491254843E+02  0.22051567826E+02 -0.17275860578E+02  0.30671785893E+02  0.00000000000E+00 0. -1.
<mgrwt>
<rscale>  1 0.64922032E+03</rscale>
<asrwt>0</asrwt>
<pdfrwt beam="1">  1       21 0.17639681E-01 0.64922032E+03</pdfrwt>
<pdfrwt beam="2">0</pdfrwt>
<totfact> 0.28511542E+03</totfact>
</mgrwt>
</event>
<event>
 6    1  0.1364923E-004  0.6542228E+03  0.7818608E-02  0.9798887E-01
         21   -1    0    0  501  502  0.00000000000E+00  0.00000000000E+00  0.19635740706E+03  0.19635740706E+03  0.00000000000E+00 0. -1.
         13   -1    0    0    0    0 -0.00000000000E+00 -0.00000000000E+00 -0.10000000000E+04  0.10000000000E+04  0.00000000000E+00 0.  1.
    9000005    2    1    2  501    0  0.12304997054E+02  0.11761994613E+03 -0.84713805101E+03  0.10703505836E+04  0.64344512566E+03 0.  0.
         13    1    3    3    0    0 -0.24656732403E+03  0.25774600667E+03 -0.41136392598E+03  0.54447105417E+03  0.00000000000E+00 0.  1.
          1    1    3    3  501    0  0.25887232108E+03 -0.14012606054E+03 -0.43577412502E+03  0.52587952946E+03  0.00000000000E+00 0.  1.
         -3    1    1    2    0  502 -0.12304997054E+02 -0.11761994613E+03  0.43495458071E+02  0.12600682343E+03  0.00000000000E+00 0. -1.
<mgrwt>
<rscale>  1 0.65422282E+03</rscale>
<asrwt>0</asrwt>
<pdfrwt beam="1">  1       21 0.30208831E-01 0.65422282E+03</pdfrwt>
<pdfrwt beam="2">0</pdfrwt>
<totfact> 0.10005268E+03</totfact>
</mgrwt>
</event>
<event>
 6    1  0.1364923E-004  0.6020213E+03  0.7818608E-02  0.9901221E-01
         21   -1    0    0  501  502  0.00000000000E+00  0.00000000000E+00  0.26257650492E+03  0.26257650492E+03  0.00000000000E+00 0. -1.
         13   -1    0    0    0    0 -0.00000000000E+00 -0.00000000000E+00 -0.10000000000E+04  0.10000000000E+04  0.00000000000E+00 0.  1.
    9000005    2    1    2  501    0 -0.36462327069E+02  0.52048953136E+02 -0.90296629285E+03  0.10852547276E+04  0.59865775110E+03 0.  0.
         13    1    3    3    0    0  0.13082453603E+03  0.25665569599E+03 -0.25221611350E+03  0.38288402085E+03  0.00000000000E+00 0.  1.
          1    1    3    3  501    0 -0.16728686310E+03 -0.20460674285E+03 -0.65075017935E+03  0.70237070675E+03  0.00000000000E+00 0.  1.
         -3    1    1    2    0  502  0.36462327069E+02 -0.52048953136E+02  0.16554279776E+03  0.17732177731E+03  0.00000000000E+00 0. -1.
<mgrwt>
<rscale>  1 0.60202134E+03</rscale>
<asrwt>0</asrwt>
<pdfrwt beam="1">  1       21 0.40396384E-01 0.60202134E+03</pdfrwt>
<pdfrwt beam="2">0</pdfrwt>
<totfact> 0.55554850E+02</totfact>
</mgrwt>
</event>
<event>
 6    1  0.1364923E-004  0.6621583E+03  0.7818608E-02  0.9784229E-01
         21   -1    0    0  501  502  0.00000000000E+00  0.00000000000E+00  0.31482646740E+03  0.31482646740E+03  0.00000000000E+00 0. -1.
         13   -1    0    0    0    0 -0.00000000000E+00 -0.00000000000E+00 -0.10000000000E+04  0.10000000000E+04  0.00000000000E+00 0.  1.
    9000005    2    1    2  501    0  0.52414685548E+01 -0.84671599480E+02 -0.88060318119E+03  0.11017783501E+04  0.65670146735E+03 0.  0.
         13    1    3    3    0    0  0.10928900286E+03 -0.35430106199E+03 -0.54074362326E+03  0.65565005512E+03  0.00000000000E+00 0.  1.
          1    1    3    3  501    0 -0.10404753430E+03  0.26962946251E+03 -0.33985955792E+03  0.44612829495E+03  0.00000000000E+00 0.  1.
         -3    1    1    2    0  502 -0.52414685548E+01  0.84671599480E+02  0.19542964859E+03  0.21304811733E+03  0.00000000000E+00 0. -1.
<mgrwt>
<rscale>  1 0.66215827E+03</rscale>
<asrwt>0</asrwt>
<pdfrwt beam="1">  1       21 0.48434840E-01 0.66215827E+03</pdfrwt>
<pdfrwt beam="2">0</pdfrwt>
<totfact> 0.37711699E+02</totfact>
</mgrwt>
</event>
<event>
 6    1  0.1364923E-004  0.7083893E+03  0.7818608E-02  0.9702992E-01
         21   -1    0    0  501  502  0.00000000000E+00  0.00000000000E+00  0.30641170201E+03  0.30641170201E+03  0.00000000000E+00 0. -1.
         13   -1    0    0    0    0 -0.00000000000E+00 -0.00000000000E+00 -0.10000000000E+04  0.10000000000E+04  0.00000000000E+00 0.  1.
    9000005    2    1    2  501    0  0.24668479693E+03  0.89764892555E+02 -0.75658040814E+03  0.10364503512E+04  0.65795462733E+03 0.  0.
         13    1    3    3    0    0  0.40219352149E+03  0.13824362347E+03 -0.76290393647E+03  0.87343765916E+03  0.00000000000E+00 0.  1.
          3    1    3    3  501    0 -0.15550872457E+03 -0.48478730911E+02  0.63235283292E+01  0.16301269208E+03  0.00000000000E+00 0.  1.
         -3    1    1    2    0  502 -0.24668479693E+03 -0.89764892555E+02  0.62992110142E+02  0.26996135077E+03  0.00000000000E+00 0. -1.
<mgrwt>
<rscale>  1 0.70838931E+03</rscale>
<asrwt>0</asrwt>
<pdfrwt beam="1">  1       21 0.47140260E-01 0.70838931E+03</pdfrwt>
<pdfrwt beam="2">0</pdfrwt>
<totfact> 0.39791485E+02</totfact>
</mgrwt>
</event>
<event>
 6    1  0.1364923E-004  0.6368644E+03  0.7818608E-02  0.9831744E-01
         21   -1    0    0  501  502  0.00000000000E+00  0.00000000000E+00  0.19345922196E+03  0.19345922196E+03  0.00000000000E+00 0.  1.
         13   -1    0    0    0    0 -0.00000000000E+00 -0.00000000000E+00 -0.10000000000E+04  0.10000000000E+04  0.00000000000E+00 0.  1.
    9000005    2    1    2  501    0 -0.55420049115E+01  0.25679935837E+02 -0.89653198427E+03  0.10997117413E+04  0.63632235724E+03 0.  0.
         13    1    3    3    0    0  0.27925905920E+03  0.15993724946E+03 -0.46654288363E+03  0.56676962531E+03  0.00000000000E+00 0.  1.
          3    1    3    3  501    0 -0.28480106411E+03 -0.13425731362E+03 -0.42998910063E+03  0.53294211604E+03  0.00000000000E+00 0.  1.
         -1    1    1    2    0  502  0.55420049115E+01 -0.25679935837E+02  0.89991206221E+02  0.93747480607E+02  0.00000000000E+00 0. -1.
<mgrwt>
<rscale>  1 0.63686444E+03</rscale>
<asrwt>0</asrwt>
<pdfrwt beam="1">  1       21 0.29762956E-01 0.63686444E+03</pdfrwt>
<pdfrwt beam="2">0</pdfrwt>
<totfact> 0.10318863E+03</totfact>
</mgrwt>
</event>
<event>
 6    1  0.1364923E-004  0.6742240E+03  0.7818608E-02  0.9762357E-01
         21   -1    0    0  501  502  0.00000000000E+00  0.00000000000E+00  0.40131443519E+03  0.40131443519E+03  0.00000000000E+00 0. -1.
         13   -1    0    0    0    0 -0.00000000000E+00 -0.00000000000E+00 -0.10000000000E+04  0.10000000000E+04  0.00000000000E+00 0.  1.
    9000005    2    1    2  501    0  0.24441026865E+02  0.31264233769E+02 -0.88483034692E+03  0.11124309770E+04  0.67305506429E+03 0.  0.
         13    1    3    3    0    0 -0.18172414538E+03  0.23621898841E+03 -0.17555976767E+03  0.34589638265E+03  0.00000000000E+00 0.  1.
          3    1    3    3  501    0  0.20616517225E+03 -0.20495475465E+03 -0.70927057925E+03  0.76653459432E+03  0.00000000000E+00 0.  1.
         -1    1    1    2    0  502 -0.24441026865E+02 -0.31264233769E+02  0.28614478211E+03  0.28888345822E+03  0.00000000000E+00 0. -1.
<mgrwt>
<rscale>  1 0.67422395E+03</rscale>
<asrwt>0</asrwt>
<pdfrwt beam="1">  1       21 0.61740681E-01 0.67422395E+03</pdfrwt>
<pdfrwt beam="2">0</pdfrwt>
<totfact> 0.22208887E+02</totfact>
</mgrwt>
</event>
<event>
 6    1  0.1364923E-004  0.6658695E+03  0.7818608E-02  0.9777449E-01
         21   -1    0    0  501  502  0.00000000000E+00  0.00000000000E+00  0.12574922726E+03  0.12574922726E+03  0.00000000000E+00 0.  1.
         13   -1    0    0    0    0 -0.00000000000E+00 -0.00000000000E+00 -0.10000000000E+04  0.10000000000E+04  0.00000000000E+00 0.  1.
    9000005    2    1    2  501    0 -0.29473253241E+02 -0.26662951990E+02 -0.84770829078E+03  0.10779570834E+04  0.66468228632E+03 0.  0.
         13    1    3    3    0    0  0.95410690837E+02 -0.32094638775E+03 -0.33423765635E+03  0.47310104064E+03  0.00000000000E+00 0.  1.
          3    1    3    3  501    0 -0.12488394408E+03  0.29428343576E+03 -0.51347063443E+03  0.60485604276E+03  0.00000000000E+00 0.  1.
         -1    1    1    2    0  502  0.29473253241E+02  0.26662951990E+02 -0.26542481966E+02  0.47792143856E+02  0.00000000000E+00 0. -1.
<mgrwt>
<rscale>  1 0.66586945E+03</rscale>
<asrwt>0</asrwt>
<pdfrwt beam="1">  1       21 0.19346034E-01 0.66586945E+03</pdfrwt>
<pdfrwt beam="2">0</pdfrwt>
<totfact> 0.23903471E+03</totfact>
</mgrwt>
</event>
<event>
 6    1  0.1364923E-004  0.6496471E+03  0.7818608E-02  0.9807442E-01
         21   -1    0    0  501  502  0.00000000000E+00  0.00000000000E+00  0.22192507382E+03  0.22192507382E+03  0.00000000000E+00 0. -1.
         13   -1    0    0    0    0 -0.00000000000E+00 -0.00000000000E+00 -0.10000000000E+04  0.10000000000E+04  0.00000000000E+00 0.  1.
    9000005    2    1    2  501    0 -0.18970334141E+02 -0.49577354917E+02 -0.88775877553E+03  0.11000713315E+04  0.64747471245E+03 0.  0.
         13    1    3    3    0    0  0.25002666500E+03 -0.53147703386E+02 -0.11215285448E+03  0.27913486768E+03  0.00000000000E+00 0.  1.
          3    1    3    3  501    0 -0.26899699914E+03  0.35703484691E+01 -0.77560592105E+03  0.82093646386E+03  0.00000000000E+00 0.  1.
         -3    1    1    2    0  502  0.18970334141E+02  0.49577354917E+02  0.10968384935E+03  0.12185374228E+03  0.00000000000E+00 0. -1.
<mgrwt>
<rscale>  1 0.64964705E+03</rscale>
<asrwt>0</asrwt>
<pdfrwt beam="1">  1       21 0.34142318E-01 0.64964705E+03</pdfrwt>
<pdfrwt beam="2">0</pdfrwt>
<totfact> 0.78177196E+02</totfact>
</mgrwt>
</event>
<event>
 6    1  0.1364923E-004  0.6565890E+03  0.7818608E-02  0.9794493E-01
         21   -1    0    0  501  502  0.00000000000E+00  0.00000000000E+00  0.17158763845E+03  0.17158763845E+03  0.00000000000E+00 0. -1.
         13   -1    0    0    0    0 -0.00000000000E+00 -0.00000000000E+00 -0.10000000000E+04  0.10000000000E+04  0.00000000000E+00 0.  1.
    9000005    2    1    2  501    0 -0.69005946274E+02  0.52711060198E+02 -0.85750306287E+03  0.10800095549E+04  0.65082168010E+03 0.  0.
         13    1    3    3    0    0 -0.29180168060E+03 -0.17285206072E+03 -0.46179181768E+03  0.57295526751E+03  0.00000000000E+00 0.  1.
          1    1    3    3  501    0  0.22279573433E+03  0.22556312092E+03 -0.39571124520E+03  0.50705428736E+03  0.00000000000E+00 0.  1.
         -3    1    1    2    0  502  0.69005946274E+02 -0.52711060198E+02  0.29090701325E+02  0.91578083579E+02  0.00000000000E+00 0. -1.
<mgrwt>
<rscale>  1 0.65658902E+03</rscale>
<asrwt>0</asrwt>
<pdfrwt beam="1">  1       21 0.26398097E-01 0.65658902E+03</pdfrwt>
<pdfrwt beam="2">0</pdfrwt>
<totfact> 0.13079699E+03</totfact>
</mgrwt>
</event>
<event>
 6    1  0.1364923E-004  0.6450670E+03  0.7818608E-02  0.9816080E-01
         21   -1    0    0  501  502  0.00000000000E+00  0.00000000000E+00  0.27090825247E+03  0.27090825247E+03  0.00000000000E+00 0. -1.
         13   -1    0    0    0    0 -0.00000000000E+00 -0.00000000000E+00 -0.10000000000E+04  0.10000000000E+04  0.00000000000E+00 0.  1.
    9000005    2    1    2  501    0 -0.20072410750E+02  0.34097954778E+02 -0.89337841772E+03  0.11019239864E+04  0.64385239168E+03 0.  0.
         13    1    3    3    0    0  0.20529695343E+03 -0.21303854929E+03 -0.53747187339E+03  0.61352121174E+03  0.00000000000E+00 0.  1.
          1    1    3    3  501    0 -0.22536936418E+03  0.24713650407E+03 -0.35590654433E+03  0.48840277461E+03  0.00000000000E+00 0.  1.
         -1    1    1    2    0  502  0.20072410750E+02 -0.34097954778E+02  0.16428667019E+03  0.16898426612E+03  0.00000000000E+00 0. -1.
<mgrwt>
<rscale>  1 0.64506703E+03</rscale>
<asrwt>0</asrwt>
<pdfrwt beam="1">  1       21 0.41678191E-01 0.64506703E+03</pdfrwt>
<pdfrwt beam="2">0</pdfrwt>
<totfact> 0.51864441E+02</totfact>
</mgrwt>
</event>
<event>
 6    1  0.1364923E-004  0.6378964E+03  0.7818608E-02  0.9829760E-01
         21   -1    0    0  501  502  0.00000000000E+00  0.00000000000E+00  0.29332442087E+03  0.29332442087E+03  0.00000000000E+00 0. -1.
         13   -1    0    0    0    0 -0.00000000000E+00 -0.00000000000E+00 -0.10000000000E+04  0.10000000000E+04  0.00000000000E+00 0.  1.
    9000005    2    1    2  501    0 -0.33756689382E+02  0.36473897578E+01 -0.89661322759E+03  0.11003759100E+04  0.63699218673E+03 0.  0.
         13    1    3    3    0    0  0.26557984421E+03  0.87169360782E+01 -0.68223267687E+03  0.73215439902E+03  0.00000000000E+00 0.  1.
          3    1    3    3  501    0 -0.29933653359E+03 -0.50695463204E+01 -0.21438055073E+03  0.36822151101E+03  0.00000000000E+00 0.  1.
         -1    1    1    2    0  502  0.33756689382E+02 -0.36473897578E+01  0.18993764846E+03  0.19294851083E+03  0.00000000000E+00 0. -1.
<mgrwt>
<rscale>  1 0.63789644E+03</rscale>
<asrwt>0</asrwt>
<pdfrwt beam="1">  1       21 0.45126833E-01 0.63789644E+03</pdfrwt>
<pdfrwt beam="2">0</pdfrwt>
<totfact> 0.43919039E+02</totfact>
</mgrwt>
</event>
<event>
 6    1  0.1364923E-004  0.6589740E+03  0.7818608E-02  0.9790084E-01
         21   -1    0    0  501  502  0.00000000000E+00  0.00000000000E+00  0.24989943945E+03  0.24989943945E+03  0.00000000000E+00 0.  1.
         13   -1    0    0    0    0 -0.00000000000E+00 -0.00000000000E+00 -0.10000000000E+04  0.10000000000E+04  0.00000000000E+00 0.  1.
    9000005    2    1    2  501    0  0.10727575345E+03 -0.42242967007E+02 -0.86480891527E+03  0.10872631514E+04  0.64880979105E+03 0.  0.
         13    1    3    3    0    0  0.31612554419E+03  0.17190629062E+03 -0.47097778237E+03  0.59271173763E+03  0.00000000000E+00 0.  1.
          3    1    3    3  501    0 -0.20884979074E+03 -0.21414925763E+03 -0.39383113291E+03  0.49455141379E+03  0.00000000000E+00 0.  1.
         -3    1    1    2    0  502 -0.10727575345E+03  0.42242967007E+02  0.11470835473E+03  0.16263628803E+03  0.00000000000E+00 0. -1.
<mgrwt>
<rscale>  1 0.65897398E+03</rscale>
<asrwt>0</asrwt>
<pdfrwt beam="1">  1       21 0.38446067E-01 0.65897398E+03</pdfrwt>
<pdfrwt beam="2">0</pdfrwt>
<totfact> 0.61259690E+02</totfact>
</mgrwt>
</event>
<event>
 6    1  0.1364923E-004  0.6481413E+03  0.7818608E-02  0.9810273E-01
         21   -1    0    0  501  502  0.00000000000E+00  0.00000000000E+00  0.18370581648E+03  0.18370581648E+03  0.00000000000E+00 0. -1.
         13   -1    0    0    0    0 -0.00000000000E+00 -0.00000000000E+00 -0.10000000000E+04  0.10000000000E+04  0.00000000000E+00 0.  1.
    9000005    2    1    2  501    0 -0.11229104698E+03 -0.58252262586E+01 -0.84757729222E+03  0.10669931549E+04  0.63831333508E+03 0.  0.
         13    1    3    3    0    0  0.24196973942E+03 -0.50760664927E+02 -0.54682115177E+03  0.60011613203E+03  0.00000000000E+00 0.  1.
          3    1    3    3  501    0 -0.35426078640E+03  0.44935438668E+02 -0.30075614045E+03  0.46687702283E+03  0.00000000000E+00 0.  1.
         -1    1    1    2    0  502  0.11229104698E+03  0.58252262586E+01  0.31283108706E+02  0.11671266162E+03  0.00000000000E+00 0. -1.
<mgrwt>
<rscale>  1 0.64814129E+03</rscale>
<asrwt>0</asrwt>
<pdfrwt beam="1">  1       21 0.28262432E-01 0.64814129E+03</pdfrwt>
<pdfrwt beam="2">0</pdfrwt>
<totfact> 0.11432009E+03</totfact>
</mgrwt>
</event>
<event>
 6    1  0.1364923E-004  0.6591207E+03  0.7818608E-02  0.9789814E-01
         21   -1    0    0  501  502  0.00000000000E+00  0.00000000000E+00  0.14776222181E+03  0.14776222181E+03  0.00000000000E+00 0.  1.
         13   -1    0    0    0    0 -0.00000000000E+00 -0.00000000000E+00 -0.10000000000E+04  0.10000000000E+04  0.00000000000E+00 0.  1.
    9000005    2    1    2  501    0  0.39587841999E+02 -0.38566060885E+02 -0.86837146567E+03  0.10901876253E+04  0.65679945021E+03 0.  0.
         13    1    3    3    0    0 -0.22159936690E+03  0.40539107827E+02 -0.76645239252E+03  0.79887356238E+03  0.00000000000E+00 0.  1.
          1    1    3    3  501    0  0.26118720890E+03 -0.79105168713E+02 -0.10191907315E+03  0.29131406297E+03  0.00000000000E+00 0.  1.
         -1    1    1    2    0  502 -0.39587841999E+02  0.38566060885E+02  0.16133687483E+02  0.57574596465E+02  0.00000000000E+00 0. -1.
<mgrwt>
<rscale>  1 0.65912067E+03</rscale>
<asrwt>0</asrwt>
<pdfrwt beam="1">  1       21 0.22732649E-01 0.65912067E+03</pdfrwt>
<pdfrwt beam="2">0</pdfrwt>
<totfact> 0.17521673E+03</totfact>
</mgrwt>
</event>
<event>
 6    1  0.1364923E-004  0.4671208E+03  0.7818608E-02  0.1022736E+00
         21   -1    0    0  501  502  0.00000000000E+00  0.00000000000E+00  0.71972115840E+02  0.71972115840E+02  0.00000000000E+00 0.  1.
         13   -1    0    0    0    0 -0.00000000000E+00 -0.00000000000E+00 -0.10000000000E+04  0.10000000000E+04  0.00000000000E+00 0.  1.
    9000005    2    1    2  501    0  0.10027478725E+02 -0.31144977010E+02 -0.92835388500E+03  0.10392510798E+04  0.46597350909E+03 0.  0.
         13    1    3    3    0    0  0.18072270776E+03 -0.14577404383E+03 -0.66983138745E+03  0.70893219462E+03  0.00000000000E+00 0.  1.
          3    1    3    3  501    0 -0.17069522903E+03  0.11462906682E+03 -0.25852249755E+03  0.33031888519E+03  0.00000000000E+00 0.  1.
         -3    1    1    2    0  502 -0.10027478725E+02  0.31144977010E+02  0.32600083522E+00  0.32721036033E+02  0.00000000000E+00 0. -1.
<mgrwt>
<rscale>  1 0.46712083E+03</rscale>
<asrwt>0</asrwt>
<pdfrwt beam="1">  1       21 0.11072633E-01 0.46712083E+03</pdfrwt>
<pdfrwt beam="2">0</pdfrwt>
<totfact> 0.67813459E+03</totfact>
</mgrwt>
</event>
<event>
 6    1  0.1364923E-004  0.6563896E+03  0.7818608E-02  0.9794863E-01
         21   -1    0    0  501  502  0.00000000000E+00  0.00000000000E+00  0.25993688334E+03  0.25993688334E+03  0.00000000000E+00 0. -1.
         13   -1    0    0    0    0 -0.00000000000E+00 -0.00000000000E+00 -0.10000000000E+04  0.10000000000E+04  0.00000000000E+00 0.  1.
    9000005    2    1    2  501    0  0.13321269844E+03 -0.21229373215E+02 -0.85832625139E+03  0.10805421277E+04  0.64237919224E+03 0.  0.
         13    1    3    3    0    0  0.20341855503E+03  0.24342816061E+03 -0.22024089999E+03  0.38618963209E+03  0.00000000000E+00 0.  1.
          1    1    3    3  501    0 -0.70205856590E+02 -0.26465753382E+03 -0.63808535140E+03  0.69435249562E+03  0.00000000000E+00 0.  1.
         -1    1    1    2    0  502 -0.13321269844E+03  0.21229373215E+02  0.11826313473E+03  0.17939475563E+03  0.00000000000E+00 0. -1.
<mgrwt>
<rscale>  1 0.65638962E+03</rscale>
<asrwt>0</asrwt>
<pdfrwt beam="1">  1       21 0.39990289E-01 0.65638962E+03</pdfrwt>
<pdfrwt beam="2">0</pdfrwt>
<totfact> 0.56475141E+02</totfact>
</mgrwt>
</event>
<event>
 6    1  0.1364923E-004  0.6515622E+03  0.7818608E-02  0.9803852E-01
         21   -1    0    0  501  502  0.00000000000E+00  0.00000000000E+00  0.73119729979E+03  0.73119729979E+03  0.00000000000E+00 0. -1.
         13   -1    0    0    0    0 -0.00000000000E+00 -0.00000000000E+00 -0.10000000000E+04  0.10000000000E+04  0.00000000000E+00 0.  1.
    9000005    2    1    2  501    0 -0.44370004232E+02 -0.41660664543E+02 -0.89222719931E+03  0.11048089104E+04  0.64871337672E+03 0.  0.
         13    1    3    3    0    0  0.16159848720E+03  0.24752259866E+03 -0.43475655624E+03  0.52573260419E+03  0.00000000000E+00 0.  1.
          3    1    3    3  501    0 -0.20596849143E+03 -0.28918326320E+03 -0.45747064307E+03  0.57907630624E+03  0.00000000000E+00 0.  1.
         -3    1    1    2    0  502  0.44370004232E+02  0.41660664543E+02  0.62342449910E+03  0.62638838936E+03  0.00000000000E+00 0. -1.
<mgrwt>
<rscale>  1 0.65156224E+03</rscale>
<asrwt>0</asrwt>
<pdfrwt beam="1">  1       21 0.11249189E+00 0.65156224E+03</pdfrwt>
<pdfrwt beam="2">0</pdfrwt>
<totfact> 0.54091200E+01</totfact>
</mgrwt>
</event>
<event>
 6    1  0.1364923E-004  0.7649745E+03  0.7818608E-02  0.9612146E-01
         21   -1    0    0  501  502  0.00000000000E+00  0.00000000000E+00  0.11359155046E+04  0.11359155046E+04  0.00000000000E+00 0. -1.
         13   -1    0    0    0    0 -0.00000000000E+00 -0.00000000000E+00 -0.10000000000E+04  0.10000000000E+04  0.00000000000E+00 0.  1.
    9000005    2    1    2  501    0 -0.13700218134E+02  0.39299685312E+03 -0.80841680888E+03  0.11129796607E+04  0.65616443489E+03 0.  0.
         13    1    3    3    0    0  0.21456889661E+03 -0.71816307427E+01 -0.53686306794E+03  0.57819835777E+03  0.00000000000E+00 0.  1.
          1    1    3    3  501    0 -0.22826911475E+03  0.40017848386E+03 -0.27155374094E+03  0.53478130288E+03  0.00000000000E+00 0.  1.
         -1    1    1    2    0  502  0.13700218134E+02 -0.39299685312E+03  0.94433231346E+03  0.10229358439E+04  0.00000000000E+00 0. -1.
<mgrwt>
<rscale>  1 0.76497450E+03</rscale>
<asrwt>0</asrwt>
<pdfrwt beam="1">  1       21 0.17475623E+00 0.76497450E+03</pdfrwt>
<pdfrwt beam="2">0</pdfrwt>
<totfact> 0.16103669E+01</totfact>
</mgrwt>
</event>
<event>
 6    1  0.1364923E-004  0.6676355E+03  0.7818608E-02  0.9774239E-01
         21   -1    0    0  501  502  0.00000000000E+00  0.00000000000E+00  0.12452966599E+03  0.12452966599E+03  0.00000000000E+00 0.  1.
         13   -1    0    0    0    0 -0.00000000000E+00 -0.00000000000E+00 -0.10000000000E+04  0.10000000000E+04  0.00000000000E+00 0.  1.
    9000005    2    1    2  501    0 -0.12748392541E+02 -0.16362267201E+02 -0.87867323508E+03  0.11035414818E+04  0.66731319687E+03 0.  0.
         13    1    3    3    0    0  0.14764617031E+03 -0.71549714563E+02  0.40380692380E+02  0.16896553961E+03  0.00000000000E+00 0.  1.
          1    1    3    3  501    0 -0.16039456285E+03  0.55187447361E+02 -0.91905392746E+03  0.93457594219E+03  0.00000000000E+00 0.  1.
         -3    1    1    2    0  502  0.12748392541E+02  0.16362267201E+02  0.32029010674E+01  0.20988184190E+02  0.00000000000E+00 0. -1.
<mgrwt>
<rscale>  1 0.66763549E+03</rscale>
<asrwt>0</asrwt>
<pdfrwt beam="1">  1       21 0.19158410E-01 0.66763549E+03</pdfrwt>
<pdfrwt beam="2">0</pdfrwt>
<totfact> 0.24351438E+03</totfact>
</mgrwt>
</event>
<event>
 6    1  0.1364923E-004  0.6786663E+03  0.7818608E-02  0.9754428E-01
         21   -1    0    0  501  502  0.00000000000E+00  0.00000000000E+00  0.14917373556E+03  0.14917373556E+03  0.00000000000E+00 0.  1.
         13   -1    0    0    0    0 -0.00000000000E+00 -0.00000000000E+00 -0.10000000000E+04  0.10000000000E+04  0.00000000000E+00 0.  1.
    9000005    2    1    2  501    0 -0.34457056409E+02  0.33500845632E+02 -0.86463291824E+03  0.10991715448E+04  0.67696263274E+03 0.  0.
         13    1    3    3    0    0 -0.75520700266E+02  0.10891754486E+03 -0.96099961267E+03  0.97009621342E+03  0.00000000000E+00 0.  1.
          3    1    3    3  501    0  0.41063643857E+02 -0.75416699230E+02  0.96366694422E+02  0.12907533135E+03  0.00000000000E+00 0.  1.
         -3    1    1    2    0  502  0.34457056409E+02 -0.33500845632E+02  0.13806653806E+02  0.50002190790E+02  0.00000000000E+00 0. -1.
<mgrwt>
<rscale>  1 0.67866634E+03</rscale>
<asrwt>0</asrwt>
<pdfrwt beam="1">  1       21 0.22949805E-01 0.67866634E+03</pdfrwt>
<pdfrwt beam="2">0</pdfrwt>
<totfact> 0.17185597E+03</totfact>
</mgrwt>
</event>
<event>
 6    1  0.1364923E-004  0.6642594E+03  0.7818608E-02  0.9780384E-01
         21   -1    0    0  501  502  0.00000000000E+00  0.00000000000E+00  0.26782527470E+03  0.26782527470E+03  0.00000000000E+00 0. -1.
         13   -1    0    0    0    0 -0.00000000000E+00 -0.00000000000E+00 -0.10000000000E+04  0.10000000000E+04  0.00000000000E+00 0.  1.
    9000005    2    1    2  501    0 -0.40944784514E+02  0.11402234054E+03 -0.86331388249E+03  0.10892894294E+04  0.65311793093E+03 0.  0.
         13    1    3    3    0    0 -0.31201141265E+03  0.21592660812E+01 -0.66708348468E+03  0.73644834142E+03  0.00000000000E+00 0.  1.
          3    1    3    3  501    0  0.27106662813E+03  0.11186307446E+03 -0.19623039781E+03  0.35284108794E+03  0.00000000000E+00 0.  1.
         -3    1    1    2    0  502  0.40944784514E+02 -0.11402234054E+03  0.13113915720E+03  0.17853584534E+03  0.00000000000E+00 0. -1.
<mgrwt>
<rscale>  1 0.66425944E+03</rscale>
<asrwt>0</asrwt>
<pdfrwt beam="1">  1       21 0.41203887E-01 0.66425944E+03</pdfrwt>
<pdfrwt beam="2">0</pdfrwt>
<totfact> 0.53034170E+02</totfact>
</mgrwt>
</event>
<event>
 6    1  0.1364923E-004  0.6501478E+03  0.7818608E-02  0.9806502E-01
         21   -1    0    0  501  502  0.00000000000E+00  0.00000000000E+00  0.11676438552E+03  0.11676438552E+03  0.00000000000E+00 0.  1.
         13   -1    0    0    0    0 -0.00000000000E+00 -0.00000000000E+00 -0.10000000000E+04  0.10000000000E+04  0.00000000000E+00 0.  1.
    9000005    2    1    2  501    0  0.12373035076E+02 -0.17109199955E+02 -0.88184868261E+03  0.10956045108E+04  0.64980483859E+03 0.  0.
         13    1    3    3    0    0  0.13011947283E+03 -0.64746521048E+02  0.51091888695E+02  0.15405703583E+03  0.00000000000E+00 0.  1.
          3    1    3    3  501    0 -0.11774643776E+03  0.47637321093E+02 -0.93294057130E+03  0.94154747493E+03  0.00000000000E+00 0.  1.
         -1    1    1    2    0  502 -0.12373035076E+02  0.17109199955E+02 -0.13869318681E+01  0.21159874766E+02  0.00000000000E+00 0. -1.
<mgrwt>
<rscale>  1 0.65014779E+03</rscale>
<asrwt>0</asrwt>
<pdfrwt beam="1">  1       21 0.17963751E-01 0.65014779E+03</pdfrwt>
<pdfrwt beam="2">0</pdfrwt>
<totfact> 0.27543546E+03</totfact>
</mgrwt>
</event>
<event>
 6    1  0.1364923E-004  0.6249856E+03  0.7818608E-02  0.9854883E-01
         21   -1    0    0  501  502  0.00000000000E+00  0.00000000000E+00  0.60419485400E+03  0.60419485400E+03  0.00000000000E+00 0. -1.
         13   -1    0    0    0    0 -0.00000000000E+00 -0.00000000000E+00 -0.10000000000E+04  0.10000000000E+04  0.00000000000E+00 0.  1.
    9000005    2    1    2  501    0  0.39443721186E+03  0.29545102534E+02 -0.81552320501E+03  0.10274653886E+04  0.48389399634E+03 0.  0.
         13    1    3    3    0    0  0.19043572862E+03  0.90912976239E+02 -0.78425670398E+03  0.81215116433E+03  0.00000000000E+00 0.  1.
          3    1    3    3  501    0  0.20400148325E+03 -0.61367873705E+02 -0.31266501028E+02  0.21531422428E+03  0.00000000000E+00 0.  1.
         -1    1    1    2    0  502 -0.39443721186E+03 -0.29545102534E+02  0.41971805901E+03  0.57672946539E+03  0.00000000000E+00 0. -1.
<mgrwt>
<rscale>  1 0.62498562E+03</rscale>
<asrwt>0</asrwt>
<pdfrwt beam="1">  1       21 0.92953052E-01 0.62498562E+03</pdfrwt>
<pdfrwt beam="2">0</pdfrwt>
<totfact> 0.86918732E+01</totfact>
</mgrwt>
</event>
<event>
 6    1  0.1364923E-004  0.6452725E+03  0.7818608E-02  0.9815691E-01
         21   -1    0    0  501  502  0.00000000000E+00  0.00000000000E+00  0.12866059109E+03  0.12866059109E+03  0.00000000000E+00 0.  1.
         13   -1    0    0    0    0 -0.00000000000E+00 -0.00000000000E+00 -0.10000000000E+04  0.10000000000E+04  0.00000000000E+00 0.  1.
    9000005    2    1    2  501    0 -0.18300130468E+02 -0.33108786797E+02 -0.87864224246E+03  0.10901324466E+04  0.64416261488E+03 0.  0.
         13    1    3    3    0    0 -0.41817591461E+02  0.30063498275E+03 -0.33747646972E+03  0.45389478013E+03  0.00000000000E+00 0.  1.
          3    1    3    3  501    0  0.23517460993E+02 -0.33374376955E+03 -0.54116577274E+03  0.63623766650E+03  0.00000000000E+00 0.  1.
         -3    1    1    2    0  502  0.18300130468E+02  0.33108786797E+02  0.73028335521E+01  0.38528144469E+02  0.00000000000E+00 0. -1.
<mgrwt>
<rscale>  1 0.64527247E+03</rscale>
<asrwt>0</asrwt>
<pdfrwt beam="1">  1       21 0.19793937E-01 0.64527247E+03</pdfrwt>
<pdfrwt beam="2">0</pdfrwt>
<totfact> 0.22896663E+03</totfact>
</mgrwt>
</event>
<event>
 6    1  0.1364923E-004  0.6810189E+03  0.7818608E-02  0.9750255E-01
         21   -1    0    0  501  502  0.00000000000E+00  0.00000000000E+00  0.14725718550E+03  0.14725718550E+03  0.00000000000E+00 0.  1.
         13   -1    0    0    0    0 -0.00000000000E+00 -0.00000000000E+00 -0.10000000000E+04  0.10000000000E+04  0.00000000000E+00 0.  1.
    9000005    2    1    2  501    0  0.84532881672E+02 -0.11833816939E+02 -0.77622429060E+03  0.10326232821E+04  0.67564846344E+03 0.  0.
         13    1    3    3    0    0 -0.33746728772E+02 -0.52848253221E+02 -0.87246576541E+03  0.87471612046E+03  0.00000000000E+00 0.  1.
          1    1    3    3  501    0  0.11827961044E+03  0.41014436282E+02  0.96241474809E+02  0.15790716166E+03  0.00000000000E+00 0.  1.
         -1    1    1    2    0  502 -0.84532881672E+02  0.11833816939E+02 -0.76518523891E+02  0.11463390339E+03  0.00000000000E+00 0. -1.
<mgrwt>
<rscale>  1 0.68101886E+03</rscale>
<asrwt>0</asrwt>
<pdfrwt beam="1">  1       21 0.22654951E-01 0.68101886E+03</pdfrwt>
<pdfrwt beam="2">0</pdfrwt>
<totfact> 0.17621161E+03</totfact>
</mgrwt>
</event>
<event>
 6    1  0.1364923E-004  0.7401886E+03  0.7818608E-02  0.9650870E-01
         21   -1    0    0  501  502  0.00000000000E+00  0.00000000000E+00  0.18891423148E+03  0.18891423148E+03  0.00000000000E+00 0.  1.
         13   -1    0    0    0    0 -0.00000000000E+00 -0.00000000000E+00 -0.10000000000E+04  0.10000000000E+04  0.00000000000E+00 0.  1.
    9000005    2    1    2  501    0  0.50811094945E+02 -0.11823942645E+03 -0.70353560040E+03  0.10211961108E+04  0.72891482792E+03 0.  0.
         13    1    3    3    0    0 -0.74562447353E+02  0.95947450957E+02 -0.75752511631E+03  0.76720908085E+03  0.00000000000E+00 0.  1.
          1    1    3    3  501    0  0.12537354230E+03 -0.21418687741E+03  0.53989515904E+02  0.25398702996E+03  0.00000000000E+00 0.  1.
         -1    1    1    2    0  502 -0.50811094945E+02  0.11823942645E+03 -0.10755016812E+03  0.16771812066E+03  0.00000000000E+00 0. -1.
<mgrwt>
<rscale>  1 0.74018859E+03</rscale>
<asrwt>0</asrwt>
<pdfrwt beam="1">  1       21 0.29063727E-01 0.74018859E+03</pdfrwt>
<pdfrwt beam="2">0</pdfrwt>
<totfact> 0.10756034E+03</totfact>
</mgrwt>
</event>
<event>
 6    1  0.1364923E-004  0.6670326E+03  0.7818608E-02  0.9775333E-01
         21   -1    0    0  501  502  0.00000000000E+00  0.00000000000E+00  0.16131315108E+03  0.16131315108E+03  0.00000000000E+00 0.  1.
         13   -1    0    0    0    0 -0.00000000000E+00 -0.00000000000E+00 -0.10000000000E+04  0.10000000000E+04  0.00000000000E+00 0.  1.
    9000005    2    1    2  501    0  0.11377842236E+03  0.39264813420E+02 -0.78326487979E+03  0.10288033415E+04  0.65608321777E+03 0.  0.
         13    1    3    3    0    0 -0.13075640419E+03 -0.11691189468E+03  0.18286638452E+02  0.17635200453E+03  0.00000000000E+00 0.  1.
          3    1    3    3  501    0  0.24453482655E+03  0.15617670810E+03 -0.80155151824E+03  0.85245133700E+03  0.00000000000E+00 0.  1.
         -3    1    1    2    0  502 -0.11377842236E+03 -0.39264813420E+02 -0.55421969127E+02  0.13250980956E+03  0.00000000000E+00 0. -1.
<mgrwt>
<rscale>  1 0.66703257E+03</rscale>
<asrwt>0</asrwt>
<pdfrwt beam="1">  1       21 0.24817407E-01 0.66703257E+03</pdfrwt>
<pdfrwt beam="2">0</pdfrwt>
<totfact> 0.14759572E+03</totfact>
</mgrwt>
</event>
<event>
 6    1  0.1364923E-004  0.7362291E+03  0.7818608E-02  0.9657206E-01
         21   -1    0    0  501  502  0.00000000000E+00  0.00000000000E+00  0.15296586238E+03  0.15296586238E+03  0.00000000000E+00 0.  1.
         13   -1    0    0    0    0 -0.00000000000E+00 -0.00000000000E+00 -0.10000000000E+04  0.10000000000E+04  0.00000000000E+00 0.  1.
    9000005    2    1    2  501    0 -0.23280456942E+02 -0.37592456304E+02 -0.81541883783E+03  0.10986087136E+04  0.73490002857E+03 0.  0.
         13    1    3    3    0    0 -0.22361526499E+02 -0.72443794710E+02 -0.95333971080E+03  0.95634969831E+03  0.00000000000E+00 0.  1.
          1    1    3    3  501    0 -0.91893044284E+00  0.34851338405E+02  0.13792087297E+03  0.14225901526E+03  0.00000000000E+00 0.  1.
         -3    1    1    2    0  502  0.23280456942E+02  0.37592456304E+02 -0.31615299786E+02  0.54357148812E+02  0.00000000000E+00 0. -1.
<mgrwt>
<rscale>  1 0.73622906E+03</rscale>
<asrwt>0</asrwt>
<pdfrwt beam="1">  1       21 0.23533209E-01 0.73622906E+03</pdfrwt>
<pdfrwt beam="2">0</pdfrwt>
<totfact> 0.16323533E+03</totfact>
</mgrwt>
</event>
<event>
 6    1  0.1364923E-004  0.6483961E+03  0.7818608E-02  0.9809794E-01
         21   -1    0    0  501  502  0.00000000000E+00  0.00000000000E+00  0.17141606727E+03  0.17141606727E+03  0.00000000000E+00 0.  1.
         13   -1    0    0    0    0 -0.00000000000E+00 -0.00000000000E+00 -0.10000000000E+04  0.10000000000E+04  0.00000000000E+00 0.  1.
    9000005    2    1    2  501    0  0.15848090998E+02 -0.15672680593E+02 -0.89281926431E+03  0.11034236212E+04  0.64801285025E+03 0.  0.
         13    1    3    3    0    0  0.29986549380E+03  0.37485865875E+02 -0.68134226462E+03  0.74535346385E+03  0.00000000000E+00 0.  1.
          3    1    3    3  501    0 -0.28401740280E+03 -0.53158546469E+02 -0.21147699969E+03  0.35807015731E+03  0.00000000000E+00 0.  1.
         -1    1    1    2    0  502 -0.15848090998E+02  0.15672680593E+02  0.64235331586E+02  0.67992446119E+02  0.00000000000E+00 0. -1.
<mgrwt>
<rscale>  1 0.64839606E+03</rscale>
<asrwt>0</asrwt>
<pdfrwt beam="1">  1       21 0.26371702E-01 0.64839606E+03</pdfrwt>
<pdfrwt beam="2">0</pdfrwt>
<totfact> 0.13111435E+03</totfact>
</mgrwt>
</event>
<event>
 6    1  0.1364923E-004  0.6670546E+03  0.7818608E-02  0.9775293E-01
         21   -1    0    0  501  502  0.00000000000E+00  0.00000000000E+00  0.14040116139E+03  0.14040116139E+03  0.00000000000E+00 0.  1.
         13   -1    0    0    0    0 -0.00000000000E+00 -0.00000000000E+00 -0.10000000000E+04  0.10000000000E+04  0.00000000000E+00 0.  1.
    9000005    2    1    2  501    0 -0.23118210629E+02 -0.79002146275E+02 -0.76849690888E+03  0.10176194348E+04  0.66195621033E+03 0.  0.
         13    1    3    3    0    0 -0.32421963221E+02  0.27522595735E+03 -0.50497992958E+03  0.57602538188E+03  0.00000000000E+00 0.  1.
          3    1    3    3  501    0  0.93037525923E+01 -0.35422810363E+03 -0.26351697930E+03  0.44159405294E+03  0.00000000000E+00 0.  1.
         -1    1    1    2    0  502  0.23118210629E+02  0.79002146275E+02 -0.91101929729E+02  0.12278172657E+03  0.00000000000E+00 0. -1.
<mgrwt>
<rscale>  1 0.66705458E+03</rscale>
<asrwt>0</asrwt>
<pdfrwt beam="1">  1       21 0.21600178E-01 0.66705458E+03</pdfrwt>
<pdfrwt beam="2">0</pdfrwt>
<totfact> 0.19338262E+03</totfact>
</mgrwt>
</event>
<event>
 6    1  0.1364923E-004  0.6557727E+03  0.7818608E-02  0.9796007E-01
         21   -1    0    0  501  502  0.00000000000E+00  0.00000000000E+00  0.12180095930E+03  0.12180095930E+03  0.00000000000E+00 0.  1.
         13   -1    0    0    0    0 -0.00000000000E+00 -0.00000000000E+00 -0.10000000000E+04  0.10000000000E+04  0.00000000000E+00 0.  1.
    9000005    2    1    2  501    0 -0.14590379446E+02  0.29161662263E+02 -0.86752293174E+03  0.10874897218E+04  0.65496150737E+03 0.  0.
         13    1    3    3    0    0 -0.10777051521E+03  0.30725230732E+03 -0.63349877625E+03  0.71227744862E+03  0.00000000000E+00 0.  1.
          1    1    3    3  501    0  0.93180135759E+02 -0.27809064505E+03 -0.23402415549E+03  0.37521227315E+03  0.00000000000E+00 0.  1.
         -1    1    1    2    0  502  0.14590379446E+02 -0.29161662263E+02 -0.10676108962E+02  0.34311237531E+02  0.00000000000E+00 0. -1.
<mgrwt>
<rscale>  1 0.65577272E+03</rscale>
<asrwt>0</asrwt>
<pdfrwt beam="1">  1       21 0.18738609E-01 0.65577272E+03</pdfrwt>
<pdfrwt beam="2">0</pdfrwt>
<totfact> 0.25413966E+03</totfact>
</mgrwt>
</event>
<event>
 6    1  0.1364923E-004  0.6518637E+03  0.7818608E-02  0.9803288E-01
         21   -1    0    0  501  502  0.00000000000E+00  0.00000000000E+00  0.22519386517E+03  0.22519386517E+03  0.00000000000E+00 0.  1.
         13   -1    0    0    0    0 -0.00000000000E+00 -0.00000000000E+00 -0.10000000000E+04  0.10000000000E+04  0.00000000000E+00 0.  1.
    9000005    2    1    2  501    0 -0.16653034914E+03 -0.35155787101E+02 -0.82149636101E+03  0.10487051580E+04  0.62925189759E+03 0.  0.
         13    1    3    3    0    0 -0.30511620105E+03  0.10884560879E+03 -0.77998623239E+03  0.84458379419E+03  0.00000000000E+00 0.  1.
          3    1    3    3  501    0  0.13858585191E+03 -0.14400139589E+03 -0.41510128618E+02  0.20412136376E+03  0.00000000000E+00 0.  1.
         -3    1    1    2    0  502  0.16653034914E+03  0.35155787101E+02  0.46690226175E+02  0.17648870721E+03  0.00000000000E+00 0. -1.
<mgrwt>
<rscale>  1 0.65186366E+03</rscale>
<asrwt>0</asrwt>
<pdfrwt beam="1">  1       21 0.34645209E-01 0.65186366E+03</pdfrwt>
<pdfrwt beam="2">0</pdfrwt>
<totfact> 0.75873610E+02</totfact>
</mgrwt>
</event>
<event>
 6    1  0.1364923E-004  0.6443261E+03  0.7818608E-02  0.9817484E-01
         21   -1    0    0  501  502  0.00000000000E+00  0.00000000000E+00  0.13824275572E+03  0.13824275572E+03  0.00000000000E+00 0.  1.
         13   -1    0    0    0    0 -0.00000000000E+00 -0.00000000000E+00 -0.10000000000E+04  0.10000000000E+04  0.00000000000E+00 0.  1.
    9000005    2    1    2  501    0  0.10676654036E+02 -0.32408179347E+02 -0.88662557565E+03  0.10960205467E+04  0.64342198155E+03 0.  0.
         13    1    3    3    0    0  0.15541943810E+03 -0.23491586525E+03 -0.77237842241E+03  0.82213690641E+03  0.00000000000E+00 0.  1.
          3    1    3    3  501    0 -0.14474278407E+03  0.20250768590E+03 -0.11424715324E+03  0.27388364028E+03  0.00000000000E+00 0.  1.
         -3    1    1    2    0  502 -0.10676654036E+02  0.32408179347E+02  0.24868331373E+02  0.42222209028E+02  0.00000000000E+00 0. -1.
<mgrwt>
<rscale>  1 0.64432610E+03</rscale>
<asrwt>0</asrwt>
<pdfrwt beam="1">  1       21 0.21268116E-01 0.64432610E+03</pdfrwt>
<pdfrwt beam="2">0</pdfrwt>
<totfact> 0.19944804E+03</totfact>
</mgrwt>
</event>
<event>
 6    1  0.1364923E-004  0.6814411E+03  0.7818608E-02  0.9749507E-01
         21   -1    0    0  501  502  0.00000000000E+00  0.00000000000E+00  0.61954011707E+03  0.61954011707E+03  0.00000000000E+00 0. -1.
         13   -1    0    0    0    0 -0.00000000000E+00 -0.00000000000E+00 -0.10000000000E+04  0.10000000000E+04  0.00000000000E+00 0.  1.
    9000005    2    1    2  501    0 -0.63085805338E+02  0.12436133405E+03 -0.87309703143E+03  0.11075470309E+04  0.66702056868E+03 0.  0.
         13    1    3    3    0    0 -0.23029330577E+03 -0.39417273392E+02 -0.83911804562E+03  0.87103835886E+03  0.00000000000E+00 0.  1.
          1    1    3    3  501    0  0.16720750043E+03  0.16377860744E+03 -0.33978985813E+02  0.23650867200E+03  0.00000000000E+00 0.  1.
         -1    1    1    2    0  502  0.63085805338E+02 -0.12436133405E+03  0.49263714850E+03  0.51199308620E+03  0.00000000000E+00 0. -1.
<mgrwt>
<rscale>  1 0.68144112E+03</rscale>
<asrwt>0</asrwt>
<pdfrwt beam="1">  1       21 0.95313861E-01 0.68144112E+03</pdfrwt>
<pdfrwt beam="2">0</pdfrwt>
<totfact> 0.81150879E+01</totfact>
</mgrwt>
</event>
<event>
 6    1  0.1364923E-004  0.6476469E+03  0.7818608E-02  0.9811205E-01
         21   -1    0    0  501  502  0.00000000000E+00  0.00000000000E+00  0.15766312724E+03  0.15766312724E+03  0.00000000000E+00 0.  1.
         13   -1    0    0    0    0 -0.00000000000E+00 -0.00000000000E+00 -0.10000000000E+04  0.10000000000E+04  0.00000000000E+00 0.  1.
    9000005    2    1    2  501    0 -0.76624658899E+02  0.45769276743E+02 -0.84938731198E+03  0.10681317152E+04  0.64146737272E+03 0.  0.
         13    1    3    3    0    0 -0.21378727751E+02  0.22939355328E+03 -0.84551108704E+03  0.87633752094E+03  0.00000000000E+00 0.  1.
          3    1    3    3  501    0 -0.55245931149E+02 -0.18362427654E+03 -0.38762249356E+01  0.19179419429E+03  0.00000000000E+00 0.  1.
         -1    1    1    2    0  502  0.76624658899E+02 -0.45769276743E+02  0.70504392221E+01  0.89531412020E+02  0.00000000000E+00 0. -1.
<mgrwt>
<rscale>  1 0.64764694E+03</rscale>
<asrwt>0</asrwt>
<pdfrwt beam="1">  1       21 0.24255865E-01 0.64764694E+03</pdfrwt>
<pdfrwt beam="2">0</pdfrwt>
<totfact> 0.15450723E+03</totfact>
</mgrwt>
</event>
<event>
 6    1  0.1364923E-004  0.6559933E+03  0.7818608E-02  0.9795598E-01
         21   -1    0    0  501  502  0.00000000000E+00  0.00000000000E+00  0.15089514844E+03  0.15089514844E+03  0.00000000000E+00 0.  1.
         13   -1    0    0    0    0 -0.00000000000E+00 -0.00000000000E+00 -0.10000000000E+04  0.10000000000E+04  0.00000000000E+00 0.  1.
    9000005    2    1    2  501    0 -0.29671627866E+02  0.11611507724E+03 -0.73893561318E+03  0.98810578223E+03  0.64495277331E+03 0.  0.
         13    1    3    3    0    0  0.25567408345E+03 -0.11799420943E+03 -0.25839398172E+03  0.38217707964E+03  0.00000000000E+00 0.  1.
          1    1    3    3  501    0 -0.28534571132E+03  0.23410928667E+03 -0.48054163145E+03  0.60592870260E+03  0.00000000000E+00 0.  1.
         -1    1    1    2    0  502  0.29671627866E+02 -0.11611507724E+03 -0.11016923839E+03  0.16278936620E+03  0.00000000000E+00 0. -1.
<mgrwt>
<rscale>  1 0.65599329E+03</rscale>
<asrwt>0</asrwt>
<pdfrwt beam="1">  1       21 0.23214638E-01 0.65599329E+03</pdfrwt>
<pdfrwt beam="2">0</pdfrwt>
<totfact> 0.16823891E+03</totfact>
</mgrwt>
</event>
<event>
 6    1  0.1364923E-004  0.6674540E+03  0.7818608E-02  0.9774568E-01
         21   -1    0    0  501  502  0.00000000000E+00  0.00000000000E+00  0.19963325156E+03  0.19963325156E+03  0.00000000000E+00 0.  1.
         13   -1    0    0    0    0 -0.00000000000E+00 -0.00000000000E+00 -0.10000000000E+04  0.10000000000E+04  0.00000000000E+00 0.  1.
    9000005    2    1    2  501    0  0.13263261719E+03  0.72774668177E+02 -0.80815605761E+03  0.10481464970E+04  0.65008253494E+03 0.  0.
         13    1    3    3    0    0 -0.14558234447E+03  0.86145602791E+02  0.23777461074E+02  0.17082345142E+03  0.00000000000E+00 0.  1.
          1    1    3    3  501    0  0.27821496166E+03 -0.13370934614E+02 -0.83193351868E+03  0.87732304557E+03  0.00000000000E+00 0.  1.
         -3    1    1    2    0  502 -0.13263261719E+03 -0.72774668177E+02  0.77893091634E+01  0.15148675457E+03  0.00000000000E+00 0. -1.
<mgrwt>
<rscale>  1 0.66745402E+03</rscale>
<asrwt>0</asrwt>
<pdfrwt beam="1">  1       21 0.30712807E-01 0.66745402E+03</pdfrwt>
<pdfrwt beam="2">0</pdfrwt>
<totfact> 0.96705791E+02</totfact>
</mgrwt>
</event>
<event>
 6    1  0.1364923E-004  0.6319640E+03  0.7818608E-02  0.9841224E-01
         21   -1    0    0  501  502  0.00000000000E+00  0.00000000000E+00  0.13440046931E+03  0.13440046931E+03  0.00000000000E+00 0. -1.
         13   -1    0    0    0    0 -0.00000000000E+00 -0.00000000000E+00 -0.10000000000E+04  0.10000000000E+04  0.00000000000E+00 0.  1.
    9000005    2    1    2  501    0  0.73350702168E+01 -0.21580736610E+02 -0.89597393032E+03  0.10964250088E+04  0.63155283601E+03 0.  0.
         13    1    3    3    0    0 -0.13753703210E+03 -0.17968131648E+03 -0.61002036702E+02  0.23435669218E+03  0.00000000000E+00 0.  1.
          3    1    3    3  501    0  0.14487210232E+03  0.15810057987E+03 -0.83497189362E+03  0.86206831662E+03  0.00000000000E+00 0.  1.
         -3    1    1    2    0  502 -0.73350702168E+01  0.21580736610E+02  0.30374399629E+02  0.37975460504E+02  0.00000000000E+00 0. -1.
<mgrwt>
<rscale>  1 0.63196401E+03</rscale>
<asrwt>0</asrwt>
<pdfrwt beam="1">  1       21 0.20676995E-01 0.63196401E+03</pdfrwt>
<pdfrwt beam="2">0</pdfrwt>
<totfact> 0.21068367E+03</totfact>
</mgrwt>
</event>
<event>
 6    1  0.1364923E-004  0.6549144E+03  0.7818608E-02  0.9797601E-01
         21   -1    0    0  501  502  0.00000000000E+00  0.00000000000E+00  0.16136742220E+03  0.16136742220E+03  0.00000000000E+00 0.  1.
         13   -1    0    0    0    0 -0.00000000000E+00 -0.00000000000E+00 -0.10000000000E+04  0.10000000000E+04  0.00000000000E+00 0.  1.
    9000005    2    1    2  501    0  0.16151959677E+01  0.25559757155E+02 -0.88939677669E+03  0.11045087031E+04  0.65441343117E+03 0.  0.
         13    1    3    3    0    0 -0.89783919814E+02 -0.26305510510E+03 -0.68495044645E+03  0.73919973936E+03  0.00000000000E+00 0.  1.
          1    1    3    3  501    0  0.91399115782E+02  0.28861486225E+03 -0.20444633024E+03  0.36530896379E+03  0.00000000000E+00 0.  1.
         -3    1    1    2    0  502 -0.16151959677E+01 -0.25559757155E+02  0.50764198886E+02  0.56858719053E+02  0.00000000000E+00 0. -1.
<mgrwt>
<rscale>  1 0.65491438E+03</rscale>
<asrwt>0</asrwt>
<pdfrwt beam="1">  1       21 0.24825757E-01 0.65491438E+03</pdfrwt>
<pdfrwt beam="2">0</pdfrwt>
<totfact> 0.14758937E+03</totfact>
</mgrwt>
</event>
<event>
 6    1  0.1364923E-004  0.7402916E+03  0.7818608E-02  0.9650706E-01
         21   -1    0    0  501  502  0.00000000000E+00  0.00000000000E+00  0.31646281753E+03  0.31646281753E+03  0.00000000000E+00 0. -1.
         13   -1    0    0    0    0 -0.00000000000E+00 -0.00000000000E+00 -0.10000000000E+04  0.10000000000E+04  0.00000000000E+00 0.  1.
    9000005    2    1    2  501    0 -0.11624333822E+03  0.33654967792E+03 -0.59446457271E+03  0.94943130771E+03  0.64904043054E+03 0.  0.
         13    1    3    3    0    0  0.81401813304E+01  0.47186339347E+02 -0.63058715024E+03  0.63240253575E+03  0.00000000000E+00 0.  1.
          1    1    3    3  501    0 -0.12438351955E+03  0.28936333857E+03  0.36122577535E+02  0.31702877196E+03  0.00000000000E+00 0.  1.
         -3    1    1    2    0  502  0.11624333822E+03 -0.33654967792E+03 -0.89072609766E+02  0.36703150982E+03  0.00000000000E+00 0. -1.
<mgrwt>
<rscale>  1 0.74029162E+03</rscale>
<asrwt>0</asrwt>
<pdfrwt beam="1">  1       21 0.48686586E-01 0.74029162E+03</pdfrwt>
<pdfrwt beam="2">0</pdfrwt>
<totfact> 0.37043872E+02</totfact>
</mgrwt>
</event>
<event>
 6    1  0.1364923E-004  0.6510808E+03  0.7818608E-02  0.9804753E-01
         21   -1    0    0  501  502  0.00000000000E+00  0.00000000000E+00  0.26762321909E+03  0.26762321909E+03  0.00000000000E+00 0. -1.
         13   -1    0    0    0    0 -0.00000000000E+00 -0.00000000000E+00 -0.10000000000E+04  0.10000000000E+04  0.00000000000E+00 0.  1.
    9000005    2    1    2  501    0 -0.84053616373E+01  0.38407970124E+02 -0.89137458064E+03  0.11038363985E+04  0.64989255220E+03 0.  0.
         13    1    3    3    0    0 -0.22863898847E+02 -0.21499038436E+03 -0.80839290712E+03  0.83680506423E+03  0.00000000000E+00 0.  1.
          1    1    3    3  501    0  0.14458537209E+02  0.25339835448E+03 -0.82981673527E+02  0.26703133429E+03  0.00000000000E+00 0.  1.
         -3    1    1    2    0  502  0.84053616373E+01 -0.38407970124E+02  0.15899779974E+03  0.16378682057E+03  0.00000000000E+00 0. -1.
<mgrwt>
<rscale>  1 0.65108076E+03</rscale>
<asrwt>0</asrwt>
<pdfrwt beam="1">  1       21 0.41172802E-01 0.65108076E+03</pdfrwt>
<pdfrwt beam="2">0</pdfrwt>
<totfact> 0.53175015E+02</totfact>
</mgrwt>
</event>
<event>
 6    1  0.1364923E-004  0.6549996E+03  0.7818608E-02  0.9797443E-01
         21   -1    0    0  501  502  0.00000000000E+00  0.00000000000E+00  0.30470969527E+03  0.30470969527E+03  0.00000000000E+00 0. -1.
         13   -1    0    0    0    0 -0.00000000000E+00 -0.00000000000E+00 -0.10000000000E+04  0.10000000000E+04  0.00000000000E+00 0.  1.
    9000005    2    1    2  501    0 -0.77211564295E+02 -0.24039333164E+02 -0.88352655534E+03  0.10998380251E+04  0.64998845545E+03 0.  0.
         13    1    3    3    0    0  0.20423027235E+03 -0.48528215421E+02 -0.76534238906E+03  0.79360819321E+03  0.00000000000E+00 0.  1.
          1    1    3    3  501    0 -0.28144183665E+03  0.24488882256E+02 -0.11818416628E+03  0.30622983187E+03  0.00000000000E+00 0.  1.
         -1    1    1    2    0  502  0.77211564295E+02  0.24039333164E+02  0.18823625062E+03  0.20487167019E+03  0.00000000000E+00 0. -1.
<mgrwt>
<rscale>  1 0.65499962E+03</rscale>
<asrwt>0</asrwt>
<pdfrwt beam="1">  1       21 0.46878413E-01 0.65499962E+03</pdfrwt>
<pdfrwt beam="2">0</pdfrwt>
<totfact> 0.40454072E+02</totfact>
</mgrwt>
</event>
<event>
 6    1  0.1364923E-004  0.7545029E+03  0.7818608E-02  0.9628312E-01
         21   -1    0    0  501  502  0.00000000000E+00  0.00000000000E+00  0.20443472762E+03  0.20443472762E+03  0.00000000000E+00 0.  1.
         13   -1    0    0    0    0 -0.00000000000E+00 -0.00000000000E+00 -0.10000000000E+04  0.10000000000E+04  0.00000000000E+00 0.  1.
    9000005    2    1    2  501    0  0.26482271954E+02 -0.85668263745E+01 -0.85409234741E+03  0.11396263967E+04  0.75398931355E+03 0.  0.
         13    1    3    3    0    0  0.14160040045E+03 -0.16802868219E+03  0.40700420938E+02  0.22347446322E+03  0.00000000000E+00 0.  1.
          1    1    3    3  501    0 -0.11511812850E+03  0.15946185581E+03 -0.89479276835E+03  0.91615193350E+03  0.00000000000E+00 0.  1.
         -3    1    1    2    0  502 -0.26482271954E+02  0.85668263745E+01  0.58527075031E+02  0.64808330897E+02  0.00000000000E+00 0. -1.
<mgrwt>
<rscale>  1 0.75450287E+03</rscale>
<asrwt>0</asrwt>
<pdfrwt beam="1">  1       21 0.31451496E-01 0.75450287E+03</pdfrwt>
<pdfrwt beam="2">0</pdfrwt>
<totfact> 0.91709228E+02</totfact>
</mgrwt>
</event>
<event>
 6    1  0.1364923E-004  0.5587393E+03  0.7818608E-02  0.9994911E-01
         21   -1    0    0  501  502  0.00000000000E+00  0.00000000000E+00  0.95627212787E+02  0.95627212787E+02  0.00000000000E+00 0.  1.
         13   -1    0    0    0    0 -0.00000000000E+00 -0.00000000000E+00 -0.10000000000E+04  0.10000000000E+04  0.00000000000E+00 0.  1.
    9000005    2    1    2  501    0  0.33297921189E+02 -0.41145214521E+02 -0.86455998402E+03  0.10293947469E+04  0.55622648160E+03 0.  0.
         13    1    3    3    0    0 -0.11109271965E+03  0.14945162527E+01  0.35649692699E+02  0.11668216028E+03  0.00000000000E+00 0.  1.
          1    1    3    3  501    0  0.14439064084E+03 -0.42639730774E+02 -0.90020967672E+03  0.91271258667E+03  0.00000000000E+00 0.  1.
         -1    1    1    2    0  502 -0.33297921189E+02  0.41145214521E+02 -0.39812803188E+02  0.66232465840E+02  0.00000000000E+00 0. -1.
<mgrwt>
<rscale>  1 0.55873928E+03</rscale>
<asrwt>0</asrwt>
<pdfrwt beam="1">  1       21 0.14711878E-01 0.55873928E+03</pdfrwt>
<pdfrwt beam="2">0</pdfrwt>
<totfact> 0.40187592E+03</totfact>
</mgrwt>
</event>
<event>
 6    1  0.1364923E-004  0.6630758E+03  0.7818608E-02  0.9782548E-01
         21   -1    0    0  501  502  0.00000000000E+00  0.00000000000E+00  0.27480922789E+03  0.27480922789E+03  0.00000000000E+00 0. -1.
         13   -1    0    0    0    0 -0.00000000000E+00 -0.00000000000E+00 -0.10000000000E+04  0.10000000000E+04  0.00000000000E+00 0.  1.
    9000005    2    1    2  501    0  0.84885148604E+02  0.46548859391E+02 -0.87413344828E+03  0.10971685638E+04  0.65597049260E+03 0.  0.
         13    1    3    3    0    0  0.17912387061E+01 -0.18010840976E+03 -0.83303703889E+03  0.85228689769E+03  0.00000000000E+00 0.  1.
          3    1    3    3  501    0  0.83093909898E+02  0.22665726915E+03 -0.41096409384E+02  0.24488166608E+03  0.00000000000E+00 0.  1.
         -3    1    1    2    0  502 -0.84885148604E+02 -0.46548859391E+02  0.14894267617E+03  0.17764066412E+03  0.00000000000E+00 0. -1.
<mgrwt>
<rscale>  1 0.66307584E+03</rscale>
<asrwt>0</asrwt>
<pdfrwt beam="1">  1       21 0.42278342E-01 0.66307584E+03</pdfrwt>
<pdfrwt beam="2">0</pdfrwt>
<totfact> 0.50261453E+02</totfact>
</mgrwt>
</event>
<event>
 6    1  0.1364923E-004  0.6349555E+03  0.7818608E-02  0.9835426E-01
         21   -1    0    0  501  502  0.00000000000E+00  0.00000000000E+00  0.13130401232E+03  0.13130401232E+03  0.00000000000E+00 0.  1.
         13   -1    0    0    0    0 -0.00000000000E+00 -0.00000000000E+00 -0.10000000000E+04  0.10000000000E+04  0.00000000000E+00 0.  1.
    9000005    2    1    2  501    0  0.40614774796E+02  0.39176746721E+02 -0.86726347179E+03  0.10748555445E+04  0.63244298925E+03 0.  0.
         13    1    3    3    0    0 -0.11700242536E+02 -0.19560854571E+03 -0.23367008712E+02  0.19734643631E+03  0.00000000000E+00 0.  1.
          3    1    3    3  501    0  0.52315017332E+02  0.23478529243E+03 -0.84389646308E+03  0.87750910820E+03  0.00000000000E+00 0.  1.
         -1    1    1    2    0  502 -0.40614774796E+02 -0.39176746721E+02 -0.14325158928E+01  0.56448467802E+02  0.00000000000E+00 0. -1.
<mgrwt>
<rscale>  1 0.63495552E+03</rscale>
<asrwt>0</asrwt>
<pdfrwt beam="1">  1       21 0.20200617E-01 0.63495552E+03</pdfrwt>
<pdfrwt beam="2">0</pdfrwt>
<totfact> 0.22030207E+03</totfact>
</mgrwt>
</event>
<event>
 6    1  0.1364923E-004  0.1207230E+04  0.7818608E-02  0.9106551E-01
         21   -1    0    0  501  502  0.00000000000E+00  0.00000000000E+00  0.16817046094E+04  0.16817046094E+04  0.00000000000E+00 0. -1.
         13   -1    0    0    0    0 -0.00000000000E+00 -0.00000000000E+00 -0.10000000000E+04  0.10000000000E+04  0.00000000000E+00 0.  1.
    9000005    2    1    2  501    0  0.10180328371E+04  0.37343763992E+02 -0.32424939785E+03  0.12500171858E+04  0.64778073337E+03 0.  0.
         13    1    3    3    0    0  0.22865305554E+03  0.12051819429E+03  0.17515790816E+03  0.31222931917E+03  0.00000000000E+00 0.  1.
          3    1    3    3  501    0  0.78937978161E+03 -0.83174430295E+02 -0.49940730601E+03  0.93778786661E+03  0.00000000000E+00 0.  1.
         -1    1    1    2    0  502 -0.10180328371E+04 -0.37343763992E+02  0.10059540072E+04  0.14316874236E+04  0.00000000000E+00 0. -1.
<mgrwt>
<rscale>  1 0.12072304E+04</rscale>
<asrwt>0</asrwt>
<pdfrwt beam="1">  1       21 0.25872378E+00 0.12072304E+04</pdfrwt>
<pdfrwt beam="2">0</pdfrwt>
<totfact> 0.40980660E+00</totfact>
</mgrwt>
</event>
<event>
 6    1  0.1364923E-004  0.6520918E+03  0.7818608E-02  0.9802862E-01
         21   -1    0    0  501  502  0.00000000000E+00  0.00000000000E+00  0.12166111700E+03  0.12166111700E+03  0.00000000000E+00 0.  1.
         13   -1    0    0    0    0 -0.00000000000E+00 -0.00000000000E+00 -0.10000000000E+04  0.10000000000E+04  0.00000000000E+00 0.  1.
    9000005    2    1    2  501    0 -0.11657795622E+02 -0.23685448858E+02 -0.87992670270E+03  0.10952144564E+04  0.65155721057E+03 0.  0.
         13    1    3    3    0    0  0.57930100933E+02 -0.29152087453E+03 -0.19233062652E+03  0.35402173207E+03  0.00000000000E+00 0.  1.
          1    1    3    3  501    0 -0.69587896554E+02  0.26783542567E+03 -0.68759607618E+03  0.74119272431E+03  0.00000000000E+00 0.  1.
         -1    1    1    2    0  502  0.11657795622E+02  0.23685448858E+02  0.15878197003E+01  0.26446660616E+02  0.00000000000E+00 0. -1.
<mgrwt>
<rscale>  1 0.65209179E+03</rscale>
<asrwt>0</asrwt>
<pdfrwt beam="1">  1       21 0.18717094E-01 0.65209179E+03</pdfrwt>
<pdfrwt beam="2">0</pdfrwt>
<totfact> 0.25472937E+03</totfact>
</mgrwt>
</event>
<event>
 6    1  0.1364923E-004  0.6521892E+03  0.7818608E-02  0.9802680E-01
         21   -1    0    0  501  502  0.00000000000E+00  0.00000000000E+00  0.15681110281E+03  0.15681110281E+03  0.00000000000E+00 0.  1.
         13   -1    0    0    0    0 -0.00000000000E+00 -0.00000000000E+00 -0.10000000000E+04  0.10000000000E+04  0.00000000000E+00 0.  1.
    9000005    2    1    2  501    0 -0.23294947607E+02  0.45699975301E+02 -0.87879946823E+03  0.10943670871E+04  0.65016895779E+03 0.  0.
         13    1    3    3    0    0 -0.92366130371E+02  0.32595565637E+03 -0.62079381733E+03  0.70722242300E+03  0.00000000000E+00 0.  1.
          1    1    3    3  501    0  0.69071182764E+02 -0.28025568107E+03 -0.25800565090E+03  0.38714466412E+03  0.00000000000E+00 0.  1.
         -1    1    1    2    0  502  0.23294947607E+02 -0.45699975301E+02  0.35610571038E+02  0.62444015696E+02  0.00000000000E+00 0. -1.
<mgrwt>
<rscale>  1 0.65218925E+03</rscale>
<asrwt>0</asrwt>
<pdfrwt beam="1">  1       21 0.24124784E-01 0.65218925E+03</pdfrwt>
<pdfrwt beam="2">0</pdfrwt>
<totfact> 0.15611594E+03</totfact>
</mgrwt>
</event>
<event>
 6    1  0.1364923E-004  0.6589930E+03  0.7818608E-02  0.9790049E-01
         21   -1    0    0  501  502  0.00000000000E+00  0.00000000000E+00  0.14800939785E+03  0.14800939785E+03  0.00000000000E+00 0.  1.
         13   -1    0    0    0    0 -0.00000000000E+00 -0.00000000000E+00 -0.10000000000E+04  0.10000000000E+04  0.00000000000E+00 0.  1.
    9000005    2    1    2  501    0  0.55385600867E+02 -0.14314429335E+02 -0.86685637235E+03  0.10889039092E+04  0.65650535826E+03 0.  0.
         13    1    3    3    0    0 -0.17101537192E+03  0.12794539941E+03 -0.77854844770E+03  0.80731280683E+03  0.00000000000E+00 0.  1.
          3    1    3    3  501    0  0.22640097278E+03 -0.14225982874E+03 -0.88307924650E+02  0.28159110232E+03  0.00000000000E+00 0.  1.
         -1    1    1    2    0  502 -0.55385600867E+02  0.14314429335E+02  0.14865770204E+02  0.59105488699E+02  0.00000000000E+00 0. -1.
<mgrwt>
<rscale>  1 0.65899298E+03</rscale>
<asrwt>0</asrwt>
<pdfrwt beam="1">  1       21 0.22770676E-01 0.65899298E+03</pdfrwt>
<pdfrwt beam="2">0</pdfrwt>
<totfact> 0.17464992E+03</totfact>
</mgrwt>
</event>
<event>
 6    1  0.1364923E-004  0.6648677E+03  0.7818608E-02  0.9779274E-01
         21   -1    0    0  501  502  0.00000000000E+00  0.00000000000E+00  0.30689869565E+03  0.30689869565E+03  0.00000000000E+00 0. -1.
         13   -1    0    0    0    0 -0.00000000000E+00 -0.00000000000E+00 -0.10000000000E+04  0.10000000000E+04  0.00000000000E+00 0.  1.
    9000005    2    1    2  501    0  0.78629273328E+02  0.68020924282E+02 -0.87406318744E+03  0.10981964870E+04  0.65668840378E+03 0.  0.
         13    1    3    3    0    0  0.11211940195E+03 -0.19835704274E+03 -0.78177478661E+03  0.81430221274E+03  0.00000000000E+00 0.  1.
          3    1    3    3  501    0 -0.33490128620E+02  0.26637796702E+03 -0.92288400831E+02  0.28389427426E+03  0.00000000000E+00 0.  1.
         -1    1    1    2    0  502 -0.78629273328E+02 -0.68020924282E+02  0.18096188308E+03  0.20870220865E+03  0.00000000000E+00 0. -1.
<mgrwt>
<rscale>  1 0.66486771E+03</rscale>
<asrwt>0</asrwt>
<pdfrwt beam="1">  1       21 0.47215183E-01 0.66486771E+03</pdfrwt>
<pdfrwt beam="2">0</pdfrwt>
<totfact> 0.39807842E+02</totfact>
</mgrwt>
</event>
<event>
 6    1  0.1364923E-004  0.6528838E+03  0.7818608E-02  0.9801383E-01
         21   -1    0    0  501  502  0.00000000000E+00  0.00000000000E+00  0.20533947205E+03  0.20533947205E+03  0.00000000000E+00 0.  1.
         13   -1    0    0    0    0 -0.00000000000E+00 -0.00000000000E+00 -0.10000000000E+04  0.10000000000E+04  0.00000000000E+00 0.  1.
    9000005    2    1    2  501    0 -0.23101177583E+02 -0.42820225641E+02 -0.88675815303E+03  0.11011799373E+04  0.65106834991E+03 0.  0.
         13    1    3    3    0    0 -0.33625100545E+03 -0.31844676096E+02 -0.50058347115E+03  0.60387302775E+03  0.00000000000E+00 0.  1.
          1    1    3    3  501    0  0.31314982786E+03 -0.10975549545E+02 -0.38617468188E+03  0.49730690957E+03  0.00000000000E+00 0.  1.
         -3    1    1    2    0  502  0.23101177583E+02  0.42820225641E+02  0.92097625083E+02  0.10415953473E+03  0.00000000000E+00 0. -1.
<mgrwt>
<rscale>  1 0.65288378E+03</rscale>
<asrwt>0</asrwt>
<pdfrwt beam="1">  1       21 0.31590687E-01 0.65288378E+03</pdfrwt>
<pdfrwt beam="2">0</pdfrwt>
<totfact> 0.91462269E+02</totfact>
</mgrwt>
</event>
<event>
 6    1  0.1364923E-004  0.6666663E+03  0.7818608E-02  0.9775999E-01
         21   -1    0    0  501  502  0.00000000000E+00  0.00000000000E+00  0.38759834603E+03  0.38759834603E+03  0.00000000000E+00 0. -1.
         13   -1    0    0    0    0 -0.00000000000E+00 -0.00000000000E+00 -0.10000000000E+04  0.10000000000E+04  0.00000000000E+00 0.  1.
    9000005    2    1    2  501    0  0.96878977168E+01  0.32220314905E+02 -0.88775113388E+03  0.11102009053E+04  0.66581676931E+03 0.  0.
         13    1    3    3    0    0 -0.30921003548E+03 -0.74725806854E+02 -0.32627327953E+03  0.45568524794E+03  0.00000000000E+00 0.  1.
          1    1    3    3  501    0  0.31889793320E+03  0.10694612176E+03 -0.56147785435E+03  0.65451565733E+03  0.00000000000E+00 0.  1.
         -1    1    1    2    0  502 -0.96878977168E+01 -0.32220314905E+02  0.27534947991E+03  0.27739744076E+03  0.00000000000E+00 0. -1.
<mgrwt>
<rscale>  1 0.66666631E+03</rscale>
<asrwt>0</asrwt>
<pdfrwt beam="1">  1       21 0.59630513E-01 0.66666631E+03</pdfrwt>
<pdfrwt beam="2">0</pdfrwt>
<totfact> 0.24006652E+02</totfact>
</mgrwt>
</event>
<event>
 6    1  0.1364923E-004  0.5705611E+03  0.7818608E-02  0.9968438E-01
         21   -1    0    0  501  502  0.00000000000E+00  0.00000000000E+00  0.32740091386E+03  0.32740091386E+03  0.00000000000E+00 0. -1.
         13   -1    0    0    0    0 -0.00000000000E+00 -0.00000000000E+00 -0.10000000000E+04  0.10000000000E+04  0.00000000000E+00 0.  1.
    9000005    2    1    2  501    0  0.10621899207E+03 -0.21183898962E+02 -0.90565992065E+03  0.10704017224E+04  0.56018632926E+03 0.  0.
         13    1    3    3    0    0  0.11218026856E+03 -0.67491991150E+01 -0.98406244320E+03  0.99045891205E+03  0.00000000000E+00 0.  1.
          1    1    3    3  501    0 -0.59612764874E+01 -0.14434699847E+02  0.78402522550E+02  0.79942810303E+02  0.00000000000E+00 0.  1.
         -1    1    1    2    0  502 -0.10621899207E+03  0.21183898962E+02  0.23306083451E+03  0.25699919151E+03  0.00000000000E+00 0. -1.
<mgrwt>
<rscale>  1 0.57056109E+03</rscale>
<asrwt>0</asrwt>
<pdfrwt beam="1">  1       21 0.50369370E-01 0.57056109E+03</pdfrwt>
<pdfrwt beam="2">0</pdfrwt>
<totfact> 0.35003494E+02</totfact>
</mgrwt>
</event>
<event>
 6    1  0.1364923E-004  0.6739249E+03  0.7818608E-02  0.9762893E-01
         21   -1    0    0  501  502  0.00000000000E+00  0.00000000000E+00  0.34815681926E+03  0.34815681926E+03  0.00000000000E+00 0. -1.
         13   -1    0    0    0    0 -0.00000000000E+00 -0.00000000000E+00 -0.10000000000E+04  0.10000000000E+04  0.00000000000E+00 0.  1.
    9000005    2    1    2  501    0 -0.14110688546E+03  0.40370996274E+02 -0.86053615980E+03  0.10930220902E+04  0.65774906831E+03 0.  0.
         13    1    3    3    0    0  0.17169616798E+03  0.24410315841E+03 -0.42634123314E+03  0.52041596163E+03  0.00000000000E+00 0.  1.
          1    1    3    3  501    0 -0.31280305344E+03 -0.20373216213E+03 -0.43419492667E+03  0.57260612857E+03  0.00000000000E+00 0.  1.
         -3    1    1    2    0  502  0.14110688546E+03 -0.40370996274E+02  0.20869297907E+03  0.25513472907E+03  0.00000000000E+00 0. -1.
<mgrwt>
<rscale>  1 0.67392493E+03</rscale>
<asrwt>0</asrwt>
<pdfrwt beam="1">  1       21 0.53562586E-01 0.67392493E+03</pdfrwt>
<pdfrwt beam="2">0</pdfrwt>
<totfact> 0.30337359E+02</totfact>
</mgrwt>
</event>
<event>
 6    1  0.1364923E-004  0.6535437E+03  0.7818608E-02  0.9800152E-01
         21   -1    0    0  501  502  0.00000000000E+00  0.00000000000E+00  0.12623183979E+03  0.12623183979E+03  0.00000000000E+00 0.  1.
         13   -1    0    0    0    0 -0.00000000000E+00 -0.00000000000E+00 -0.10000000000E+04  0.10000000000E+04  0.00000000000E+00 0.  1.
    9000005    2    1    2  501    0 -0.28951745462E+02  0.36562339939E+02 -0.85449350468E+03  0.10757687779E+04  0.65187752358E+03 0.  0.
         13    1    3    3    0    0  0.25667274530E+03  0.19731655357E+03 -0.38219545298E+03  0.50088729748E+03  0.00000000000E+00 0.  1.
          3    1    3    3  501    0 -0.28562449077E+03 -0.16075421363E+03 -0.47229805170E+03  0.57488148045E+03  0.00000000000E+00 0.  1.
         -3    1    1    2    0  502  0.28951745462E+02 -0.36562339939E+02 -0.19274655529E+02  0.50463061866E+02  0.00000000000E+00 0. -1.
<mgrwt>
<rscale>  1 0.65354366E+03</rscale>
<asrwt>0</asrwt>
<pdfrwt beam="1">  1       21 0.19420282E-01 0.65354366E+03</pdfrwt>
<pdfrwt beam="2">0</pdfrwt>
<totfact> 0.23739784E+03</totfact>
</mgrwt>
</event>
<event>
 6    1  0.1364923E-004  0.6586745E+03  0.7818608E-02  0.9790637E-01
         21   -1    0    0  501  502  0.00000000000E+00  0.00000000000E+00  0.12364663481E+03  0.12364663481E+03  0.00000000000E+00 0.  1.
         13   -1    0    0    0    0 -0.00000000000E+00 -0.00000000000E+00 -0.10000000000E+04  0.10000000000E+04  0.00000000000E+00 0.  1.
    9000005    2    1    2  501    0  0.22095618570E+02 -0.23222550732E+01 -0.88191965112E+03  0.11007426446E+04  0.65829969572E+03 0.  0.
         13    1    3    3    0    0 -0.29279928958E+03  0.79788360300E+01 -0.21563589134E+03  0.36372231638E+03  0.00000000000E+00 0.  1.
          3    1    3    3  501    0  0.31489490815E+03 -0.10301091103E+02 -0.66628375978E+03  0.73702032822E+03  0.00000000000E+00 0.  1.
         -1    1    1    2    0  502 -0.22095618570E+02  0.23222550732E+01  0.55662859336E+01  0.22903990213E+02  0.00000000000E+00 0. -1.
<mgrwt>
<rscale>  1 0.65867450E+03</rscale>
<asrwt>0</asrwt>
<pdfrwt beam="1">  1       21 0.19022559E-01 0.65867450E+03</pdfrwt>
<pdfrwt beam="2">0</pdfrwt>
<totfact> 0.24692616E+03</totfact>
</mgrwt>
</event>
<event>
 6    1  0.1364923E-004  0.6756628E+03  0.7818608E-02  0.9759782E-01
         21   -1    0    0  501  502  0.00000000000E+00  0.00000000000E+00  0.23025927834E+03  0.23025927834E+03  0.00000000000E+00 0. -1.
         13   -1    0    0    0    0 -0.00000000000E+00 -0.00000000000E+00 -0.10000000000E+04  0.10000000000E+04  0.00000000000E+00 0.  1.
    9000005    2    1    2  501    0 -0.29109638509E+02  0.13320679772E+03 -0.83907243900E+03  0.10772942201E+04  0.66176193360E+03 0.  0.
         13    1    3    3    0    0  0.32298299738E+02  0.32237258324E+03 -0.14439416734E+03  0.35470683410E+03  0.00000000000E+00 0.  1.
          3    1    3    3  501    0 -0.61407938247E+02 -0.18916578552E+03 -0.69467827166E+03  0.72258738600E+03  0.00000000000E+00 0.  1.
         -1    1    1    2    0  502  0.29109638509E+02 -0.13320679772E+03  0.69331717339E+02  0.15296505824E+03  0.00000000000E+00 0. -1.
<mgrwt>
<rscale>  1 0.67566284E+03</rscale>
<asrwt>0</asrwt>
<pdfrwt beam="1">  1       21 0.35424503E-01 0.67566284E+03</pdfrwt>
<pdfrwt beam="2">0</pdfrwt>
<totfact> 0.72384817E+02</totfact>
</mgrwt>
</event>
<event>
 6    1  0.1364923E-004  0.6545918E+03  0.7818608E-02  0.9798201E-01
         21   -1    0    0  501  502  0.00000000000E+00  0.00000000000E+00  0.12995895783E+03  0.12995895783E+03  0.00000000000E+00 0.  1.
         13   -1    0    0    0    0 -0.00000000000E+00 -0.00000000000E+00 -0.10000000000E+04  0.10000000000E+04  0.00000000000E+00 0.  1.
    9000005    2    1    2  501    0  0.88336218769E+01 -0.57125562558E+02 -0.83962328351E+03  0.10646397201E+04  0.65203459469E+03 0.  0.
         13    1    3    3    0    0 -0.44162708452E+01 -0.29755646334E+03 -0.14812611355E+03  0.33241645242E+03  0.00000000000E+00 0.  1.
          1    1    3    3  501    0  0.13249892722E+02  0.24043090078E+03 -0.69149716996E+03  0.73222326771E+03  0.00000000000E+00 0.  1.
         -3    1    1    2    0  502 -0.88336218769E+01  0.57125562558E+02 -0.30417758653E+02  0.65319237706E+02  0.00000000000E+00 0. -1.
<mgrwt>
<rscale>  1 0.65459184E+03</rscale>
<asrwt>0</asrwt>
<pdfrwt beam="1">  1       21 0.19993685E-01 0.65459184E+03</pdfrwt>
<pdfrwt beam="2">0</pdfrwt>
<totfact> 0.22452095E+03</totfact>
</mgrwt>
</event>
<event>
 6    1  0.1364923E-004  0.6502057E+03  0.7818608E-02  0.9806393E-01
         21   -1    0    0  501  502  0.00000000000E+00  0.00000000000E+00  0.12815934768E+03  0.12815934768E+03  0.00000000000E+00 0.  1.
         13   -1    0    0    0    0 -0.00000000000E+00 -0.00000000000E+00 -0.10000000000E+04  0.10000000000E+04  0.00000000000E+00 0.  1.
    9000005    2    1    2  501    0 -0.19396097979E+02  0.18455264221E+02 -0.88512017854E+03  0.10982737122E+04  0.64965422415E+03 0.  0.
         13    1    3    3    0    0  0.29555056688E+03  0.68859134933E+02 -0.59123635433E+03  0.66456914217E+03  0.00000000000E+00 0.  1.
          1    1    3    3  501    0 -0.31494666486E+03 -0.50403870712E+02 -0.29388382421E+03  0.43370456998E+03  0.00000000000E+00 0.  1.
         -1    1    1    2    0  502  0.19396097979E+02 -0.18455264221E+02  0.13279526212E+02  0.29885635524E+02  0.00000000000E+00 0. -1.
<mgrwt>
<rscale>  1 0.65020567E+03</rscale>
<asrwt>0</asrwt>
<pdfrwt beam="1">  1       21 0.19716822E-01 0.65020567E+03</pdfrwt>
<pdfrwt beam="2">0</pdfrwt>
<totfact> 0.23064087E+03</totfact>
</mgrwt>
</event>
<event>
 6    1  0.1364923E-004  0.6418221E+03  0.7818608E-02  0.9822247E-01
         21   -1    0    0  501  502  0.00000000000E+00  0.00000000000E+00  0.15629445257E+03  0.15629445257E+03  0.00000000000E+00 0.  1.
         13   -1    0    0    0    0 -0.00000000000E+00 -0.00000000000E+00 -0.10000000000E+04  0.10000000000E+04  0.00000000000E+00 0.  1.
    9000005    2    1    2  501    0  0.62550103482E+02  0.21497576579E+02 -0.87334103797E+03  0.10838173973E+04  0.63840498180E+03 0.  0.
         13    1    3    3    0    0  0.15284934840E+03 -0.27065623222E+03 -0.59031460767E+03  0.66714994969E+03  0.00000000000E+00 0.  1.
          1    1    3    3  501    0 -0.90299244921E+02  0.29215380879E+03 -0.28302643030E+03  0.41666744758E+03  0.00000000000E+00 0.  1.
         -3    1    1    2    0  502 -0.62550103482E+02 -0.21497576579E+02  0.29635490541E+02  0.72477055294E+02  0.00000000000E+00 0. -1.
<mgrwt>
<rscale>  1 0.64182208E+03</rscale>
<asrwt>0</asrwt>
<pdfrwt beam="1">  1       21 0.24045300E-01 0.64182208E+03</pdfrwt>
<pdfrwt beam="2">0</pdfrwt>
<totfact> 0.15720685E+03</totfact>
</mgrwt>
</event>
<event>
 6    1  0.1364923E-004  0.6365958E+03  0.7818608E-02  0.9832261E-01
         21   -1    0    0  501  502  0.00000000000E+00  0.00000000000E+00  0.12714162179E+03  0.12714162179E+03  0.00000000000E+00 0.  1.
         13   -1    0    0    0    0 -0.00000000000E+00 -0.00000000000E+00 -0.10000000000E+04  0.10000000000E+04  0.00000000000E+00 0.  1.
    9000005    2    1    2  501    0 -0.17362871533E+02  0.14746837588E+02 -0.89303772716E+03  0.10967089970E+04  0.63618810384E+03 0.  0.
         13    1    3    3    0    0 -0.65628715571E+02 -0.10105625441E+03  0.60583969991E+02  0.13486998288E+03  0.00000000000E+00 0.  1.
          3    1    3    3  501    0  0.48265844037E+02  0.11580309200E+03 -0.95362169715E+03  0.96183901413E+03  0.00000000000E+00 0.  1.
         -3    1    1    2    0  502  0.17362871533E+02 -0.14746837588E+02  0.20179348954E+02  0.30432624779E+02  0.00000000000E+00 0. -1.
<mgrwt>
<rscale>  1 0.63659582E+03</rscale>
<asrwt>0</asrwt>
<pdfrwt beam="1">  1       21 0.19560249E-01 0.63659582E+03</pdfrwt>
<pdfrwt beam="2">0</pdfrwt>
<totfact> 0.23431023E+03</totfact>
</mgrwt>
</event>
<event>
 6    1  0.1364923E-004  0.6538466E+03  0.7818608E-02  0.9799588E-01
         21   -1    0    0  501  502  0.00000000000E+00  0.00000000000E+00  0.17777197077E+03  0.17777197077E+03  0.00000000000E+00 0.  1.
         13   -1    0    0    0    0 -0.00000000000E+00 -0.00000000000E+00 -0.10000000000E+04  0.10000000000E+04  0.00000000000E+00 0.  1.
    9000005    2    1    2  501    0  0.55523382326E+02 -0.27612520205E+02 -0.87776609690E+03  0.10945267053E+04  0.65089944735E+03 0.  0.
         13    1    3    3    0    0  0.86098781167E+02  0.82917769441E+02 -0.95098301880E+03  0.95846599243E+03  0.00000000000E+00 0.  1.
          3    1    3    3  501    0 -0.30575398840E+02 -0.11053028965E+03  0.73216921895E+02  0.13606071290E+03  0.00000000000E+00 0.  1.
         -1    1    1    2    0  502 -0.55523382326E+02  0.27612520205E+02  0.55538067667E+02  0.83245265434E+02  0.00000000000E+00 0. -1.
<mgrwt>
<rscale>  1 0.65384661E+03</rscale>
<asrwt>0</asrwt>
<pdfrwt beam="1">  1       21 0.27349533E-01 0.65384661E+03</pdfrwt>
<pdfrwt beam="2">0</pdfrwt>
<totfact> 0.12197755E+03</totfact>
</mgrwt>
</event>
<event>
 6    1  0.1364923E-004  0.6434967E+03  0.7818608E-02  0.9819059E-01
         21   -1    0    0  501  502  0.00000000000E+00  0.00000000000E+00  0.15556963558E+03  0.15556963558E+03  0.00000000000E+00 0.  1.
         13   -1    0    0    0    0 -0.00000000000E+00 -0.00000000000E+00 -0.10000000000E+04  0.10000000000E+04  0.00000000000E+00 0.  1.
    9000005    2    1    2  501    0  0.32792327266E+02  0.17416139487E+02 -0.88906609944E+03  0.10975092577E+04  0.64242461260E+03 0.  0.
         13    1    3    3    0    0  0.71470809141E+02  0.13120370043E+02 -0.98827382848E+03  0.99094166364E+03  0.00000000000E+00 0.  1.
          3    1    3    3  501    0 -0.38678481875E+02  0.42957694442E+01  0.99207729048E+02  0.10656759403E+03  0.00000000000E+00 0.  1.
         -1    1    1    2    0  502 -0.32792327266E+02 -0.17416139487E+02  0.44635735015E+02  0.58060377905E+02  0.00000000000E+00 0. -1.
<mgrwt>
<rscale>  1 0.64349673E+03</rscale>
<asrwt>0</asrwt>
<pdfrwt beam="1">  1       21 0.23933789E-01 0.64349673E+03</pdfrwt>
<pdfrwt beam="2">0</pdfrwt>
<totfact> 0.15862604E+03</totfact>
</mgrwt>
</event>
<event>
 6    1  0.1364923E-004  0.7033748E+03  0.7818608E-02  0.9711478E-01
         21   -1    0    0  501  502  0.00000000000E+00  0.00000000000E+00  0.45032904223E+03  0.45032904223E+03  0.00000000000E+00 0. -1.
         13   -1    0    0    0    0 -0.00000000000E+00 -0.00000000000E+00 -0.10000000000E+04  0.10000000000E+04  0.00000000000E+00 0.  1.
    9000005    2    1    2  501    0 -0.16356862947E+03 -0.19579740810E+03 -0.81884014078E+03  0.10794606415E+04  0.65547294289E+03 0.  0.
         13    1    3    3    0    0  0.20328610812E+02  0.17346621025E+03 -0.57348127099E+03  0.59948690285E+03  0.00000000000E+00 0.  1.
          3    1    3    3  501    0 -0.18389724028E+03 -0.36926361835E+03 -0.24535886979E+03  0.47997373866E+03  0.00000000000E+00 0.  1.
         -1    1    1    2    0  502  0.16356862947E+03  0.19579740810E+03  0.26916918301E+03  0.37086840071E+03  0.00000000000E+00 0. -1.
<mgrwt>
<rscale>  1 0.70337479E+03</rscale>
<asrwt>0</asrwt>
<pdfrwt beam="1">  1       21 0.69281389E-01 0.70337479E+03</pdfrwt>
<pdfrwt beam="2">0</pdfrwt>
<totfact> 0.17090573E+02</totfact>
</mgrwt>
</event>
<event>
 6    1  0.1364923E-004  0.6910906E+03  0.7818608E-02  0.9732591E-01
         21   -1    0    0  501  502  0.00000000000E+00  0.00000000000E+00  0.39526377509E+03  0.39526377509E+03  0.00000000000E+00 0. -1.
         13   -1    0    0    0    0 -0.00000000000E+00 -0.00000000000E+00 -0.10000000000E+04  0.10000000000E+04  0.00000000000E+00 0.  1.
    9000005    2    1    2  501    0 -0.51943385069E+02 -0.19964708352E+03 -0.83645714396E+03  0.10850192626E+04  0.65958257506E+03 0.  0.
         13    1    3    3    0    0  0.14686701522E+03 -0.89189166721E+02 -0.84016362562E+03  0.85755439794E+03  0.00000000000E+00 0.  1.
          1    1    3    3  501    0 -0.19881040028E+03 -0.11045791680E+03  0.37064816641E+01  0.22746486465E+03  0.00000000000E+00 0.  1.
         -3    1    1    2    0  502  0.51943385069E+02  0.19964708352E+03  0.23172091905E+03  0.31024451250E+03  0.00000000000E+00 0. -1.
<mgrwt>
<rscale>  1 0.69109062E+03</rscale>
<asrwt>0</asrwt>
<pdfrwt beam="1">  1       21 0.60809810E-01 0.69109062E+03</pdfrwt>
<pdfrwt beam="2">0</pdfrwt>
<totfact> 0.22930016E+02</totfact>
</mgrwt>
</event>
<event>
 6    1  0.1364923E-004  0.6744754E+03  0.7818608E-02  0.9761907E-01
         21   -1    0    0  501  502  0.00000000000E+00  0.00000000000E+00  0.18293505260E+03  0.18293505260E+03  0.00000000000E+00 0.  1.
         13   -1    0    0    0    0 -0.00000000000E+00 -0.00000000000E+00 -0.10000000000E+04  0.10000000000E+04  0.00000000000E+00 0.  1.
    9000005    2    1    2  501    0  0.15925633323E+03 -0.43330918177E+02 -0.73848148081E+03  0.10001359570E+04  0.65397009624E+03 0.  0.
         13    1    3    3    0    0  0.30772497574E+03 -0.24956904093E+03 -0.57387789245E+03  0.69736303482E+03  0.00000000000E+00 0.  1.
          1    1    3    3  501    0 -0.14846864251E+03  0.20623812275E+03 -0.16460358836E+03  0.30277292215E+03  0.00000000000E+00 0.  1.
         -3    1    1    2    0  502 -0.15925633323E+03  0.43330918177E+02 -0.78583466585E+02  0.18279909563E+03  0.00000000000E+00 0. -1.
<mgrwt>
<rscale>  1 0.67447538E+03</rscale>
<asrwt>0</asrwt>
<pdfrwt beam="1">  1       21 0.28143853E-01 0.67447538E+03</pdfrwt>
<pdfrwt beam="2">0</pdfrwt>
<totfact> 0.11510319E+03</totfact>
</mgrwt>
</event>
<event>
 6    1  0.1364923E-004  0.6490032E+03  0.7818608E-02  0.9808651E-01
         21   -1    0    0  501  502  0.00000000000E+00  0.00000000000E+00  0.16755561251E+03  0.16755561251E+03  0.00000000000E+00 0.  1.
         13   -1    0    0    0    0 -0.00000000000E+00 -0.00000000000E+00 -0.10000000000E+04  0.10000000000E+04  0.00000000000E+00 0.  1.
    9000005    2    1    2  501    0  0.27837680518E+02  0.35620859526E+02 -0.88548903818E+03  0.10978597227E+04  0.64742671545E+03 0.  0.
         13    1    3    3    0    0  0.13277293777E+03 -0.20434540925E+03 -0.77709412161E+03  0.81440835773E+03  0.00000000000E+00 0.  1.
          3    1    3    3  501    0 -0.10493525725E+03  0.23996626878E+03 -0.10839491657E+03  0.28345136497E+03  0.00000000000E+00 0.  1.
         -1    1    1    2    0  502 -0.27837680518E+02 -0.35620859526E+02  0.53044650695E+02  0.69695889817E+02  0.00000000000E+00 0. -1.
<mgrwt>
<rscale>  1 0.64900318E+03</rscale>
<asrwt>0</asrwt>
<pdfrwt beam="1">  1       21 0.25777786E-01 0.64900318E+03</pdfrwt>
<pdfrwt beam="2">0</pdfrwt>
<totfact> 0.13712371E+03</totfact>
</mgrwt>
</event>
<event>
 6    1  0.1364923E-004  0.6523503E+03  0.7818608E-02  0.9802379E-01
         21   -1    0    0  501  502  0.00000000000E+00  0.00000000000E+00  0.14473290493E+03  0.14473290493E+03  0.00000000000E+00 0.  1.
         13   -1    0    0    0    0 -0.00000000000E+00 -0.00000000000E+00 -0.10000000000E+04  0.10000000000E+04  0.00000000000E+00 0.  1.
    9000005    2    1    2  501    0 -0.38937901249E+02  0.30140886615E+02 -0.87523044333E+03  0.10915994082E+04  0.65048928190E+03 0.  0.
         13    1    3    3    0    0 -0.30478091685E+03  0.58200458492E+00 -0.19797404564E+03  0.36343564596E+03  0.00000000000E+00 0.  1.
          1    1    3    3  501    0  0.26584301560E+03  0.29558882030E+02 -0.67725639769E+03  0.72816376225E+03  0.00000000000E+00 0.  1.
         -3    1    1    2    0  502  0.38937901249E+02 -0.30140886615E+02  0.19963348261E+02  0.53133496717E+02  0.00000000000E+00 0. -1.
<mgrwt>
<rscale>  1 0.65235032E+03</rscale>
<asrwt>0</asrwt>
<pdfrwt beam="1">  1       21 0.22266600E-01 0.65235032E+03</pdfrwt>
<pdfrwt beam="2">0</pdfrwt>
<totfact> 0.18245680E+03</totfact>
</mgrwt>
</event>
<event>
 6    1  0.1364923E-004  0.6557517E+03  0.7818608E-02  0.9796046E-01
         21   -1    0    0  501  502  0.00000000000E+00  0.00000000000E+00  0.22709517907E+03  0.22709517907E+03  0.00000000000E+00 0.  1.
         13   -1    0    0    0    0 -0.00000000000E+00 -0.00000000000E+00 -0.10000000000E+04  0.10000000000E+04  0.00000000000E+00 0.  1.
    9000005    2    1    2  501    0  0.19130832813E+02  0.22029265983E+02 -0.89052309114E+03  0.11059121158E+04  0.65510224759E+03 0.  0.
         13    1    3    3    0    0 -0.23154348075E+03  0.11530367267E+03 -0.11044856751E+03  0.28125825583E+03  0.00000000000E+00 0.  1.
          3    1    3    3  501    0  0.25067431356E+03 -0.93274406684E+02 -0.78007452363E+03  0.82465386002E+03  0.00000000000E+00 0.  1.
         -1    1    1    2    0  502 -0.19130832813E+02 -0.22029265983E+02  0.11761827022E+03  0.12118306322E+03  0.00000000000E+00 0. -1.
<mgrwt>
<rscale>  1 0.65575165E+03</rscale>
<asrwt>0</asrwt>
<pdfrwt beam="1">  1       21 0.34937719E-01 0.65575165E+03</pdfrwt>
<pdfrwt beam="2">0</pdfrwt>
<totfact> 0.74563985E+02</totfact>
</mgrwt>
</event>
<event>
 6    1  0.1364923E-004  0.6527881E+03  0.7818608E-02  0.9801561E-01
         21   -1    0    0  501  502  0.00000000000E+00  0.00000000000E+00  0.15900409973E+03  0.15900409973E+03  0.00000000000E+00 0.  1.
         13   -1    0    0    0    0 -0.00000000000E+00 -0.00000000000E+00 -0.10000000000E+04  0.10000000000E+04  0.00000000000E+00 0.  1.
    9000005    2    1    2  501    0 -0.54091709374E+01 -0.25510943980E+02 -0.88985640381E+03  0.11036198402E+04  0.65226701970E+03 0.  0.
         13    1    3    3    0    0 -0.11079162998E+03 -0.16514302745E+03 -0.21862601622E+01  0.19887630458E+03  0.00000000000E+00 0.  1.
          1    1    3    3  501    0  0.10538245904E+03  0.13963208347E+03 -0.88767014365E+03  0.90474353567E+03  0.00000000000E+00 0.  1.
         -3    1    1    2    0  502  0.54091709374E+01  0.25510943980E+02  0.48860503536E+02  0.55384259486E+02  0.00000000000E+00 0. -1.
<mgrwt>
<rscale>  1 0.65278812E+03</rscale>
<asrwt>0</asrwt>
<pdfrwt beam="1">  1       21 0.24462168E-01 0.65278812E+03</pdfrwt>
<pdfrwt beam="2">0</pdfrwt>
<totfact> 0.15193055E+03</totfact>
</mgrwt>
</event>
<event>
 6    1  0.1364923E-004  0.7315260E+03  0.7818608E-02  0.9664787E-01
         21   -1    0    0  501  502  0.00000000000E+00  0.00000000000E+00  0.31908515550E+03  0.31908515550E+03  0.00000000000E+00 0.  1.
         13   -1    0    0    0    0 -0.00000000000E+00 -0.00000000000E+00 -0.10000000000E+04  0.10000000000E+04  0.00000000000E+00 0.  1.
    9000005    2    1    2  501    0  0.33661009602E+03  0.26725222107E+02 -0.65245557761E+03  0.98021862704E+03  0.64892964318E+03 0.  0.
         13    1    3    3    0    0  0.20284217624E+03  0.26204713229E+03 -0.71082761472E+02  0.33891946976E+03  0.00000000000E+00 0.  1.
          3    1    3    3  501    0  0.13376791978E+03 -0.23532191018E+03 -0.58137281614E+03  0.64129915728E+03  0.00000000000E+00 0.  1.
         -1    1    1    2    0  502 -0.33661009602E+03 -0.26725222107E+02 -0.28459266887E+02  0.33886652846E+03  0.00000000000E+00 0. -1.
<mgrwt>
<rscale>  1 0.73152599E+03</rscale>
<asrwt>0</asrwt>
<pdfrwt beam="1">  1       21 0.49090023E-01 0.73152599E+03</pdfrwt>
<pdfrwt beam="2">0</pdfrwt>
<totfact> 0.36420998E+02</totfact>
</mgrwt>
</event>
<event>
 6    1  0.1364923E-004  0.6704069E+03  0.7818608E-02  0.9769223E-01
         21   -1    0    0  501  502  0.00000000000E+00  0.00000000000E+00  0.19054710893E+03  0.19054710893E+03  0.00000000000E+00 0.  1.
         13   -1    0    0    0    0 -0.00000000000E+00 -0.00000000000E+00 -0.10000000000E+04  0.10000000000E+04  0.00000000000E+00 0.  1.
    9000005    2    1    2  501    0  0.10089952244E+03 -0.14288763779E+03 -0.74962862817E+03  0.10056781470E+04  0.64718456756E+03 0.  0.
         13    1    3    3    0    0  0.26806441444E+03 -0.27035016340E+02 -0.75560707681E+03  0.80220413670E+03  0.00000000000E+00 0.  1.
          1    1    3    3  501    0 -0.16716489201E+03 -0.11585262145E+03  0.59784486399E+01  0.20347401029E+03  0.00000000000E+00 0.  1.
         -1    1    1    2    0  502 -0.10089952244E+03  0.14288763779E+03 -0.59824262894E+02  0.18486896195E+03  0.00000000000E+00 0. -1.
<mgrwt>
<rscale>  1 0.67040693E+03</rscale>
<asrwt>0</asrwt>
<pdfrwt beam="1">  1       21 0.29314939E-01 0.67040693E+03</pdfrwt>
<pdfrwt beam="2">0</pdfrwt>
<totfact> 0.10614456E+03</totfact>
</mgrwt>
</event>
<event>
 6    1  0.1364923E-004  0.6462064E+03  0.7818608E-02  0.9813924E-01
         21   -1    0    0  501  502  0.00000000000E+00  0.00000000000E+00  0.32011140360E+03  0.32011140360E+03  0.00000000000E+00 0.  1.
         13   -1    0    0    0    0 -0.00000000000E+00 -0.00000000000E+00 -0.10000000000E+04  0.10000000000E+04  0.00000000000E+00 0.  1.
    9000005    2    1    2  501    0 -0.21950904084E+02 -0.71553969195E+02 -0.88840716595E+03  0.10985672623E+04  0.64185740207E+03 0.  0.
         13    1    3    3    0    0 -0.32985222519E+03 -0.37217513287E+02 -0.39499227098E+03  0.51595205969E+03  0.00000000000E+00 0.  1.
          3    1    3    3  501    0  0.30790132111E+03 -0.34336455908E+02 -0.49341489497E+03  0.58261520261E+03  0.00000000000E+00 0.  1.
         -3    1    1    2    0  502  0.21950904084E+02  0.71553969195E+02  0.20851856955E+03  0.22154414130E+03  0.00000000000E+00 0. -1.
<mgrwt>
<rscale>  1 0.64620642E+03</rscale>
<asrwt>0</asrwt>
<pdfrwt beam="1">  1       21 0.49247907E-01 0.64620642E+03</pdfrwt>
<pdfrwt beam="2">0</pdfrwt>
<totfact> 0.36448151E+02</totfact>
</mgrwt>
</event>
<event>
 6    1  0.1364923E-004  0.6203209E+03  0.7818608E-02  0.9864121E-01
         21   -1    0    0  501  502  0.00000000000E+00  0.00000000000E+00  0.26195863050E+03  0.26195863050E+03  0.00000000000E+00 0.  1.
         13   -1    0    0    0    0 -0.00000000000E+00 -0.00000000000E+00 -0.10000000000E+04  0.10000000000E+04  0.00000000000E+00 0.  1.
    9000005    2    1    2  501    0 -0.14130677273E+03  0.46552786628E+01 -0.87003946107E+03  0.10685348165E+04  0.60399396906E+03 0.  0.
         13    1    3    3    0    0 -0.25476154929E+03 -0.23837579986E+03 -0.54520138727E+03  0.64727970897E+03  0.00000000000E+00 0.  1.
          1    1    3    3  501    0  0.11345477656E+03  0.24303107852E+03 -0.32483807379E+03  0.42125510755E+03  0.00000000000E+00 0.  1.
         -3    1    1    2    0  502  0.14130677273E+03 -0.46552786628E+01  0.13199809157E+03  0.19342381399E+03  0.00000000000E+00 0. -1.
<mgrwt>
<rscale>  1 0.62032088E+03</rscale>
<asrwt>0</asrwt>
<pdfrwt beam="1">  1       21 0.40301327E-01 0.62032088E+03</pdfrwt>
<pdfrwt beam="2">0</pdfrwt>
<totfact> 0.55739217E+02</totfact>
</mgrwt>
</event>
<event>
 6    1  0.1364923E-004  0.6398381E+03  0.7818608E-02  0.9826036E-01
         21   -1    0    0  501  502  0.00000000000E+00  0.00000000000E+00  0.15010962654E+03  0.15010962654E+03  0.00000000000E+00 0. -1.
         13   -1    0    0    0    0 -0.00000000000E+00 -0.00000000000E+00 -0.10000000000E+04  0.10000000000E+04  0.00000000000E+00 0.  1.
    9000005    2    1    2  501    0  0.89310984171E+01 -0.22888806639E+02 -0.89414359008E+03  0.10994933330E+04  0.63936622344E+03 0.  0.
         13    1    3    3    0    0  0.11399682541E+03  0.24326975529E+02  0.64997262200E+02  0.13346056360E+03  0.00000000000E+00 0.  1.
          3    1    3    3  501    0 -0.10506572700E+03 -0.47215782167E+02 -0.95914085228E+03  0.96603276942E+03  0.00000000000E+00 0.  1.
         -1    1    1    2    0  502 -0.89310984171E+01  0.22888806639E+02  0.44253216621E+02  0.50616293519E+02  0.00000000000E+00 0. -1.
<mgrwt>
<rscale>  1 0.63983813E+03</rscale>
<asrwt>0</asrwt>
<pdfrwt beam="1">  1       21 0.23093788E-01 0.63983813E+03</pdfrwt>
<pdfrwt beam="2">0</pdfrwt>
<totfact> 0.17008659E+03</totfact>
</mgrwt>
</event>
<event>
 6    1  0.1364923E-004  0.6182117E+03  0.7818608E-02  0.9868327E-01
         21   -1    0    0  501  502  0.00000000000E+00  0.00000000000E+00  0.11880921162E+03  0.11880921162E+03  0.00000000000E+00 0.  1.
         13   -1    0    0    0    0 -0.00000000000E+00 -0.00000000000E+00 -0.10000000000E+04  0.10000000000E+04  0.00000000000E+00 0.  1.
    9000005    2    1    2  501    0 -0.24343533727E+02 -0.35653491333E+02 -0.88021999802E+03  0.10756267903E+04  0.61670249552E+03 0.  0.
         13    1    3    3    0    0  0.10791796836E+03  0.14304570041E+03 -0.12216357290E+02  0.17960400799E+03  0.00000000000E+00 0.  1.
          3    1    3    3  501    0 -0.13226150209E+03 -0.17869919175E+03 -0.86800364073E+03  0.89602278229E+03  0.00000000000E+00 0.  1.
         -3    1    1    2    0  502  0.24343533727E+02  0.35653491333E+02 -0.97079035356E+00  0.43182421336E+02  0.00000000000E+00 0. -1.
<mgrwt>
<rscale>  1 0.61821173E+03</rscale>
<asrwt>0</asrwt>
<pdfrwt beam="1">  1       21 0.18278340E-01 0.61821173E+03</pdfrwt>
<pdfrwt beam="2">0</pdfrwt>
<totfact> 0.26680213E+03</totfact>
</mgrwt>
</event>
<event>
 6    1  0.1364923E-004  0.6508689E+03  0.7818608E-02  0.9805150E-01
         21   -1    0    0  501  502  0.00000000000E+00  0.00000000000E+00  0.14623286312E+03  0.14623286312E+03  0.00000000000E+00 0.  1.
         13   -1    0    0    0    0 -0.00000000000E+00 -0.00000000000E+00 -0.10000000000E+04  0.10000000000E+04  0.00000000000E+00 0.  1.
    9000005    2    1    2  501    0 -0.47988219434E+02  0.58810164137E+02 -0.84954151579E+03  0.10702107579E+04  0.64642770256E+03 0.  0.
         13    1    3    3    0    0 -0.24078697018E+03 -0.34600540631E+01 -0.50718669430E+02  0.24609494186E+03  0.00000000000E+00 0.  1.
          1    1    3    3  501    0  0.19279875074E+03  0.62270218200E+02 -0.79882284636E+03  0.82411581603E+03  0.00000000000E+00 0.  1.
         -3    1    1    2    0  502  0.47988219434E+02 -0.58810164137E+02 -0.42256210909E+01  0.76022105232E+02  0.00000000000E+00 0. -1.
<mgrwt>
<rscale>  1 0.65086886E+03</rscale>
<asrwt>0</asrwt>
<pdfrwt beam="1">  1       21 0.22497363E-01 0.65086886E+03</pdfrwt>
<pdfrwt beam="2">0</pdfrwt>
<totfact> 0.17885831E+03</totfact>
</mgrwt>
</event>
<event>
 6    1  0.1364923E-004  0.7065428E+03  0.7818608E-02  0.9706108E-01
         21   -1    0    0  501  502  0.00000000000E+00  0.00000000000E+00  0.51210454849E+03  0.51210454849E+03  0.00000000000E+00 0. -1.
         13   -1    0    0    0    0 -0.00000000000E+00 -0.00000000000E+00 -0.10000000000E+04  0.10000000000E+04  0.00000000000E+00 0.  1.
    9000005    2    1    2  501    0  0.28155531596E+02  0.28161456639E+03 -0.81561797340E+03  0.10790900576E+04  0.64738178529E+03 0.  0.
         13    1    3    3    0    0 -0.22990058782E+03  0.17637515761E+03 -0.92566804113E+02  0.30418923341E+03  0.00000000000E+00 0.  1.
          1    1    3    3  501    0  0.25805611941E+03  0.10523940878E+03 -0.72305116929E+03  0.77490082419E+03  0.00000000000E+00 0.  1.
         -3    1    1    2    0  502 -0.28155531596E+02 -0.28161456639E+03  0.32772252189E+03  0.43301449088E+03  0.00000000000E+00 0. -1.
<mgrwt>
<rscale>  1 0.70654276E+03</rscale>
<asrwt>0</asrwt>
<pdfrwt beam="1">  1       21 0.78785313E-01 0.70654276E+03</pdfrwt>
<pdfrwt beam="2">0</pdfrwt>
<totfact> 0.12714221E+02</totfact>
</mgrwt>
</event>
<event>
 6    1  0.1364923E-004  0.6856296E+03  0.7818608E-02  0.9742128E-01
         21   -1    0    0  501  502  0.00000000000E+00  0.00000000000E+00  0.15943819332E+03  0.15943819332E+03  0.00000000000E+00 0.  1.
         13   -1    0    0    0    0 -0.00000000000E+00 -0.00000000000E+00 -0.10000000000E+04  0.10000000000E+04  0.00000000000E+00 0.  1.
    9000005    2    1    2  501    0 -0.13395364976E+02 -0.15560278441E+02 -0.87964733137E+03  0.11152880369E+04  0.68532212842E+03 0.  0.
         13    1    3    3    0    0 -0.33270349471E+03 -0.61581551605E+02 -0.59775639192E+03  0.68687452054E+03  0.00000000000E+00 0.  1.
          3    1    3    3  501    0  0.31930812973E+03  0.46021273164E+02 -0.28189093945E+03  0.42841351640E+03  0.00000000000E+00 0.  1.
         -1    1    1    2    0  502  0.13395364976E+02  0.15560278441E+02  0.39085524687E+02  0.44150156376E+02  0.00000000000E+00 0. -1.
<mgrwt>
<rscale>  1 0.68562962E+03</rscale>
<asrwt>0</asrwt>
<pdfrwt beam="1">  1       21 0.24528952E-01 0.68562962E+03</pdfrwt>
<pdfrwt beam="2">0</pdfrwt>
<totfact> 0.15087658E+03</totfact>
</mgrwt>
</event>
<event>
 6    1  0.1364923E-004  0.6552891E+03  0.7818608E-02  0.9796905E-01
         21   -1    0    0  501  502  0.00000000000E+00  0.00000000000E+00  0.12780463964E+03  0.12780463964E+03  0.00000000000E+00 0.  1.
         13   -1    0    0    0    0 -0.00000000000E+00 -0.00000000000E+00 -0.10000000000E+04  0.10000000000E+04  0.00000000000E+00 0.  1.
    9000005    2    1    2  501    0  0.32240551957E+02 -0.30866641880E+02 -0.86061259127E+03  0.10816921325E+04  0.65376726330E+03 0.  0.
         13    1    3    3    0    0  0.14493242147E+03  0.25278976947E+03 -0.64568409501E+03  0.70838974082E+03  0.00000000000E+00 0.  1.
          3    1    3    3  501    0 -0.11269186951E+03 -0.28365641135E+03 -0.21492849626E+03  0.37330239172E+03  0.00000000000E+00 0.  1.
         -1    1    1    2    0  502 -0.32240551957E+02  0.30866641880E+02 -0.11582769093E+02  0.46112507103E+02  0.00000000000E+00 0. -1.
<mgrwt>
<rscale>  1 0.65528912E+03</rscale>
<asrwt>0</asrwt>
<pdfrwt beam="1">  1       21 0.19662252E-01 0.65528912E+03</pdfrwt>
<pdfrwt beam="2">0</pdfrwt>
<totfact> 0.23182325E+03</totfact>
</mgrwt>
</event>
<event>
 6    1  0.1364923E-004  0.6530957E+03  0.7818608E-02  0.9800988E-01
         21   -1    0    0  501  502  0.00000000000E+00  0.00000000000E+00  0.49038731484E+03  0.49038731484E+03  0.00000000000E+00 0. -1.
         13   -1    0    0    0    0 -0.00000000000E+00 -0.00000000000E+00 -0.10000000000E+04  0.10000000000E+04  0.00000000000E+00 0.  1.
    9000005    2    1    2  501    0  0.92826153729E+02 -0.38171551242E+01 -0.88713079676E+03  0.11016056408E+04  0.64645392085E+03 0.  0.
         13    1    3    3    0    0  0.27897477159E+03 -0.14745416454E+03 -0.19573568922E+03  0.37132480911E+03  0.00000000000E+00 0.  1.
          1    1    3    3  501    0 -0.18614861786E+03  0.14363700941E+03 -0.69139510754E+03  0.73028083169E+03  0.00000000000E+00 0.  1.
         -3    1    1    2    0  502 -0.92826153729E+02  0.38171551242E+01  0.37751811160E+03  0.38878167405E+03  0.00000000000E+00 0. -1.
<mgrwt>
<rscale>  1 0.65309566E+03</rscale>
<asrwt>0</asrwt>
<pdfrwt beam="1">  1       21 0.75444200E-01 0.65309566E+03</pdfrwt>
<pdfrwt beam="2">0</pdfrwt>
<totfact> 0.14148053E+02</totfact>
</mgrwt>
</event>
<event>
 6    1  0.1364923E-004  0.6508220E+03  0.7818608E-02  0.9805238E-01
         21   -1    0    0  501  502  0.00000000000E+00  0.00000000000E+00  0.12424291521E+03  0.12424291521E+03  0.00000000000E+00 0.  1.
         13   -1    0    0    0    0 -0.00000000000E+00 -0.00000000000E+00 -0.10000000000E+04  0.10000000000E+04  0.00000000000E+00 0.  1.
    9000005    2    1    2  501    0  0.31097019248E+02  0.21827723469E+02 -0.86893623129E+03  0.10856424209E+04  0.64971210386E+03 0.  0.
         13    1    3    3    0    0 -0.87218394221E+02  0.31811527521E+03 -0.48343074092E+03  0.58524324676E+03  0.00000000000E+00 0.  1.
          3    1    3    3  501    0  0.11831541347E+03 -0.29628755174E+03 -0.38550549038E+03  0.50039917415E+03  0.00000000000E+00 0.  1.
         -1    1    1    2    0  502 -0.31097019248E+02 -0.21827723469E+02 -0.68208534951E+01  0.38600494301E+02  0.00000000000E+00 0. -1.
<mgrwt>
<rscale>  1 0.65082201E+03</rscale>
<asrwt>0</asrwt>
<pdfrwt beam="1">  1       21 0.19114294E-01 0.65082201E+03</pdfrwt>
<pdfrwt beam="2">0</pdfrwt>
<totfact> 0.24473801E+03</totfact>
</mgrwt>
</event>
<event>
 6    1  0.1364923E-004  0.6626504E+03  0.7818608E-02  0.9783327E-01
         21   -1    0    0  501  502  0.00000000000E+00  0.00000000000E+00  0.15543365223E+03  0.15543365223E+03  0.00000000000E+00 0.  1.
         13   -1    0    0    0    0 -0.00000000000E+00 -0.00000000000E+00 -0.10000000000E+04  0.10000000000E+04  0.00000000000E+00 0.  1.
    9000005    2    1    2  501    0  0.10112706199E+03 -0.61139879945E+02 -0.76921384921E+03  0.10152809975E+04  0.65202821296E+03 0.  0.
         13    1    3    3    0    0  0.19380710507E+03 -0.31790073335E+03 -0.32664228199E+03  0.49529511468E+03  0.00000000000E+00 0.  1.
          3    1    3    3  501    0 -0.92680043085E+02  0.25676085340E+03 -0.44257156722E+03  0.51998588283E+03  0.00000000000E+00 0.  1.
         -3    1    1    2    0  502 -0.10112706199E+03  0.61139879945E+02 -0.75352498562E+02  0.14015265472E+03  0.00000000000E+00 0. -1.
<mgrwt>
<rscale>  1 0.66265040E+03</rscale>
<asrwt>0</asrwt>
<pdfrwt beam="1">  1       21 0.23912869E-01 0.66265040E+03</pdfrwt>
<pdfrwt beam="2">0</pdfrwt>
<totfact> 0.15874703E+03</totfact>
</mgrwt>
</event>
<event>
 6    1  0.1364923E-004  0.6454729E+03  0.7818608E-02  0.9815311E-01
         21   -1    0    0  501  502  0.00000000000E+00  0.00000000000E+00  0.16126996645E+03  0.16126996645E+03  0.00000000000E+00 0.  1.
         13   -1    0    0    0    0 -0.00000000000E+00 -0.00000000000E+00 -0.10000000000E+04  0.10000000000E+04  0.00000000000E+00 0.  1.
    9000005    2    1    2  501    0 -0.14253228080E+02  0.50004197408E+02 -0.88245963719E+03  0.10933299009E+04  0.64337523011E+03 0.  0.
         13    1    3    3    0    0  0.29700215545E+03  0.92516721447E+01 -0.60643824676E+03  0.67532453007E+03  0.00000000000E+00 0.  1.
          3    1    3    3  501    0 -0.31125538353E+03  0.40752525263E+02 -0.27602139043E+03  0.41800537086E+03  0.00000000000E+00 0.  1.
         -1    1    1    2    0  502  0.14253228080E+02 -0.50004197408E+02  0.43729603639E+02  0.67940065524E+02  0.00000000000E+00 0. -1.
<mgrwt>
<rscale>  1 0.64547290E+03</rscale>
<asrwt>0</asrwt>
<pdfrwt beam="1">  1       21 0.24810763E-01 0.64547290E+03</pdfrwt>
<pdfrwt beam="2">0</pdfrwt>
<totfact> 0.14783619E+03</totfact>
</mgrwt>
</event>
<event>
 6    1  0.1364923E-004  0.6227056E+03  0.7818608E-02  0.9859388E-01
         21   -1    0    0  501  502  0.00000000000E+00  0.00000000000E+00  0.26039056058E+03  0.26039056058E+03  0.00000000000E+00 0. -1.
         13   -1    0    0    0    0 -0.00000000000E+00 -0.00000000000E+00 -0.10000000000E+04  0.10000000000E+04  0.00000000000E+00 0.  1.
    9000005    2    1    2  501    0  0.27505736255E+03 -0.19792255302E+03 -0.66954171883E+03  0.91435678311E+03  0.52242925250E+03 0.  0.
         13    1    3    3    0    0 -0.12639875003E+03  0.59133790747E+02 -0.21059819178E+03  0.25263619614E+03  0.00000000000E+00 0.  1.
          1    1    3    3  501    0  0.40145611258E+03 -0.25705634377E+03 -0.45894352705E+03  0.66172058697E+03  0.00000000000E+00 0.  1.
         -1    1    1    2    0  502 -0.27505736255E+03  0.19792255302E+03 -0.70067720585E+02  0.34603377748E+03  0.00000000000E+00 0. -1.
<mgrwt>
<rscale>  1 0.62270556E+03</rscale>
<asrwt>0</asrwt>
<pdfrwt beam="1">  1       21 0.40060085E-01 0.62270556E+03</pdfrwt>
<pdfrwt beam="2">0</pdfrwt>
<totfact> 0.56426955E+02</totfact>
</mgrwt>
</event>
<event>
 6    1  0.1364923E-004  0.6535722E+03  0.7818608E-02  0.9800099E-01
         21   -1    0    0  501  502  0.00000000000E+00  0.00000000000E+00  0.17334075022E+03  0.17334075022E+03  0.00000000000E+00 0.  1.
         13   -1    0    0    0    0 -0.00000000000E+00 -0.00000000000E+00 -0.10000000000E+04  0.10000000000E+04  0.00000000000E+00 0.  1.
    9000005    2    1    2  501    0  0.35856287448E+02  0.13215360032E+03 -0.80136908694E+03  0.10340933453E+04  0.63906680868E+03 0.  0.
         13    1    3    3    0    0  0.22530747213E+03 -0.17113143386E+03 -0.45795082772E+03  0.53830138887E+03  0.00000000000E+00 0.  1.
          3    1    3    3  501    0 -0.18945118468E+03  0.30328503418E+03 -0.34341825922E+03  0.49579195647E+03  0.00000000000E+00 0.  1.
         -3    1    1    2    0  502 -0.35856287448E+02 -0.13215360032E+03 -0.25290162842E+02  0.13924740487E+03  0.00000000000E+00 0. -1.
<mgrwt>
<rscale>  1 0.65357221E+03</rscale>
<asrwt>0</asrwt>
<pdfrwt beam="1">  1       21 0.26667807E-01 0.65357221E+03</pdfrwt>
<pdfrwt beam="2">0</pdfrwt>
<totfact> 0.12822136E+03</totfact>
</mgrwt>
</event>
<event>
 6    1  0.1364923E-004  0.6515320E+03  0.7818608E-02  0.9803909E-01
         21   -1    0    0  501  502  0.00000000000E+00  0.00000000000E+00  0.41234657005E+03  0.41234657005E+03  0.00000000000E+00 0. -1.
         13   -1    0    0    0    0 -0.00000000000E+00 -0.00000000000E+00 -0.10000000000E+04  0.10000000000E+04  0.00000000000E+00 0.  1.
    9000005    2    1    2  501    0  0.11838097542E+02  0.44622440112E+02 -0.89195036685E+03  0.11045675446E+04  0.64989437671E+03 0.  0.
         13    1    3    3    0    0 -0.13951456177E+03  0.20827893538E+03 -0.80865484176E+02  0.26340777210E+03  0.00000000000E+00 0.  1.
          3    1    3    3  501    0  0.15135265931E+03 -0.16365649527E+03 -0.81108488268E+03  0.84115977248E+03  0.00000000000E+00 0.  1.
         -1    1    1    2    0  502 -0.11838097542E+02 -0.44622440112E+02  0.30429693691E+03  0.30777902548E+03  0.00000000000E+00 0. -1.
<mgrwt>
<rscale>  1 0.65153204E+03</rscale>
<asrwt>0</asrwt>
<pdfrwt beam="1">  1       21 0.63437932E-01 0.65153204E+03</pdfrwt>
<pdfrwt beam="2">0</pdfrwt>
<totfact> 0.20959486E+02</totfact>
</mgrwt>
</event>
<event>
 6    1  0.1364923E-004  0.6463562E+03  0.7818608E-02  0.9813641E-01
         21   -1    0    0  501  502  0.00000000000E+00  0.00000000000E+00  0.15148763264E+03  0.15148763264E+03  0.00000000000E+00 0.  1.
         13   -1    0    0    0    0 -0.00000000000E+00 -0.00000000000E+00 -0.10000000000E+04  0.10000000000E+04  0.00000000000E+00 0.  1.
    9000005    2    1    2  501    0  0.60821491953E+02  0.20811110150E+02 -0.86989561255E+03  0.10837410507E+04  0.64315156228E+03 0.  0.
         13    1    3    3    0    0  0.60227849297E+02  0.31727355377E+03 -0.29730257743E+03  0.43895184736E+03  0.00000000000E+00 0.  1.
          3    1    3    3  501    0  0.59364265613E+00 -0.29646244362E+03 -0.57259303512E+03  0.64478920335E+03  0.00000000000E+00 0.  1.
         -3    1    1    2    0  502 -0.60821491953E+02 -0.20811110150E+02  0.21383245194E+02  0.67746581936E+02  0.00000000000E+00 0. -1.
<mgrwt>
<rscale>  1 0.64635616E+03</rscale>
<asrwt>0</asrwt>
<pdfrwt beam="1">  1       21 0.23305789E-01 0.64635616E+03</pdfrwt>
<pdfrwt beam="2">0</pdfrwt>
<totfact> 0.16703779E+03</totfact>
</mgrwt>
</event>
<event>
 6    1  0.1364923E-004  0.6591956E+03  0.7818608E-02  0.9789676E-01
         21   -1    0    0  501  502  0.00000000000E+00  0.00000000000E+00  0.18196766888E+03  0.18196766888E+03  0.00000000000E+00 0.  1.
         13   -1    0    0    0    0 -0.00000000000E+00 -0.00000000000E+00 -0.10000000000E+04  0.10000000000E+04  0.00000000000E+00 0.  1.
    9000005    2    1    2  501    0 -0.85085944143E+02  0.45063436823E+02 -0.85431960299E+03  0.10790740475E+04  0.65212612631E+03 0.  0.
         13    1    3    3    0    0 -0.11256405963E+03  0.33297242691E+03 -0.34004039547E+03  0.48904884741E+03  0.00000000000E+00 0.  1.
          3    1    3    3  501    0  0.27478115490E+02 -0.28790899008E+03 -0.51427920752E+03  0.59002520005E+03  0.00000000000E+00 0.  1.
         -3    1    1    2    0  502  0.85085944143E+02 -0.45063436823E+02  0.36287271867E+02  0.10289362142E+03  0.00000000000E+00 0. -1.
<mgrwt>
<rscale>  1 0.65919558E+03</rscale>
<asrwt>0</asrwt>
<pdfrwt beam="1">  1       21 0.27995025E-01 0.65919558E+03</pdfrwt>
<pdfrwt beam="2">0</pdfrwt>
<totfact> 0.11642501E+03</totfact>
</mgrwt>
</event>
<event>
 6    1  0.1364923E-004  0.6558389E+03  0.7818608E-02  0.9795884E-01
         21   -1    0    0  501  502  0.00000000000E+00  0.00000000000E+00  0.69739497268E+03  0.69739497268E+03  0.00000000000E+00 0. -1.
         13   -1    0    0    0    0 -0.00000000000E+00 -0.00000000000E+00 -0.10000000000E+04  0.10000000000E+04  0.00000000000E+00 0.  1.
    9000005    2    1    2  501    0 -0.56552283001E+02  0.97847971629E+01 -0.89092207399E+03  0.11062851264E+04  0.65332284210E+03 0.  0.
         13    1    3    3    0    0  0.13708193757E+03  0.22563851176E+03 -0.72638928040E+03  0.77288135071E+03  0.00000000000E+00 0.  1.
          1    1    3    3  501    0 -0.19363422057E+03 -0.21585371460E+03 -0.16453279359E+03  0.33340377570E+03  0.00000000000E+00 0.  1.
         -3    1    1    2    0  502  0.56552283001E+02 -0.97847971629E+01  0.58831704666E+03  0.59110984627E+03  0.00000000000E+00 0. -1.
<mgrwt>
<rscale>  1 0.65583888E+03</rscale>
<asrwt>0</asrwt>
<pdfrwt beam="1">  1       21 0.10729153E+00 0.65583888E+03</pdfrwt>
<pdfrwt beam="2">0</pdfrwt>
<totfact> 0.60861628E+01</totfact>
</mgrwt>
</event>
<event>
 6    1  0.1364923E-004  0.7203647E+03  0.7818608E-02  0.9683026E-01
         21   -1    0    0  501  502  0.00000000000E+00  0.00000000000E+00  0.37304977645E+03  0.37304977645E+03  0.00000000000E+00 0. -1.
         13   -1    0    0    0    0 -0.00000000000E+00 -0.00000000000E+00 -0.10000000000E+04  0.10000000000E+04  0.00000000000E+00 0.  1.
    9000005    2    1    2  501    0  0.11975330187E+03  0.29333832495E+03 -0.74370150029E+03  0.10353826522E+04  0.64694442475E+03 0.  0.
         13    1    3    3    0    0 -0.16872051064E+03  0.37960468884E+03 -0.48336770731E+03  0.63734658622E+03  0.00000000000E+00 0.  1.
          1    1    3    3  501    0  0.28847381250E+03 -0.86266363882E+02 -0.26033379298E+03  0.39803606596E+03  0.00000000000E+00 0.  1.
         -3    1    1    2    0  502 -0.11975330187E+03 -0.29333832495E+03  0.11675127674E+03  0.33766712427E+03  0.00000000000E+00 0. -1.
<mgrwt>
<rscale>  1 0.72036471E+03</rscale>
<asrwt>0</asrwt>
<pdfrwt beam="1">  1       21 0.57392272E-01 0.72036471E+03</pdfrwt>
<pdfrwt beam="2">0</pdfrwt>
<totfact> 0.25977655E+02</totfact>
</mgrwt>
</event>
<event>
 6    1  0.1364923E-004  0.7104871E+03  0.7818608E-02  0.9699464E-01
         21   -1    0    0  501  502  0.00000000000E+00  0.00000000000E+00  0.34166269028E+03  0.34166269028E+03  0.00000000000E+00 0.  1.
         13   -1    0    0    0    0 -0.00000000000E+00 -0.00000000000E+00 -0.10000000000E+04  0.10000000000E+04  0.00000000000E+00 0.  1.
    9000005    2    1    2  501    0  0.20201702583E+03 -0.14012650196E+03 -0.79022719733E+03  0.10626622284E+04  0.66659258397E+03 0.  0.
         13    1    3    3    0    0  0.14442888196E+03 -0.28901441607E+03 -0.83627357654E+03  0.89651688744E+03  0.00000000000E+00 0.  1.
          3    1    3    3  501    0  0.57588143872E+02  0.14888791412E+03  0.46046379215E+02  0.16614534096E+03  0.00000000000E+00 0.  1.
         -3    1    1    2    0  502 -0.20201702583E+03  0.14012650196E+03  0.13188988761E+03  0.27900046188E+03  0.00000000000E+00 0. -1.
<mgrwt>
<rscale>  1 0.71048715E+03</rscale>
<asrwt>0</asrwt>
<pdfrwt beam="1">  1       21 0.52563489E-01 0.71048715E+03</pdfrwt>
<pdfrwt beam="2">0</pdfrwt>
<totfact> 0.31492005E+02</totfact>
</mgrwt>
</event>
<event>
 6    1  0.1364923E-004  0.6485534E+03  0.7818608E-02  0.9809498E-01
         21   -1    0    0  501  502  0.00000000000E+00  0.00000000000E+00  0.20297587451E+03  0.20297587451E+03  0.00000000000E+00 0.  1.
         13   -1    0    0    0    0 -0.00000000000E+00 -0.00000000000E+00 -0.10000000000E+04  0.10000000000E+04  0.00000000000E+00 0.  1.
    9000005    2    1    2  501    0 -0.29348106096E+02 -0.83488115590E+02 -0.87217128451E+03  0.10868781903E+04  0.64248725605E+03 0.  0.
         13    1    3    3    0    0  0.25344479260E+03  0.66960367227E+02 -0.63899076385E+03  0.69067152103E+03  0.00000000000E+00 0.  1.
          3    1    3    3  501    0 -0.28279289869E+03 -0.15044848282E+03 -0.23318052066E+03  0.39620666924E+03  0.00000000000E+00 0.  1.
         -3    1    1    2    0  502  0.29348106096E+02  0.83488115590E+02  0.75147159022E+02  0.11609768424E+03  0.00000000000E+00 0. -1.
<mgrwt>
<rscale>  1 0.64855335E+03</rscale>
<asrwt>0</asrwt>
<pdfrwt beam="1">  1       21 0.31227057E-01 0.64855335E+03</pdfrwt>
<pdfrwt beam="2">0</pdfrwt>
<totfact> 0.93645141E+02</totfact>
</mgrwt>
</event>
<event>
 6    1  0.1364923E-004  0.5680955E+03  0.7818608E-02  0.9973902E-01
         21   -1    0    0  501  502  0.00000000000E+00  0.00000000000E+00  0.11147744813E+03  0.11147744813E+03  0.00000000000E+00 0.  1.
         13   -1    0    0    0    0 -0.00000000000E+00 -0.00000000000E+00 -0.10000000000E+04  0.10000000000E+04  0.00000000000E+00 0.  1.
    9000005    2    1    2  501    0  0.30090361038E+02 -0.12793712502E+02 -0.90970502598E+03  0.10725184169E+04  0.56715378103E+03 0.  0.
         13    1    3    3    0    0 -0.29606806378E+02 -0.22423407679E+03 -0.79119181463E+03  0.82288636622E+03  0.00000000000E+00 0.  1.
          1    1    3    3  501    0  0.59697167416E+02  0.21144036429E+03 -0.11851321135E+03  0.24963205065E+03  0.00000000000E+00 0.  1.
         -3    1    1    2    0  502 -0.30090361038E+02  0.12793712502E+02  0.21182474106E+02  0.38959031253E+02  0.00000000000E+00 0. -1.
<mgrwt>
<rscale>  1 0.56809552E+03</rscale>
<asrwt>0</asrwt>
<pdfrwt beam="1">  1       21 0.17150376E-01 0.56809552E+03</pdfrwt>
<pdfrwt beam="2">0</pdfrwt>
<totfact> 0.30148801E+03</totfact>
</mgrwt>
</event>
<event>
 6    1  0.1364923E-004  0.6523968E+03  0.7818608E-02  0.9802292E-01
         21   -1    0    0  501  502  0.00000000000E+00  0.00000000000E+00  0.31610595233E+03  0.31610595233E+03  0.00000000000E+00 0. -1.
         13   -1    0    0    0    0 -0.00000000000E+00 -0.00000000000E+00 -0.10000000000E+04  0.10000000000E+04  0.00000000000E+00 0.  1.
    9000005    2    1    2  501    0 -0.30923057287E+02  0.25887950149E+02 -0.89144678437E+03  0.11046714236E+04  0.65114910985E+03 0.  0.
         13    1    3    3    0    0  0.27849008269E+02  0.11921864983E+03 -0.96458992689E+03  0.97232832973E+03  0.00000000000E+00 0.  1.
          1    1    3    3  501    0 -0.58772065556E+02 -0.93330699677E+02  0.73143142519E+02  0.13234309385E+03  0.00000000000E+00 0.  1.
         -3    1    1    2    0  502  0.30923057287E+02 -0.25887950149E+02  0.20755273670E+03  0.21143452875E+03  0.00000000000E+00 0. -1.
<mgrwt>
<rscale>  1 0.65239680E+03</rscale>
<asrwt>0</asrwt>
<pdfrwt beam="1">  1       21 0.48631684E-01 0.65239680E+03</pdfrwt>
<pdfrwt beam="2">0</pdfrwt>
<totfact> 0.37420380E+02</totfact>
</mgrwt>
</event>
<event>
 6    1  0.1364923E-004  0.6378421E+03  0.7818608E-02  0.9829864E-01
         21   -1    0    0  501  502  0.00000000000E+00  0.00000000000E+00  0.26918954023E+03  0.26918954023E+03  0.00000000000E+00 0. -1.
         13   -1    0    0    0    0 -0.00000000000E+00 -0.00000000000E+00 -0.10000000000E+04  0.10000000000E+04  0.00000000000E+00 0.  1.
    9000005    2    1    2  501    0  0.10376316373E+03 -0.28001249866E+02 -0.87905505345E+03  0.10860848606E+04  0.62872225452E+03 0.  0.
         13    1    3    3    0    0  0.84059738899E+02 -0.17689632351E+03 -0.15907999163E+01  0.19585933631E+03  0.00000000000E+00 0.  1.
          3    1    3    3  501    0  0.19703424828E+02  0.14889507364E+03 -0.87746425353E+03  0.89022552431E+03  0.00000000000E+00 0.  1.
         -3    1    1    2    0  502 -0.10376316373E+03  0.28001249866E+02  0.14824459368E+03  0.18310467961E+03  0.00000000000E+00 0. -1.
<mgrwt>
<rscale>  1 0.63784209E+03</rscale>
<asrwt>0</asrwt>
<pdfrwt beam="1">  1       21 0.41413774E-01 0.63784209E+03</pdfrwt>
<pdfrwt beam="2">0</pdfrwt>
<totfact> 0.52589960E+02</totfact>
</mgrwt>
</event>
<event>
 6    1  0.1364923E-004  0.6813746E+03  0.7818608E-02  0.9749625E-01
         21   -1    0    0  501  502  0.00000000000E+00  0.00000000000E+00  0.26333792596E+03  0.26333792596E+03  0.00000000000E+00 0. -1.
         13   -1    0    0    0    0 -0.00000000000E+00 -0.00000000000E+00 -0.10000000000E+04  0.10000000000E+04  0.00000000000E+00 0.  1.
    9000005    2    1    2  501    0 -0.19516562088E+02  0.23487924006E+02 -0.88216280350E+03  0.11146670107E+04  0.68068991040E+03 0.  0.
         13    1    3    3    0    0 -0.88600798948E+02 -0.24366488824E+03 -0.77742144232E+03  0.81951618551E+03  0.00000000000E+00 0.  1.
          1    1    3    3  501    0  0.69084236860E+02  0.26715281224E+03 -0.10474136117E+03  0.29515082520E+03  0.00000000000E+00 0.  1.
         -1    1    1    2    0  502  0.19516562088E+02 -0.23487924006E+02  0.14550072946E+03  0.14867091525E+03  0.00000000000E+00 0. -1.
<mgrwt>
<rscale>  1 0.68137459E+03</rscale>
<asrwt>0</asrwt>
<pdfrwt beam="1">  1       21 0.40513526E-01 0.68137459E+03</pdfrwt>
<pdfrwt beam="2">0</pdfrwt>
<totfact> 0.54860336E+02</totfact>
</mgrwt>
</event>
<event>
 6    1  0.1364923E-004  0.6745747E+03  0.7818608E-02  0.9761729E-01
         21   -1    0    0  501  502  0.00000000000E+00  0.00000000000E+00  0.22118085293E+03  0.22118085293E+03  0.00000000000E+00 0. -1.
         13   -1    0    0    0    0 -0.00000000000E+00 -0.00000000000E+00 -0.10000000000E+04  0.10000000000E+04  0.00000000000E+00 0.  1.
    9000005    2    1    2  501    0 -0.16230547323E+03  0.63353292129E+02 -0.79911557527E+03  0.10457709009E+04  0.65168578957E+03 0.  0.
         13    1    3    3    0    0 -0.61073000159E+02  0.84431693487E+02  0.97802217577E+02  0.14291219674E+03  0.00000000000E+00 0.  1.
          3    1    3    3  501    0 -0.10123247307E+03 -0.21078401357E+02 -0.89691779284E+03  0.90285870419E+03  0.00000000000E+00 0.  1.
         -1    1    1    2    0  502  0.16230547323E+03 -0.63353292129E+02  0.20296428195E+02  0.17540995200E+03  0.00000000000E+00 0. -1.
<mgrwt>
<rscale>  1 0.67457474E+03</rscale>
<asrwt>0</asrwt>
<pdfrwt beam="1">  1       21 0.34027823E-01 0.67457474E+03</pdfrwt>
<pdfrwt beam="2">0</pdfrwt>
<totfact> 0.78576585E+02</totfact>
</mgrwt>
</event>
<event>
 6    1  0.1364923E-004  0.6683303E+03  0.7818608E-02  0.9772979E-01
         21   -1    0    0  501  502  0.00000000000E+00  0.00000000000E+00  0.31522471544E+03  0.31522471544E+03  0.00000000000E+00 0. -1.
         13   -1    0    0    0    0 -0.00000000000E+00 -0.00000000000E+00 -0.10000000000E+04  0.10000000000E+04  0.00000000000E+00 0.  1.
    9000005    2    1    2  501    0  0.47225170133E+02  0.16289701483E+03 -0.84808638785E+03  0.10797758450E+04  0.64645162237E+03 0.  0.
         13    1    3    3    0    0 -0.20625089572E+02  0.64066680909E+02  0.10197361521E+03  0.12218245423E+03  0.00000000000E+00 0.  1.
          1    1    3    3  501    0  0.67850259705E+02  0.98830333920E+02 -0.95006000306E+03  0.95759339077E+03  0.00000000000E+00 0.  1.
         -1    1    1    2    0  502 -0.47225170133E+02 -0.16289701483E+03  0.16331110329E+03  0.23544887044E+03  0.00000000000E+00 0. -1.
<mgrwt>
<rscale>  1 0.66833027E+03</rscale>
<asrwt>0</asrwt>
<pdfrwt beam="1">  1       21 0.48496109E-01 0.66833027E+03</pdfrwt>
<pdfrwt beam="2">0</pdfrwt>
<totfact> 0.37588829E+02</totfact>
</mgrwt>
</event>
<event>
 6    1  0.1364923E-004  0.6400919E+03  0.7818608E-02  0.9825551E-01
         21   -1    0    0  501  502  0.00000000000E+00  0.00000000000E+00  0.14493661719E+03  0.14493661719E+03  0.00000000000E+00 0.  1.
         13   -1    0    0    0    0 -0.00000000000E+00 -0.00000000000E+00 -0.10000000000E+04  0.10000000000E+04  0.00000000000E+00 0.  1.
    9000005    2    1    2  501    0 -0.47845973731E+02 -0.71171715532E+01 -0.88183020163E+03  0.10896523163E+04  0.63826152525E+03 0.  0.
         13    1    3    3    0    0 -0.90718489264E+02  0.16248000289E+03 -0.89507936291E+03  0.91421915400E+03  0.00000000000E+00 0.  1.
          3    1    3    3  501    0  0.42872515533E+02 -0.16959717444E+03  0.13249161278E+02  0.17543316232E+03  0.00000000000E+00 0.  1.
         -3    1    1    2    0  502  0.47845973731E+02  0.71171715532E+01  0.26766818827E+02  0.55284300876E+02  0.00000000000E+00 0. -1.
<mgrwt>
<rscale>  1 0.64009192E+03</rscale>
<asrwt>0</asrwt>
<pdfrwt beam="1">  1       21 0.22297940E-01 0.64009192E+03</pdfrwt>
<pdfrwt beam="2">0</pdfrwt>
<totfact> 0.18206216E+03</totfact>
</mgrwt>
</event>
<event>
 6    1  0.1364923E-004  0.6711453E+03  0.7818608E-02  0.9767891E-01
         21   -1    0    0  501  502  0.00000000000E+00  0.00000000000E+00  0.41357652351E+03  0.41357652351E+03  0.00000000000E+00 0. -1.
         13   -1    0    0    0    0 -0.00000000000E+00 -0.00000000000E+00 -0.10000000000E+04  0.10000000000E+04  0.00000000000E+00 0.  1.
    9000005    2    1    2  501    0  0.55672513343E+01 -0.36390967145E+02 -0.88613777039E+03  0.11116097128E+04  0.67013484374E+03 0.  0.
         13    1    3    3    0    0 -0.29643428446E+03  0.12307552332E+03 -0.34072765651E+03  0.46809849963E+03  0.00000000000E+00 0.  1.
          1    1    3    3  501    0  0.30200153580E+03 -0.15946649046E+03 -0.54541011388E+03  0.64351121321E+03  0.00000000000E+00 0.  1.
         -1    1    1    2    0  502 -0.55672513343E+01  0.36390967145E+02  0.29971429390E+03  0.30196681067E+03  0.00000000000E+00 0. -1.
<mgrwt>
<rscale>  1 0.67114529E+03</rscale>
<asrwt>0</asrwt>
<pdfrwt beam="1">  1       21 0.63627156E-01 0.67114529E+03</pdfrwt>
<pdfrwt beam="2">0</pdfrwt>
<totfact> 0.20775464E+02</totfact>
</mgrwt>
</event>
<event>
 6    1  0.1364923E-004  0.6554219E+03  0.7818608E-02  0.9796658E-01
         21   -1    0    0  501  502  0.00000000000E+00  0.00000000000E+00  0.15398836316E+03  0.15398836316E+03  0.00000000000E+00 0. -1.
         13   -1    0    0    0    0 -0.00000000000E+00 -0.00000000000E+00 -0.10000000000E+04  0.10000000000E+04  0.00000000000E+00 0.  1.
    9000005    2    1    2  501    0  0.68518364350E+02 -0.60896323478E+02 -0.83522589616E+03  0.10616874386E+04  0.64897980805E+03 0.  0.
         13    1    3    3    0    0 -0.17529391108E+03  0.58139204467E+02 -0.75716398937E+03  0.77936219382E+03  0.00000000000E+00 0.  1.
          3    1    3    3  501    0  0.24381227543E+03 -0.11903552794E+03 -0.78061906788E+02  0.28232524481E+03  0.00000000000E+00 0.  1.
         -3    1    1    2    0  502 -0.68518364350E+02  0.60896323478E+02 -0.10785740682E+02  0.92300924526E+02  0.00000000000E+00 0. -1.
<mgrwt>
<rscale>  1 0.65542194E+03</rscale>
<asrwt>0</asrwt>
<pdfrwt beam="1">  1       21 0.23690517E-01 0.65542194E+03</pdfrwt>
<pdfrwt beam="2">0</pdfrwt>
<totfact> 0.16172351E+03</totfact>
</mgrwt>
</event>
<event>
 6    1  0.1364923E-004  0.6519193E+03  0.7818608E-02  0.9803184E-01
         21   -1    0    0  501  502  0.00000000000E+00  0.00000000000E+00  0.71008717806E+03  0.71008717806E+03  0.00000000000E+00 0. -1.
         13   -1    0    0    0    0 -0.00000000000E+00 -0.00000000000E+00 -0.10000000000E+04  0.10000000000E+04  0.00000000000E+00 0.  1.
    9000005    2    1    2  501    0  0.32934792687E+02 -0.38937674785E+02 -0.89255875654E+03  0.11052872396E+04  0.64992146065E+03 0.  0.
         13    1    3    3    0    0 -0.12262248708E+03  0.80996194261E+02 -0.89685626245E+03  0.90881671052E+03  0.00000000000E+00 0.  1.
          1    1    3    3  501    0  0.15555727977E+03 -0.11993386905E+03  0.42975059076E+01  0.19647052906E+03  0.00000000000E+00 0.  1.
         -1    1    1    2    0  502 -0.32934792687E+02  0.38937674785E+02  0.60264593460E+03  0.60479993847E+03  0.00000000000E+00 0. -1.
<mgrwt>
<rscale>  1 0.65191928E+03</rscale>
<asrwt>0</asrwt>
<pdfrwt beam="1">  1       21 0.10924418E+00 0.65191928E+03</pdfrwt>
<pdfrwt beam="2">0</pdfrwt>
<totfact> 0.58214619E+01</totfact>
</mgrwt>
</event>
<event>
 6    1  0.1364923E-004  0.7340804E+03  0.7818608E-02  0.9660662E-01
         21   -1    0    0  501  502  0.00000000000E+00  0.00000000000E+00  0.32832786093E+03  0.32832786093E+03  0.00000000000E+00 0. -1.
         13   -1    0    0    0    0 -0.00000000000E+00 -0.00000000000E+00 -0.10000000000E+04  0.10000000000E+04  0.00000000000E+00 0.  1.
    9000005    2    1    2  501    0  0.60406037109E+02 -0.32338643965E+03 -0.67801220960E+03  0.99928701976E+03  0.65623647629E+03 0.  0.
         13    1    3    3    0    0 -0.78383430764E+02  0.96426000269E+02 -0.51220167753E+03  0.52706023774E+03  0.00000000000E+00 0.  1.
          3    1    3    3  501    0  0.13878946787E+03 -0.41981243992E+03 -0.16581053207E+03  0.47222678201E+03  0.00000000000E+00 0.  1.
         -1    1    1    2    0  502 -0.60406037109E+02  0.32338643965E+03  0.63400705371E+01  0.32904084118E+03  0.00000000000E+00 0. -1.
<mgrwt>
<rscale>  1 0.73408037E+03</rscale>
<asrwt>0</asrwt>
<pdfrwt beam="1">  1       21 0.50511977E-01 0.73408037E+03</pdfrwt>
<pdfrwt beam="2">0</pdfrwt>
<totfact> 0.34247063E+02</totfact>
</mgrwt>
</event>
<event>
 6    1  0.1364923E-004  0.6514936E+03  0.7818608E-02  0.9803981E-01
         21   -1    0    0  501  502  0.00000000000E+00  0.00000000000E+00  0.12491836307E+03  0.12491836307E+03  0.00000000000E+00 0.  1.
         13   -1    0    0    0    0 -0.00000000000E+00 -0.00000000000E+00 -0.10000000000E+04  0.10000000000E+04  0.00000000000E+00 0.  1.
    9000005    2    1    2  501    0  0.36401427095E+02 -0.32281278726E+02 -0.84756426718E+03  0.10690224733E+04  0.64967431582E+03 0.  0.
         13    1    3    3    0    0  0.15985038472E+03  0.27223780549E+03 -0.33623181066E+03  0.46121296462E+03  0.00000000000E+00 0.  1.
          3    1    3    3  501    0 -0.12344895762E+03 -0.30451908422E+03 -0.51133245653E+03  0.60780950872E+03  0.00000000000E+00 0.  1.
         -1    1    1    2    0  502 -0.36401427095E+02  0.32281278726E+02 -0.27517369751E+02  0.55895889731E+02  0.00000000000E+00 0. -1.
<mgrwt>
<rscale>  1 0.65149356E+03</rscale>
<asrwt>0</asrwt>
<pdfrwt beam="1">  1       21 0.19218209E-01 0.65149356E+03</pdfrwt>
<pdfrwt beam="2">0</pdfrwt>
<totfact> 0.24221063E+03</totfact>
</mgrwt>
</event>
<event>
 6    1  0.1364923E-004  0.6504104E+03  0.7818608E-02  0.9806009E-01
         21   -1    0    0  501  502  0.00000000000E+00  0.00000000000E+00  0.12304274254E+03  0.12304274254E+03  0.00000000000E+00 0.  1.
         13   -1    0    0    0    0 -0.00000000000E+00 -0.00000000000E+00 -0.10000000000E+04  0.10000000000E+04  0.00000000000E+00 0.  1.
    9000005    2    1    2  501    0  0.22579413039E+02 -0.14525166785E+01 -0.88563483811E+03  0.10988097051E+04  0.65001673967E+03 0.  0.
         13    1    3    3    0    0 -0.47742892441E+02 -0.29454482128E+03 -0.22844268359E+03  0.37579528365E+03  0.00000000000E+00 0.  1.
          1    1    3    3  501    0  0.70322305481E+02  0.29309230461E+03 -0.65719215452E+03  0.72301442145E+03  0.00000000000E+00 0.  1.
         -1    1    1    2    0  502 -0.22579413039E+02  0.14525166785E+01  0.86775806482E+01  0.24233037445E+02  0.00000000000E+00 0. -1.
<mgrwt>
<rscale>  1 0.65041041E+03</rscale>
<asrwt>0</asrwt>
<pdfrwt beam="1">  1       21 0.18929652E-01 0.65041041E+03</pdfrwt>
<pdfrwt beam="2">0</pdfrwt>
<totfact> 0.24931834E+03</totfact>
</mgrwt>
</event>
<event>
 6    1  0.1364923E-004  0.6503163E+03  0.7818608E-02  0.9806186E-01
         21   -1    0    0  501  502  0.00000000000E+00  0.00000000000E+00  0.11632633473E+03  0.11632633473E+03  0.00000000000E+00 0.  1.
         13   -1    0    0    0    0 -0.00000000000E+00 -0.00000000000E+00 -0.10000000000E+04  0.10000000000E+04  0.00000000000E+00 0.  1.
    9000005    2    1    2  501    0 -0.42364808099E+01 -0.23369426823E+02 -0.87671593593E+03  0.10915778423E+04  0.64988250908E+03 0.  0.
         13    1    3    3    0    0  0.20390656618E+03  0.17068987789E+03 -0.13726169569E+03  0.29925523429E+03  0.00000000000E+00 0.  1.
          3    1    3    3  501    0 -0.20814304699E+03 -0.19405930471E+03 -0.73945424024E+03  0.79232260801E+03  0.00000000000E+00 0.  1.
         -3    1    1    2    0  502  0.42364808099E+01  0.23369426823E+02 -0.69577293450E+01  0.24748492425E+02  0.00000000000E+00 0. -1.
<mgrwt>
<rscale>  1 0.65031635E+03</rscale>
<asrwt>0</asrwt>
<pdfrwt beam="1">  1       21 0.17896359E-01 0.65031635E+03</pdfrwt>
<pdfrwt beam="2">0</pdfrwt>
<totfact> 0.27740472E+03</totfact>
</mgrwt>
</event>
<event>
 6    1  0.1364923E-004  0.6373583E+03  0.7818608E-02  0.9830794E-01
         21   -1    0    0  501  502  0.00000000000E+00  0.00000000000E+00  0.13050341444E+03  0.13050341444E+03  0.00000000000E+00 0.  1.
         13   -1    0    0    0    0 -0.00000000000E+00 -0.00000000000E+00 -0.10000000000E+04  0.10000000000E+04  0.00000000000E+00 0.  1.
    9000005    2    1    2  501    0  0.34948298125E+02  0.16892695904E+02 -0.88335669667E+03  0.10892863137E+04  0.63617519038E+03 0.  0.
         13    1    3    3    0    0  0.29470211497E+03  0.71707695966E+02 -0.71041057325E+03  0.77244709386E+03  0.00000000000E+00 0.  1.
          1    1    3    3  501    0 -0.25975381684E+03 -0.54815000063E+02 -0.17294612342E+03  0.31683921980E+03  0.00000000000E+00 0.  1.
         -1    1    1    2    0  502 -0.34948298125E+02 -0.16892695904E+02  0.13860111115E+02  0.41217100781E+02  0.00000000000E+00 0. -1.
<mgrwt>
<rscale>  1 0.63735831E+03</rscale>
<asrwt>0</asrwt>
<pdfrwt beam="1">  1       21 0.20077448E-01 0.63735831E+03</pdfrwt>
<pdfrwt beam="2">0</pdfrwt>
<totfact> 0.22287994E+03</totfact>
</mgrwt>
</event>
<event>
 6    1  0.1364923E-004  0.6431182E+03  0.7818608E-02  0.9819779E-01
         21   -1    0    0  501  502  0.00000000000E+00  0.00000000000E+00  0.14098630493E+03  0.14098630493E+03  0.00000000000E+00 0.  1.
         13   -1    0    0    0    0 -0.00000000000E+00 -0.00000000000E+00 -0.10000000000E+04  0.10000000000E+04  0.00000000000E+00 0.  1.
    9000005    2    1    2  501    0  0.69743923811E+02  0.74349457429E+02 -0.78609128185E+03  0.10156478229E+04  0.63498735422E+03 0.  0.
         13    1    3    3    0    0  0.23734274122E+03  0.20977363595E+03 -0.16276771962E+03  0.35613183753E+03  0.00000000000E+00 0.  1.
          1    1    3    3  501    0 -0.16759881741E+03 -0.13542417852E+03 -0.62332356223E+03  0.65951598537E+03  0.00000000000E+00 0.  1.
         -1    1    1    2    0  502 -0.69743923811E+02 -0.74349457429E+02 -0.72922413223E+02  0.12533848203E+03  0.00000000000E+00 0. -1.
<mgrwt>
<rscale>  1 0.64311818E+03</rscale>
<asrwt>0</asrwt>
<pdfrwt beam="1">  1       21 0.21690200E-01 0.64311818E+03</pdfrwt>
<pdfrwt beam="2">0</pdfrwt>
<totfact> 0.19203405E+03</totfact>
</mgrwt>
</event>
<event>
 6    1  0.1364923E-004  0.6661247E+03  0.7818608E-02  0.9776984E-01
         21   -1    0    0  501  502  0.00000000000E+00  0.00000000000E+00  0.17382383672E+03  0.17382383672E+03  0.00000000000E+00 0. -1.
         13   -1    0    0    0    0 -0.00000000000E+00 -0.00000000000E+00 -0.10000000000E+04  0.10000000000E+04  0.00000000000E+00 0.  1.
    9000005    2    1    2  501    0 -0.38247601214E+02 -0.14591908702E+03 -0.75554397976E+03  0.10072580410E+04  0.64881954105E+03 0.  0.
         13    1    3    3    0    0 -0.60127507794E+02  0.96103048998E+02 -0.75579432683E+03  0.76424876688E+03  0.00000000000E+00 0.  1.
          1    1    3    3  501    0  0.21879906580E+02 -0.24202213601E+03  0.25034706711E+00  0.24300927412E+03  0.00000000000E+00 0.  1.
         -1    1    1    2    0  502  0.38247601214E+02  0.14591908702E+03 -0.70632183523E+02  0.16656579572E+03  0.00000000000E+00 0. -1.
<mgrwt>
<rscale>  1 0.66612465E+03</rscale>
<asrwt>0</asrwt>
<pdfrwt beam="1">  1       21 0.26742128E-01 0.66612465E+03</pdfrwt>
<pdfrwt beam="2">0</pdfrwt>
<totfact> 0.12743042E+03</totfact>
</mgrwt>
</event>
<event>
 6    1  0.1364923E-004  0.5531058E+03  0.7818608E-02  0.1000778E+00
         21   -1    0    0  501  502  0.00000000000E+00  0.00000000000E+00  0.93415782234E+02  0.93415782234E+02  0.00000000000E+00 0.  1.
         13   -1    0    0    0    0 -0.00000000000E+00 -0.00000000000E+00 -0.10000000000E+04  0.10000000000E+04  0.00000000000E+00 0.  1.
    9000005    2    1    2  501    0 -0.33481828480E+02 -0.89905005440E+01 -0.90250461764E+03  0.10585086902E+04  0.55201829716E+03 0.  0.
         13    1    3    3    0    0  0.20753661700E+03  0.74005638963E+02 -0.15678585975E+03  0.27042575286E+03  0.00000000000E+00 0.  1.
          1    1    3    3  501    0 -0.24101844548E+03 -0.82996139507E+02 -0.74571875788E+03  0.78808293732E+03  0.00000000000E+00 0.  1.
         -1    1    1    2    0  502  0.33481828480E+02  0.89905005440E+01 -0.40796001299E+01  0.34907092054E+02  0.00000000000E+00 0. -1.
<mgrwt>
<rscale>  1 0.55310583E+03</rscale>
<asrwt>0</asrwt>
<pdfrwt beam="1">  1       21 0.14371658E-01 0.55310583E+03</pdfrwt>
<pdfrwt beam="2">0</pdfrwt>
<totfact> 0.41979017E+03</totfact>
</mgrwt>
</event>
<event>
 6    1  0.1364923E-004  0.5124849E+03  0.7818608E-02  0.1010571E+00
         21   -1    0    0  501  502  0.00000000000E+00  0.00000000000E+00  0.11712137182E+03  0.11712137182E+03  0.00000000000E+00 0.  1.
         13   -1    0    0    0    0 -0.00000000000E+00 -0.00000000000E+00 -0.10000000000E+04  0.10000000000E+04  0.00000000000E+00 0.  1.
    9000005    2    1    2  501    0 -0.10494231172E+03  0.13439680328E+03 -0.62993402863E+03  0.81206996638E+03  0.48328600265E+03 0.  0.
         13    1    3    3    0    0 -0.28326765012E+03  0.91343673223E+02 -0.51727596993E+03  0.59679029592E+03  0.00000000000E+00 0.  1.
          3    1    3    3  501    0  0.17832533840E+03  0.43053130057E+02 -0.11265805870E+03  0.21527967046E+03  0.00000000000E+00 0.  1.
         -1    1    1    2    0  502  0.10494231172E+03 -0.13439680328E+03 -0.25294459955E+03  0.30505140544E+03  0.00000000000E+00 0. -1.
<mgrwt>
<rscale>  1 0.51248488E+03</rscale>
<asrwt>0</asrwt>
<pdfrwt beam="1">  1       21 0.18018672E-01 0.51248488E+03</pdfrwt>
<pdfrwt beam="2">0</pdfrwt>
<totfact> 0.27523134E+03</totfact>
</mgrwt>
</event>
<event>
 6    1  0.1364923E-004  0.6926703E+03  0.7818608E-02  0.9729850E-01
         21   -1    0    0  501  502  0.00000000000E+00  0.00000000000E+00  0.13457531001E+03  0.13457531001E+03  0.00000000000E+00 0.  1.
         13   -1    0    0    0    0 -0.00000000000E+00 -0.00000000000E+00 -0.10000000000E+04  0.10000000000E+04  0.00000000000E+00 0.  1.
    9000005    2    1    2  501    0 -0.20793178335E+02  0.10151228660E+02 -0.86886853646E+03  0.11111816402E+04  0.69228368474E+03 0.  0.
         13    1    3    3    0    0  0.14961817137E+03  0.17396983239E+03 -0.84266995251E+03  0.87335201875E+03  0.00000000000E+00 0.  1.
          3    1    3    3  501    0 -0.17041134971E+03 -0.16381860373E+03 -0.26198583947E+02  0.23782962145E+03  0.00000000000E+00 0.  1.
         -1    1    1    2    0  502  0.20793178335E+02 -0.10151228660E+02  0.34438464653E+01  0.23393669807E+02  0.00000000000E+00 0. -1.
<mgrwt>
<rscale>  1 0.69267027E+03</rscale>
<asrwt>0</asrwt>
<pdfrwt beam="1">  1       21 0.20703893E-01 0.69267027E+03</pdfrwt>
<pdfrwt beam="2">0</pdfrwt>
<totfact> 0.20964214E+03</totfact>
</mgrwt>
</event>
<event>
 6    1  0.1364923E-004  0.6211521E+03  0.7818608E-02  0.9862469E-01
         21   -1    0    0  501  502  0.00000000000E+00  0.00000000000E+00  0.12868616325E+03  0.12868616325E+03  0.00000000000E+00 0.  1.
         13   -1    0    0    0    0 -0.00000000000E+00 -0.00000000000E+00 -0.10000000000E+04  0.10000000000E+04  0.00000000000E+00 0.  1.
    9000005    2    1    2  501    0  0.30829362500E+02  0.32800476581E+01 -0.89516890112E+03  0.10895674669E+04  0.62037786484E+03 0.  0.
         13    1    3    3    0    0  0.26868796379E+03 -0.15729973415E+03 -0.31830320933E+03  0.44525651182E+03  0.00000000000E+00 0.  1.
          1    1    3    3  501    0 -0.23785860129E+03  0.16057978181E+03 -0.57686569178E+03  0.64431095512E+03  0.00000000000E+00 0.  1.
         -3    1    1    2    0  502 -0.30829362500E+02 -0.32800476581E+01  0.23855064370E+02  0.39118696308E+02  0.00000000000E+00 0. -1.
<mgrwt>
<rscale>  1 0.62115208E+03</rscale>
<asrwt>0</asrwt>
<pdfrwt beam="1">  1       21 0.19797871E-01 0.62115208E+03</pdfrwt>
<pdfrwt beam="2">0</pdfrwt>
<totfact> 0.22909837E+03</totfact>
</mgrwt>
</event>
<event>
 6    1  0.1364923E-004  0.6549038E+03  0.7818608E-02  0.9797621E-01
         21   -1    0    0  501  502  0.00000000000E+00  0.00000000000E+00  0.12924744318E+03  0.12924744318E+03  0.00000000000E+00 0.  1.
         13   -1    0    0    0    0 -0.00000000000E+00 -0.00000000000E+00 -0.10000000000E+04  0.10000000000E+04  0.00000000000E+00 0.  1.
    9000005    2    1    2  501    0 -0.35002037299E+02  0.53608904442E+02 -0.78796029451E+03  0.10245879192E+04  0.65176676909E+03 0.  0.
         13    1    3    3    0    0 -0.25140921970E+03  0.24793670716E+03 -0.33792759899E+03  0.48874765336E+03  0.00000000000E+00 0.  1.
          1    1    3    3  501    0  0.21640718240E+03 -0.19432780272E+03 -0.45003269552E+03  0.53584026588E+03  0.00000000000E+00 0.  1.
         -1    1    1    2    0  502  0.35002037299E+02 -0.53608904442E+02 -0.82792262310E+02  0.10465952393E+03  0.00000000000E+00 0. -1.
<mgrwt>
<rscale>  1 0.65490379E+03</rscale>
<asrwt>0</asrwt>
<pdfrwt beam="1">  1       21 0.19884221E-01 0.65490379E+03</pdfrwt>
<pdfrwt beam="2">0</pdfrwt>
<totfact> 0.22689401E+03</totfact>
</mgrwt>
</event>
<event>
 6    1  0.1364923E-004  0.6503742E+03  0.7818608E-02  0.9806077E-01
         21   -1    0    0  501  502  0.00000000000E+00  0.00000000000E+00  0.22409271601E+03  0.22409271601E+03  0.00000000000E+00 0. -1.
         13   -1    0    0    0    0 -0.00000000000E+00 -0.00000000000E+00 -0.10000000000E+04  0.10000000000E+04  0.00000000000E+00 0.  1.
    9000005    2    1    2  501    0  0.28039031038E+02  0.54463210740E+02 -0.88541802252E+03  0.10986135128E+04  0.64748293206E+03 0.  0.
         13    1    3    3    0    0  0.76371822761E+02  0.88374868320E+02  0.73418849717E+02  0.13796050216E+03  0.00000000000E+00 0.  1.
          1    1    3    3  501    0 -0.48332791723E+02 -0.33911657579E+02 -0.95883687224E+03  0.96065301064E+03  0.00000000000E+00 0.  1.
         -3    1    1    2    0  502 -0.28039031038E+02 -0.54463210740E+02  0.10951073854E+03  0.12547920322E+03  0.00000000000E+00 0. -1.
<mgrwt>
<rscale>  1 0.65037418E+03</rscale>
<asrwt>0</asrwt>
<pdfrwt beam="1">  1       21 0.34475801E-01 0.65037418E+03</pdfrwt>
<pdfrwt beam="2">0</pdfrwt>
<totfact> 0.76642763E+02</totfact>
</mgrwt>
</event>
<event>
 6    1  0.1364923E-004  0.6455290E+03  0.7818608E-02  0.9815205E-01
         21   -1    0    0  501  502  0.00000000000E+00  0.00000000000E+00  0.12899717380E+03  0.12899717380E+03  0.00000000000E+00 0.  1.
         13   -1    0    0    0    0 -0.00000000000E+00 -0.00000000000E+00 -0.10000000000E+04  0.10000000000E+04  0.00000000000E+00 0.  1.
    9000005    2    1    2  501    0  0.70089064441E+02 -0.23590669337E+01 -0.81214318660E+03  0.10374411837E+04  0.64170835426E+03 0.  0.
         13    1    3    3    0    0  0.29048177815E+03  0.90918870784E+02 -0.71875222548E+03  0.78054510833E+03  0.00000000000E+00 0.  1.
          3    1    3    3  501    0 -0.22039271371E+03 -0.93277937717E+02 -0.93390961122E+02  0.25689607537E+03  0.00000000000E+00 0.  1.
         -1    1    1    2    0  502 -0.70089064441E+02  0.23590669337E+01 -0.58859639598E+02  0.91555990108E+02  0.00000000000E+00 0. -1.
<mgrwt>
<rscale>  1 0.64552897E+03</rscale>
<asrwt>0</asrwt>
<pdfrwt beam="1">  1       21 0.19845718E-01 0.64552897E+03</pdfrwt>
<pdfrwt beam="2">0</pdfrwt>
<totfact> 0.22782122E+03</totfact>
</mgrwt>
</event>
<event>
 6    1  0.1364923E-004  0.8650733E+03  0.7818608E-02  0.9470326E-01
         21   -1    0    0  501  502  0.00000000000E+00  0.00000000000E+00  0.46782978433E+03  0.46782978433E+03  0.00000000000E+00 0. -1.
         13   -1    0    0    0    0 -0.00000000000E+00 -0.00000000000E+00 -0.10000000000E+04  0.10000000000E+04  0.00000000000E+00 0.  1.
    9000005    2    1    2  501    0 -0.33092187888E+03 -0.37340885716E+03 -0.39076872803E+03  0.94923760812E+03  0.70668831413E+03 0.  0.
         13    1    3    3    0    0 -0.19004210134E+03 -0.57345287446E+03 -0.35839536029E+03  0.70243251191E+03  0.00000000000E+00 0.  1.
          1    1    3    3  501    0 -0.14087977754E+03  0.20004401730E+03 -0.32373367745E+02  0.24680509621E+03  0.00000000000E+00 0.  1.
         -1    1    1    2    0  502  0.33092187888E+03  0.37340885716E+03 -0.14140148763E+03  0.51859217621E+03  0.00000000000E+00 0. -1.
<mgrwt>
<rscale>  1 0.86507331E+03</rscale>
<asrwt>0</asrwt>
<pdfrwt beam="1">  1       21 0.71973811E-01 0.86507331E+03</pdfrwt>
<pdfrwt beam="2">0</pdfrwt>
<totfact> 0.15416353E+02</totfact>
</mgrwt>
</event>
<event>
 6    1  0.1364923E-004  0.6373261E+03  0.7818608E-02  0.9830856E-01
         21   -1    0    0  501  502  0.00000000000E+00  0.00000000000E+00  0.26363669316E+03  0.26363669316E+03  0.00000000000E+00 0. -1.
         13   -1    0    0    0    0 -0.00000000000E+00 -0.00000000000E+00 -0.10000000000E+04  0.10000000000E+04  0.00000000000E+00 0.  1.
    9000005    2    1    2  501    0  0.25569125704E+02  0.20907123101E+02 -0.89659821315E+03  0.11000331688E+04  0.63646973898E+03 0.  0.
         13    1    3    3    0    0  0.30689643480E+03  0.10689770085E+03 -0.33910645925E+03  0.46968684338E+03  0.00000000000E+00 0.  1.
          3    1    3    3  501    0 -0.28132730909E+03 -0.85990577749E+02 -0.55749175390E+03  0.63034632542E+03  0.00000000000E+00 0.  1.
         -3    1    1    2    0  502 -0.25569125704E+02 -0.20907123101E+02  0.16023490631E+03  0.16360352437E+03  0.00000000000E+00 0. -1.
<mgrwt>
<rscale>  1 0.63732615E+03</rscale>
<asrwt>0</asrwt>
<pdfrwt beam="1">  1       21 0.40559490E-01 0.63732615E+03</pdfrwt>
<pdfrwt beam="2">0</pdfrwt>
<totfact> 0.54925749E+02</totfact>
</mgrwt>
</event>
<event>
 6    1  0.1364923E-004  0.6211494E+03  0.7818608E-02  0.9862474E-01
         21   -1    0    0  501  502  0.00000000000E+00  0.00000000000E+00  0.16758471785E+03  0.16758471785E+03  0.00000000000E+00 0.  1.
         13   -1    0    0    0    0 -0.00000000000E+00 -0.00000000000E+00 -0.10000000000E+04  0.10000000000E+04  0.00000000000E+00 0.  1.
    9000005    2    1    2  501    0 -0.11122449561E+03  0.17670461487E+02 -0.85085945247E+03  0.10534649516E+04  0.61085469854E+03 0.  0.
         13    1    3    3    0    0 -0.30962943985E+03  0.68160831211E+02 -0.77112654317E+03  0.83375801916E+03  0.00000000000E+00 0.  1.
          3    1    3    3  501    0  0.19840494423E+03 -0.50490369724E+02 -0.79732909296E+02  0.21970693243E+03  0.00000000000E+00 0.  1.
         -3    1    1    2    0  502  0.11122449561E+03 -0.17670461487E+02  0.18444170319E+02  0.11411976626E+03  0.00000000000E+00 0. -1.
<mgrwt>
<rscale>  1 0.62114942E+03</rscale>
<asrwt>0</asrwt>
<pdfrwt beam="1">  1       21 0.25782264E-01 0.62114942E+03</pdfrwt>
<pdfrwt beam="2">0</pdfrwt>
<totfact> 0.13728751E+03</totfact>
</mgrwt>
</event>
<event>
 6    1  0.1364923E-004  0.6394428E+03  0.7818608E-02  0.9826793E-01
         21   -1    0    0  501  502  0.00000000000E+00  0.00000000000E+00  0.14708649945E+03  0.14708649945E+03  0.00000000000E+00 0.  1.
         13   -1    0    0    0    0 -0.00000000000E+00 -0.00000000000E+00 -0.10000000000E+04  0.10000000000E+04  0.00000000000E+00 0.  1.
    9000005    2    1    2  501    0  0.19724389827E+02  0.50981975082E+02 -0.87862431753E+03  0.10866773988E+04  0.63710192612E+03 0.  0.
         13    1    3    3    0    0 -0.12339211439E+03  0.27779222615E+03 -0.21906619917E+03  0.37467870825E+03  0.00000000000E+00 0.  1.
          3    1    3    3  501    0  0.14311650422E+03 -0.22681025107E+03 -0.65955811836E+03  0.71199869050E+03  0.00000000000E+00 0.  1.
         -3    1    1    2    0  502 -0.19724389827E+02 -0.50981975082E+02  0.25710816978E+02  0.60409100696E+02  0.00000000000E+00 0. -1.
<mgrwt>
<rscale>  1 0.63944279E+03</rscale>
<asrwt>0</asrwt>
<pdfrwt beam="1">  1       21 0.22628692E-01 0.63944279E+03</pdfrwt>
<pdfrwt beam="2">0</pdfrwt>
<totfact> 0.17694423E+03</totfact>
</mgrwt>
</event>
<event>
 6    1  0.1364923E-004  0.6653165E+03  0.7818608E-02  0.9778456E-01
         21   -1    0    0  501  502  0.00000000000E+00  0.00000000000E+00  0.18421070378E+03  0.18421070378E+03  0.00000000000E+00 0.  1.
         13   -1    0    0    0    0 -0.00000000000E+00 -0.00000000000E+00 -0.10000000000E+04  0.10000000000E+04  0.00000000000E+00 0.  1.
    9000005    2    1    2  501    0 -0.27534139263E+02  0.16474308482E+02 -0.88542964435E+03  0.11075340466E+04  0.66454230690E+03 0.  0.
         13    1    3    3    0    0 -0.58072547511E+02  0.12812268968E+03  0.61522008525E+02  0.15353436722E+03  0.00000000000E+00 0.  1.
          3    1    3    3  501    0  0.30538408248E+02 -0.11164838120E+03 -0.94695165288E+03  0.95399967940E+03  0.00000000000E+00 0.  1.
         -1    1    1    2    0  502  0.27534139263E+02 -0.16474308482E+02  0.69640348136E+02  0.76676657161E+02  0.00000000000E+00 0. -1.
<mgrwt>
<rscale>  1 0.66531647E+03</rscale>
<asrwt>0</asrwt>
<pdfrwt beam="1">  1       21 0.28340107E-01 0.66531647E+03</pdfrwt>
<pdfrwt beam="2">0</pdfrwt>
<totfact> 0.11358284E+03</totfact>
</mgrwt>
</event>
<event>
 6    1  0.1364923E-004  0.7115626E+03  0.7818608E-02  0.9697660E-01
         21   -1    0    0  501  502  0.00000000000E+00  0.00000000000E+00  0.42962926830E+03  0.42962926830E+03  0.00000000000E+00 0. -1.
         13   -1    0    0    0    0 -0.00000000000E+00 -0.00000000000E+00 -0.10000000000E+04  0.10000000000E+04  0.00000000000E+00 0.  1.
    9000005    2    1    2  501    0  0.29644915657E+03 -0.48101163716E+02 -0.78574833163E+03  0.10600574418E+04  0.64507791382E+03 0.  0.
         13    1    3    3    0    0  0.48572613228E+03  0.26435325970E+02 -0.42521159280E+03  0.64609101579E+03  0.00000000000E+00 0.  1.
          1    1    3    3  501    0 -0.18927697571E+03 -0.74536489686E+02 -0.36053673883E+03  0.41396642602E+03  0.00000000000E+00 0.  1.
         -1    1    1    2    0  502 -0.29644915657E+03  0.48101163716E+02  0.21537759993E+03  0.36957182649E+03  0.00000000000E+00 0. -1.
<mgrwt>
<rscale>  1 0.71156260E+03</rscale>
<asrwt>0</asrwt>
<pdfrwt beam="1">  1       21 0.66096809E-01 0.71156260E+03</pdfrwt>
<pdfrwt beam="2">0</pdfrwt>
<totfact> 0.18992168E+02</totfact>
</mgrwt>
</event>
<event>
 6    1  0.1364923E-004  0.6550341E+03  0.7818608E-02  0.9797379E-01
         21   -1    0    0  501  502  0.00000000000E+00  0.00000000000E+00  0.12380499218E+03  0.12380499218E+03  0.00000000000E+00 0.  1.
         13   -1    0    0    0    0 -0.00000000000E+00 -0.00000000000E+00 -0.10000000000E+04  0.10000000000E+04  0.00000000000E+00 0.  1.
    9000005    2    1    2  501    0 -0.18960673259E+02  0.39861949113E+02 -0.84759441514E+03  0.10712076917E+04  0.65354505891E+03 0.  0.
         13    1    3    3    0    0  0.23248191754E+03  0.22978527604E+03 -0.32491164379E+03  0.46088685307E+03  0.00000000000E+00 0.  1.
          3    1    3    3  501    0 -0.25144259080E+03 -0.18992332693E+03 -0.52268277135E+03  0.61032083861E+03  0.00000000000E+00 0.  1.
         -3    1    1    2    0  502  0.18960673259E+02 -0.39861949113E+02 -0.28600592676E+02  0.52597300491E+02  0.00000000000E+00 0. -1.
<mgrwt>
<rscale>  1 0.65503406E+03</rscale>
<asrwt>0</asrwt>
<pdfrwt beam="1">  1       21 0.19046921E-01 0.65503406E+03</pdfrwt>
<pdfrwt beam="2">0</pdfrwt>
<totfact> 0.24635583E+03</totfact>
</mgrwt>
</event>
<event>
 6    1  0.1364923E-004  0.6239159E+03  0.7818608E-02  0.9856994E-01
         21   -1    0    0  501  502  0.00000000000E+00  0.00000000000E+00  0.12120183458E+03  0.12120183458E+03  0.00000000000E+00 0.  1.
         13   -1    0    0    0    0 -0.00000000000E+00 -0.00000000000E+00 -0.10000000000E+04  0.10000000000E+04  0.00000000000E+00 0.  1.
    9000005    2    1    2  501    0  0.61825991966E+02 -0.25189712334E+02 -0.83074454221E+03  0.10389453723E+04  0.62033379500E+03 0.  0.
         13    1    3    3    0    0  0.21781815557E+02 -0.19583354561E+02 -0.93067942098E+03  0.93114023644E+03  0.00000000000E+00 0.  1.
          1    1    3    3  501    0  0.40044176410E+02 -0.56063577727E+01  0.99934878777E+02  0.10780513581E+03  0.00000000000E+00 0.  1.
         -3    1    1    2    0  502 -0.61825991966E+02  0.25189712334E+02 -0.48053623217E+02  0.82256462326E+02  0.00000000000E+00 0. -1.
<mgrwt>
<rscale>  1 0.62391585E+03</rscale>
<asrwt>0</asrwt>
<pdfrwt beam="1">  1       21 0.18646436E-01 0.62391585E+03</pdfrwt>
<pdfrwt beam="2">0</pdfrwt>
<totfact> 0.25682995E+03</totfact>
</mgrwt>
</event>
<event>
 6    1  0.1364923E-004  0.6220249E+03  0.7818608E-02  0.9860736E-01
         21   -1    0    0  501  502  0.00000000000E+00  0.00000000000E+00  0.13626858575E+03  0.13626858575E+03  0.00000000000E+00 0.  1.
         13   -1    0    0    0    0 -0.00000000000E+00 -0.00000000000E+00 -0.10000000000E+04  0.10000000000E+04  0.00000000000E+00 0.  1.
    9000005    2    1    2  501    0 -0.14079453292E+02 -0.14356766227E+02 -0.90044892887E+03  0.10944054322E+04  0.62169979000E+03 0.  0.
         13    1    3    3    0    0  0.22322642009E+03 -0.21555209735E+03 -0.47361863676E+03  0.56622200097E+03  0.00000000000E+00 0.  1.
          1    1    3    3  501    0 -0.23730587339E+03  0.20119533112E+03 -0.42683029211E+03  0.52818343127E+03  0.00000000000E+00 0.  1.
         -1    1    1    2    0  502  0.14079453292E+02  0.14356766227E+02  0.36717514624E+02  0.41863153508E+02  0.00000000000E+00 0. -1.
<mgrwt>
<rscale>  1 0.62202490E+03</rscale>
<asrwt>0</asrwt>
<pdfrwt beam="1">  1       21 0.20964397E-01 0.62202490E+03</pdfrwt>
<pdfrwt beam="2">0</pdfrwt>
<totfact> 0.20525066E+03</totfact>
</mgrwt>
</event>
<event>
 6    1  0.1364923E-004  0.6708732E+03  0.7818608E-02  0.9768382E-01
         21   -1    0    0  501  502  0.00000000000E+00  0.00000000000E+00  0.13412627867E+03  0.13412627867E+03  0.00000000000E+00 0.  1.
         13   -1    0    0    0    0 -0.00000000000E+00 -0.00000000000E+00 -0.10000000000E+04  0.10000000000E+04  0.00000000000E+00 0.  1.
    9000005    2    1    2  501    0  0.61064223763E+02 -0.54881817634E+01 -0.78437409251E+03  0.10321402548E+04  0.66806573708E+03 0.  0.
         13    1    3    3    0    0  0.86053610432E+02 -0.33203583210E+03 -0.38423155907E+03  0.51506010198E+03  0.00000000000E+00 0.  1.
          1    1    3    3  501    0 -0.24989386670E+02  0.32654765034E+03 -0.40014253345E+03  0.51708015284E+03  0.00000000000E+00 0.  1.
         -1    1    1    2    0  502 -0.61064223763E+02  0.54881817634E+01 -0.81499628817E+02  0.10198602385E+03  0.00000000000E+00 0. -1.
<mgrwt>
<rscale>  1 0.67087315E+03</rscale>
<asrwt>0</asrwt>
<pdfrwt beam="1">  1       21 0.20634812E-01 0.67087315E+03</pdfrwt>
<pdfrwt beam="2">0</pdfrwt>
<totfact> 0.21117600E+03</totfact>
</mgrwt>
</event>
<event>
 6    1  0.1364923E-004  0.7338824E+03  0.7818608E-02  0.9660981E-01
         21   -1    0    0  501  502  0.00000000000E+00  0.00000000000E+00  0.14769301321E+03  0.14769301321E+03  0.00000000000E+00 0.  1.
         13   -1    0    0    0    0 -0.00000000000E+00 -0.00000000000E+00 -0.10000000000E+04  0.10000000000E+04  0.00000000000E+00 0.  1.
    9000005    2    1    2  501    0  0.32209700834E+02  0.11549485867E+02 -0.82252582634E+03  0.11023303307E+04  0.73308428399E+03 0.  0.
         13    1    3    3    0    0  0.32946330655E+03 -0.15963499942E+03 -0.28186885220E+03  0.46203836771E+03  0.00000000000E+00 0.  1.
          3    1    3    3  501    0 -0.29725360571E+03  0.17118448529E+03 -0.54065697414E+03  0.64029196294E+03  0.00000000000E+00 0.  1.
         -3    1    1    2    0  502 -0.32209700834E+02 -0.11549485867E+02 -0.29781160448E+02  0.45362682562E+02  0.00000000000E+00 0. -1.
<mgrwt>
<rscale>  1 0.73388243E+03</rscale>
<asrwt>0</asrwt>
<pdfrwt beam="1">  1       21 0.22722001E-01 0.73388243E+03</pdfrwt>
<pdfrwt beam="2">0</pdfrwt>
<totfact> 0.17480544E+03</totfact>
</mgrwt>
</event>
<event>
 6    1  0.1364923E-004  0.6502205E+03  0.7818608E-02  0.9806366E-01
         21   -1    0    0  501  502  0.00000000000E+00  0.00000000000E+00  0.29696845220E+03  0.29696845220E+03  0.00000000000E+00 0. -1.
         13   -1    0    0    0    0 -0.00000000000E+00 -0.00000000000E+00 -0.10000000000E+04  0.10000000000E+04  0.00000000000E+00 0.  1.
    9000005    2    1    2  501    0  0.23294882673E+02 -0.48695933286E+02 -0.89008164520E+03  0.11022849028E+04  0.64797586860E+03 0.  0.
         13    1    3    3    0    0  0.23739070526E+03  0.82231041176E+02 -0.79528220476E+03  0.83402042917E+03  0.00000000000E+00 0.  1.
          1    1    3    3  501    0 -0.21409582258E+03 -0.13092697446E+03 -0.94799440447E+02  0.26826447361E+03  0.00000000000E+00 0.  1.
         -1    1    1    2    0  502 -0.23294882673E+02  0.48695933286E+02  0.18705009740E+03  0.19468354942E+03  0.00000000000E+00 0. -1.
<mgrwt>
<rscale>  1 0.65022048E+03</rscale>
<asrwt>0</asrwt>
<pdfrwt beam="1">  1       21 0.45687453E-01 0.65022048E+03</pdfrwt>
<pdfrwt beam="2">0</pdfrwt>
<totfact> 0.42740491E+02</totfact>
</mgrwt>
</event>
<event>
 6    1  0.1364923E-004  0.6679647E+03  0.7818608E-02  0.9773642E-01
         21   -1    0    0  501  502  0.00000000000E+00  0.00000000000E+00  0.15060956627E+03  0.15060956627E+03  0.00000000000E+00 0.  1.
         13   -1    0    0    0    0 -0.00000000000E+00 -0.00000000000E+00 -0.10000000000E+04  0.10000000000E+04  0.00000000000E+00 0.  1.
    9000005    2    1    2  501    0 -0.10293049590E+03  0.26698666273E+02 -0.70373117398E+03  0.97026510220E+03  0.65944620520E+03 0.  0.
         13    1    3    3    0    0  0.59722839043E+02 -0.74145773769E+02 -0.76377687988E+03  0.76968794684E+03  0.00000000000E+00 0.  1.
          3    1    3    3  501    0 -0.16265333494E+03  0.10084444004E+03  0.60045705900E+02  0.20057715536E+03  0.00000000000E+00 0.  1.
         -3    1    1    2    0  502  0.10293049590E+03 -0.26698666273E+02 -0.14565925975E+03  0.18034446406E+03  0.00000000000E+00 0. -1.
<mgrwt>
<rscale>  1 0.66796467E+03</rscale>
<asrwt>0</asrwt>
<pdfrwt beam="1">  1       21 0.23170702E-01 0.66796467E+03</pdfrwt>
<pdfrwt beam="2">0</pdfrwt>
<totfact> 0.16876552E+03</totfact>
</mgrwt>
</event>
<event>
 6    1  0.1364923E-004  0.6979055E+03  0.7818608E-02  0.9720821E-01
         21   -1    0    0  501  502  0.00000000000E+00  0.00000000000E+00  0.33478953446E+03  0.33478953446E+03  0.00000000000E+00 0. -1.
         13   -1    0    0    0    0 -0.00000000000E+00 -0.00000000000E+00 -0.10000000000E+04  0.10000000000E+04  0.00000000000E+00 0.  1.
    9000005    2    1    2  501    0  0.12604241678E+03  0.24132157152E+03 -0.77347824922E+03  0.10417968644E+04  0.64261132344E+03 0.  0.
         13    1    3    3    0    0 -0.12543650772E+03  0.14045437220E+03 -0.74606056733E+03  0.76945962744E+03  0.00000000000E+00 0.  1.
          1    1    3    3  501    0  0.25147892450E+03  0.10086719932E+03 -0.27417681886E+02  0.27233723698E+03  0.00000000000E+00 0.  1.
         -1    1    1    2    0  502 -0.12604241678E+03 -0.24132157152E+03  0.10826778368E+03  0.29299267003E+03  0.00000000000E+00 0. -1.
<mgrwt>
<rscale>  1 0.69790551E+03</rscale>
<asrwt>0</asrwt>
<pdfrwt beam="1">  1       21 0.51506081E-01 0.69790551E+03</pdfrwt>
<pdfrwt beam="2">0</pdfrwt>
<totfact> 0.32943258E+02</totfact>
</mgrwt>
</event>
<event>
 6    1  0.1364923E-004  0.6395304E+03  0.7818608E-02  0.9826625E-01
         21   -1    0    0  501  502  0.00000000000E+00  0.00000000000E+00  0.18756203810E+03  0.18756203810E+03  0.00000000000E+00 0.  1.
         13   -1    0    0    0    0 -0.00000000000E+00 -0.00000000000E+00 -0.10000000000E+04  0.10000000000E+04  0.00000000000E+00 0.  1.
    9000005    2    1    2  501    0  0.22792180804E+02  0.56990794637E+01 -0.89596360852E+03  0.11007951282E+04  0.63909871180E+03 0.  0.
         13    1    3    3    0    0  0.23098209347E+03 -0.21517554927E+03 -0.59385351445E+03  0.67254385814E+03  0.00000000000E+00 0.  1.
          1    1    3    3  501    0 -0.20818991266E+03  0.22087462873E+03 -0.30211009407E+03  0.42825127004E+03  0.00000000000E+00 0.  1.
         -1    1    1    2    0  502 -0.22792180804E+02 -0.56990794637E+01  0.83525646625E+02  0.86766909918E+02  0.00000000000E+00 0. -1.
<mgrwt>
<rscale>  1 0.63953040E+03</rscale>
<asrwt>0</asrwt>
<pdfrwt beam="1">  1       21 0.28855697E-01 0.63953040E+03</pdfrwt>
<pdfrwt beam="2">0</pdfrwt>
<totfact> 0.10974690E+03</totfact>
</mgrwt>
</event>
<event>
 6    1  0.1364923E-004  0.6651646E+03  0.7818608E-02  0.9778733E-01
         21   -1    0    0  501  502  0.00000000000E+00  0.00000000000E+00  0.72439491286E+03  0.72439491286E+03  0.00000000000E+00 0.  1.
         13   -1    0    0    0    0 -0.00000000000E+00 -0.00000000000E+00 -0.10000000000E+04  0.10000000000E+04  0.00000000000E+00 0.  1.
    9000005    2    1    2  501    0 -0.55656608994E+01  0.19278623880E+02 -0.88920687113E+03  0.11104651194E+04  0.66486185025E+03 0.  0.
         13    1    3    3    0    0 -0.24039863701E+03  0.55333674458E+02 -0.68438842199E+02  0.25600233462E+03  0.00000000000E+00 0.  1.
          3    1    3    3  501    0  0.23483297611E+03 -0.36055050578E+02 -0.82076802893E+03  0.85446278483E+03  0.00000000000E+00 0.  1.
         -1    1    1    2    0  502  0.55656608994E+01 -0.19278623880E+02  0.61360178400E+03  0.61392979341E+03  0.00000000000E+00 0. -1.
<mgrwt>
<rscale>  1 0.66516458E+03</rscale>
<asrwt>0</asrwt>
<pdfrwt beam="1">  1       21 0.11144537E+00 0.66516458E+03</pdfrwt>
<pdfrwt beam="2">0</pdfrwt>
<totfact> 0.55257903E+01</totfact>
</mgrwt>
</event>
<event>
 6    1  0.1364923E-004  0.6602270E+03  0.7818608E-02  0.9787776E-01
         21   -1    0    0  501  502  0.00000000000E+00  0.00000000000E+00  0.16233268755E+03  0.16233268755E+03  0.00000000000E+00 0.  1.
         13   -1    0    0    0    0 -0.00000000000E+00 -0.00000000000E+00 -0.10000000000E+04  0.10000000000E+04  0.00000000000E+00 0.  1.
    9000005    2    1    2  501    0  0.16663238941E+02 -0.16023663671E+02 -0.88823316382E+03  0.11067329874E+04  0.65982219636E+03 0.  0.
         13    1    3    3    0    0 -0.15931657022E+03 -0.29049953056E+03 -0.39617151698E+03  0.51645291912E+03  0.00000000000E+00 0.  1.
          3    1    3    3  501    0  0.17597980916E+03  0.27447586689E+03 -0.49206164684E+03  0.59028006830E+03  0.00000000000E+00 0.  1.
         -1    1    1    2    0  502 -0.16663238941E+02  0.16023663671E+02  0.50565851374E+02  0.55599700131E+02  0.00000000000E+00 0. -1.
<mgrwt>
<rscale>  1 0.66022705E+03</rscale>
<asrwt>0</asrwt>
<pdfrwt beam="1">  1       21 0.24974259E-01 0.66022705E+03</pdfrwt>
<pdfrwt beam="2">0</pdfrwt>
<totfact> 0.14583459E+03</totfact>
</mgrwt>
</event>
<event>
 6    1  0.1364923E-004  0.6627339E+03  0.7818608E-02  0.9783174E-01
         21   -1    0    0  501  502  0.00000000000E+00  0.00000000000E+00  0.19332629284E+03  0.19332629284E+03  0.00000000000E+00 0. -1.
         13   -1    0    0    0    0 -0.00000000000E+00 -0.00000000000E+00 -0.10000000000E+04  0.10000000000E+04  0.00000000000E+00 0.  1.
    9000005    2    1    2  501    0 -0.24499625361E+02 -0.26338587456E+02 -0.88587370330E+03  0.11063401318E+04  0.66175699173E+03 0.  0.
         13    1    3    3    0    0  0.52944913710E+02  0.23180371291E+03 -0.71140119550E+02  0.24818751342E+03  0.00000000000E+00 0.  1.
          3    1    3    3  501    0 -0.77444539071E+02 -0.25814230037E+03 -0.81473358375E+03  0.85815261834E+03  0.00000000000E+00 0.  1.
         -3    1    1    2    0  502  0.24499625361E+02  0.26338587456E+02  0.79199996138E+02  0.86986161084E+02  0.00000000000E+00 0. -1.
<mgrwt>
<rscale>  1 0.66273394E+03</rscale>
<asrwt>0</asrwt>
<pdfrwt beam="1">  1       21 0.29742506E-01 0.66273394E+03</pdfrwt>
<pdfrwt beam="2">0</pdfrwt>
<totfact> 0.10316370E+03</totfact>
</mgrwt>
</event>
<event>
 6    1  0.1364923E-004  0.6891665E+03  0.7818608E-02  0.9735940E-01
         21   -1    0    0  501  502  0.00000000000E+00  0.00000000000E+00  0.22776541116E+03  0.22776541116E+03  0.00000000000E+00 0.  1.
         13   -1    0    0    0    0 -0.00000000000E+00 -0.00000000000E+00 -0.10000000000E+04  0.10000000000E+04  0.00000000000E+00 0.  1.
    9000005    2    1    2  501    0 -0.16450487267E+03 -0.91131198588E+02 -0.77835023804E+03  0.10396055067E+04  0.66301113714E+03 0.  0.
         13    1    3    3    0    0  0.58972943830E+02 -0.13921412632E+03 -0.79609633289E+03  0.81032570755E+03  0.00000000000E+00 0.  1.
          3    1    3    3  501    0 -0.22347781650E+03  0.48082927728E+02  0.17746094852E+02  0.22927979913E+03  0.00000000000E+00 0.  1.
         -1    1    1    2    0  502  0.16450487267E+03  0.91131198588E+02  0.61156492038E+01  0.18815990448E+03  0.00000000000E+00 0. -1.
<mgrwt>
<rscale>  1 0.68916654E+03</rscale>
<asrwt>0</asrwt>
<pdfrwt beam="1">  1       21 0.35040831E-01 0.68916654E+03</pdfrwt>
<pdfrwt beam="2">0</pdfrwt>
<totfact> 0.73943548E+02</totfact>
</mgrwt>
</event>
<event>
 6    1  0.1364923E-004  0.6030810E+03  0.7818608E-02  0.9899034E-01
         21   -1    0    0  501  502  0.00000000000E+00  0.00000000000E+00  0.49080352149E+03  0.49080352149E+03  0.00000000000E+00 0. -1.
         13   -1    0    0    0    0 -0.00000000000E+00 -0.00000000000E+00 -0.10000000000E+04  0.10000000000E+04  0.00000000000E+00 0.  1.
    9000005    2    1    2  501    0 -0.32792330686E+03 -0.87813562779E+02 -0.82850237735E+03  0.10247550540E+04  0.49845944117E+03 0.  0.
         13    1    3    3    0    0 -0.35987682291E+03  0.55842083832E+02 -0.79409093978E+03  0.87361895964E+03  0.00000000000E+00 0.  1.
          1    1    3    3  501    0  0.31953516050E+02 -0.14365564661E+03 -0.34411437567E+02  0.15113609439E+03  0.00000000000E+00 0.  1.
         -1    1    1    2    0  502  0.32792330686E+03  0.87813562779E+02  0.31930589884E+03  0.46604846747E+03  0.00000000000E+00 0. -1.
<mgrwt>
<rscale>  1 0.60308103E+03</rscale>
<asrwt>0</asrwt>
<pdfrwt beam="1">  1       21 0.75508232E-01 0.60308103E+03</pdfrwt>
<pdfrwt beam="2">0</pdfrwt>
<totfact> 0.14212279E+02</totfact>
</mgrwt>
</event>
<event>
 6    1  0.1364923E-004  0.6563514E+03  0.7818608E-02  0.9794934E-01
         21   -1    0    0  501  502  0.00000000000E+00  0.00000000000E+00  0.26858507691E+03  0.26858507691E+03  0.00000000000E+00 0.  1.
         13   -1    0    0    0    0 -0.00000000000E+00 -0.00000000000E+00 -0.10000000000E+04  0.10000000000E+04  0.00000000000E+00 0.  1.
    9000005    2    1    2  501    0 -0.12092640519E+02  0.23590992899E+02 -0.89109004324E+03  0.11067243006E+04  0.65581586256E+03 0.  0.
         13    1    3    3    0    0  0.22724938797E+02  0.21816057520E+03 -0.88198997797E+03  0.90885465321E+03  0.00000000000E+00 0.  1.
          3    1    3    3  501    0 -0.34817579316E+02 -0.19456958230E+03 -0.91000652615E+01  0.19786964743E+03  0.00000000000E+00 0.  1.
         -1    1    1    2    0  502  0.12092640519E+02 -0.23590992899E+02  0.15967512014E+03  0.16186077627E+03  0.00000000000E+00 0. -1.
<mgrwt>
<rscale>  1 0.65635144E+03</rscale>
<asrwt>0</asrwt>
<pdfrwt beam="1">  1       21 0.41320780E-01 0.65635144E+03</pdfrwt>
<pdfrwt beam="2">0</pdfrwt>
<totfact> 0.52755697E+02</totfact>
</mgrwt>
</event>
<event>
 6    1  0.1364923E-004  0.6619415E+03  0.7818608E-02  0.9784626E-01
         21   -1    0    0  501  502  0.00000000000E+00  0.00000000000E+00  0.13464279488E+03  0.13464279488E+03  0.00000000000E+00 0.  1.
         13   -1    0    0    0    0 -0.00000000000E+00 -0.00000000000E+00 -0.10000000000E+04  0.10000000000E+04  0.00000000000E+00 0.  1.
    9000005    2    1    2  501    0  0.16055661081E+02 -0.48977078062E+02 -0.85628641671E+03  0.10823090808E+04  0.65993179987E+03 0.  0.
         13    1    3    3    0    0  0.26675169328E+03  0.69299112242E+02 -0.12961601548E+03  0.30456385914E+03  0.00000000000E+00 0.  1.
          1    1    3    3  501    0 -0.25069603220E+03 -0.11827619030E+03 -0.72667040124E+03  0.77774522164E+03  0.00000000000E+00 0.  1.
         -3    1    1    2    0  502 -0.16055661081E+02  0.48977078062E+02 -0.90707884097E+01  0.52333714091E+02  0.00000000000E+00 0. -1.
<mgrwt>
<rscale>  1 0.66194148E+03</rscale>
<asrwt>0</asrwt>
<pdfrwt beam="1">  1       21 0.20714276E-01 0.66194148E+03</pdfrwt>
<pdfrwt beam="2">0</pdfrwt>
<totfact> 0.20969477E+03</totfact>
</mgrwt>
</event>
<event>
 6    1  0.1364923E-004  0.6504253E+03  0.7818608E-02  0.9805982E-01
         21   -1    0    0  501  502  0.00000000000E+00  0.00000000000E+00  0.18015779281E+03  0.18015779281E+03  0.00000000000E+00 0.  1.
         13   -1    0    0    0    0 -0.00000000000E+00 -0.00000000000E+00 -0.10000000000E+04  0.10000000000E+04  0.00000000000E+00 0.  1.
    9000005    2    1    2  501    0  0.39351114508E+02 -0.16724675861E+02 -0.88737842046E+03  0.11002242886E+04  0.64901833495E+03 0.  0.
         13    1    3    3    0    0 -0.65981476089E+02 -0.31934843498E+03 -0.50768304607E+03  0.60338963645E+03  0.00000000000E+00 0.  1.
          1    1    3    3  501    0  0.10533259060E+03  0.30262375912E+03 -0.37969537439E+03  0.49683465213E+03  0.00000000000E+00 0.  1.
         -1    1    1    2    0  502 -0.39351114508E+02  0.16724675861E+02  0.67536213266E+02  0.79933504227E+02  0.00000000000E+00 0. -1.
<mgrwt>
<rscale>  1 0.65042526E+03</rscale>
<asrwt>0</asrwt>
<pdfrwt beam="1">  1       21 0.27716583E-01 0.65042526E+03</pdfrwt>
<pdfrwt beam="2">0</pdfrwt>
<totfact> 0.11881914E+03</totfact>
</mgrwt>
</event>
<event>
 6    1  0.1364923E-004  0.6588587E+03  0.7818608E-02  0.9790297E-01
         21   -1    0    0  501  502  0.00000000000E+00  0.00000000000E+00  0.12706700137E+03  0.12706700137E+03  0.00000000000E+00 0.  1.
         13   -1    0    0    0    0 -0.00000000000E+00 -0.00000000000E+00 -0.10000000000E+04  0.10000000000E+04  0.00000000000E+00 0.  1.
    9000005    2    1    2  501    0 -0.25445574779E+02 -0.13571804348E+02 -0.87807318544E+03  0.10977737825E+04  0.65822723089E+03 0.  0.
         13    1    3    3    0    0 -0.22924089087E+03  0.17113054691E+03 -0.73293980723E+03  0.78678955964E+03  0.00000000000E+00 0.  1.
          3    1    3    3  501    0  0.20379531609E+03 -0.18470235126E+03 -0.14513337821E+03  0.31098422290E+03  0.00000000000E+00 0.  1.
         -3    1    1    2    0  502  0.25445574779E+02  0.13571804348E+02  0.51401868132E+01  0.29293218833E+02  0.00000000000E+00 0. -1.
<mgrwt>
<rscale>  1 0.65885868E+03</rscale>
<asrwt>0</asrwt>
<pdfrwt beam="1">  1       21 0.19548769E-01 0.65885868E+03</pdfrwt>
<pdfrwt beam="2">0</pdfrwt>
<totfact> 0.23437493E+03</totfact>
</mgrwt>
</event>
<event>
 6    1  0.1364923E-004  0.6608785E+03  0.7818608E-02  0.9786578E-01
         21   -1    0    0  501  502  0.00000000000E+00  0.00000000000E+00  0.12926069149E+03  0.12926069149E+03  0.00000000000E+00 0.  1.
         13   -1    0    0    0    0 -0.00000000000E+00 -0.00000000000E+00 -0.10000000000E+04  0.10000000000E+04  0.00000000000E+00 0.  1.
    9000005    2    1    2  501    0 -0.16687392815E+02 -0.17611429217E+02 -0.88231469882E+03  0.11023790773E+04  0.66043301772E+03 0.  0.
         13    1    3    3    0    0 -0.32073615654E+03  0.88108869781E+02 -0.37199010825E+03  0.49901051660E+03  0.00000000000E+00 0.  1.
          3    1    3    3  501    0  0.30404876373E+03 -0.10572029900E+03 -0.51032459058E+03  0.60336856074E+03  0.00000000000E+00 0.  1.
         -1    1    1    2    0  502  0.16687392815E+02  0.17611429217E+02  0.11575390314E+02  0.26881614143E+02  0.00000000000E+00 0. -1.
<mgrwt>
<rscale>  1 0.66087851E+03</rscale>
<asrwt>0</asrwt>
<pdfrwt beam="1">  1       21 0.19886260E-01 0.66087851E+03</pdfrwt>
<pdfrwt beam="2">0</pdfrwt>
<totfact> 0.22679736E+03</totfact>
</mgrwt>
</event>
<event>
 6    1  0.1364923E-004  0.6143617E+03  0.7818608E-02  0.9876050E-01
         21   -1    0    0  501  502  0.00000000000E+00  0.00000000000E+00  0.11145290413E+03  0.11145290413E+03  0.00000000000E+00 0.  1.
         13   -1    0    0    0    0 -0.00000000000E+00 -0.00000000000E+00 -0.10000000000E+04  0.10000000000E+04  0.00000000000E+00 0.  1.
    9000005    2    1    2  501    0  0.35181361342E+02 -0.13746373496E+02 -0.87913025238E+03  0.10725251774E+04  0.61319944915E+03 0.  0.
         13    1    3    3    0    0  0.24429806064E+03  0.19626510922E+03 -0.51726516694E+03  0.60478491091E+03  0.00000000000E+00 0.  1.
          1    1    3    3  501    0 -0.20911669930E+03 -0.21001148272E+03 -0.36186508544E+03  0.46774026645E+03  0.00000000000E+00 0.  1.
         -3    1    1    2    0  502 -0.35181361342E+02  0.13746373496E+02 -0.94168434877E+01  0.38927726770E+02  0.00000000000E+00 0. -1.
<mgrwt>
<rscale>  1 0.61436166E+03</rscale>
<asrwt>0</asrwt>
<pdfrwt beam="1">  1       21 0.17146600E-01 0.61436166E+03</pdfrwt>
<pdfrwt beam="2">0</pdfrwt>
<totfact> 0.30115481E+03</totfact>
</mgrwt>
</event>
<event>
 6    1  0.1364923E-004  0.6516130E+03  0.7818608E-02  0.9803757E-01
         21   -1    0    0  501  502  0.00000000000E+00  0.00000000000E+00  0.17846770032E+03  0.17846770032E+03  0.00000000000E+00 0.  1.
         13   -1    0    0    0    0 -0.00000000000E+00 -0.00000000000E+00 -0.10000000000E+04  0.10000000000E+04  0.00000000000E+00 0.  1.
    9000005    2    1    2  501    0 -0.13774453391E+03  0.46208533046E+02 -0.79967794669E+03  0.10315445983E+04  0.63520914257E+03 0.  0.
         13    1    3    3    0    0 -0.23152826730E+03  0.75912616198E+02 -0.87458834878E+03  0.90789473160E+03  0.00000000000E+00 0.  1.
          1    1    3    3  501    0  0.93783733388E+02 -0.29704083152E+02  0.74910402090E+02  0.12364986674E+03  0.00000000000E+00 0.  1.
         -3    1    1    2    0  502  0.13774453391E+03 -0.46208533046E+02 -0.21854352994E+02  0.14692310197E+03  0.00000000000E+00 0. -1.
<mgrwt>
<rscale>  1 0.65161295E+03</rscale>
<asrwt>0</asrwt>
<pdfrwt beam="1">  1       21 0.27456568E-01 0.65161295E+03</pdfrwt>
<pdfrwt beam="2">0</pdfrwt>
<totfact> 0.12105254E+03</totfact>
</mgrwt>
</event>
