<event>
 6    1  0.3167183E-003  0.6502257E+03  0.7818608E-02  0.9806356E-01
          1   -1    0    0  502    0  0.00000000000E+00  0.00000000000E+00  0.10569891842E+03  0.10569891842E+03  0.00000000000E+00 0.  1.
         13   -1    0    0    0    0 -0.00000000000E+00 -0.00000000000E+00 -0.10000000000E+04  0.10000000000E+04  0.00000000000E+00 0.  1.
    9000005    2    1    2  501    0  0.20987073313E-04  0.13938733027E-02 -0.89430035969E+03  0.11056973486E+04  0.65022572488E+03 0.  0.
         13    1    3    3    0    0  0.12243442905E+03  0.10353209481E+03 -0.92808776554E+03  0.94183649569E+03  0.00000000000E+00 0.  1.
          3    1    3    3  501    0 -0.12243440806E+03 -0.10353070093E+03  0.33787405848E+02  0.16386085288E+03  0.00000000000E+00 0.  1.
         21    1    1    2  502  501 -0.20987073314E-04 -0.13938733027E-02 -0.72188686241E-03  0.15698547332E-02  0.00000000000E+00 0. -1.
<mgrwt>
<rscale>  1 0.65022572E+03</rscale>
<asrwt>0</asrwt>
<pdfrwt beam="1">  1        1 0.38436051E+00 0.65022572E+03</pdfrwt>
<pdfrwt beam="2">0</pdfrwt>
<totfact> 0.15697203E+00</totfact>
</mgrwt>
</event>
<event>
 6    1  0.3167183E-003  0.6502707E+03  0.7818608E-02  0.9806271E-01
          1   -1    0    0  502    0  0.00000000000E+00  0.00000000000E+00  0.11039952821E+03  0.11039952821E+03  0.00000000000E+00 0.  1.
         13   -1    0    0    0    0 -0.00000000000E+00 -0.00000000000E+00 -0.10000000000E+04  0.10000000000E+04  0.00000000000E+00 0.  1.
    9000005    2    1    2  501    0  0.39076448282E+00  0.24048144859E+00 -0.89427456917E+03  0.11057029641E+04  0.65027058154E+03 0.  0.
         13    1    3    3    0    0 -0.22663098957E+03 -0.47822137345E+02 -0.83453710374E+03  0.86608356397E+03  0.00000000000E+00 0.  1.
          3    1    3    3  501    0  0.22702175406E+03  0.48062618793E+02 -0.59737465423E+02  0.23961940012E+03  0.00000000000E+00 0.  1.
         21    1    1    2  502  501 -0.39076448282E+00 -0.24048144859E+00  0.46740973804E+01  0.46965641196E+01  0.00000000000E+00 0. -1.
<mgrwt>
<rscale>  1 0.65027074E+03</rscale>
<asrwt>0</asrwt>
<pdfrwt beam="1">  1        1 0.40145368E+00 0.65027074E+03</pdfrwt>
<pdfrwt beam="2">0</pdfrwt>
<totfact> 0.13179849E+00</totfact>
</mgrwt>
</event>
<event>
 6    1  0.3167183E-003  0.6571091E+03  0.7818608E-02  0.9793530E-01
          1   -1    0    0  502    0  0.00000000000E+00  0.00000000000E+00  0.11103364848E+03  0.11103364848E+03  0.00000000000E+00 0.  1.
         13   -1    0    0    0    0 -0.00000000000E+00 -0.00000000000E+00 -0.10000000000E+04  0.10000000000E+04  0.00000000000E+00 0.  1.
    9000005    2    1    2  501    0  0.23862476657E+00  0.52039868973E+00 -0.89202245155E+03  0.11079243875E+04  0.65710886964E+03 0.  0.
         13    1    3    3    0    0 -0.31459416380E+03 -0.49962874989E-01 -0.60494822177E+03  0.68185910672E+03  0.00000000000E+00 0.  1.
          3    1    3    3  501    0  0.31483278857E+03  0.57036156472E+00 -0.28707422978E+03  0.42606528077E+03  0.00000000000E+00 0.  1.
         21    1    1    2  502  501 -0.23862476657E+00 -0.52039868973E+00  0.30561000256E+01  0.31092609961E+01  0.00000000000E+00 0. -1.
<mgrwt>
<rscale>  1 0.65710912E+03</rscale>
<asrwt>0</asrwt>
<pdfrwt beam="1">  1        1 0.40375957E+00 0.65710912E+03</pdfrwt>
<pdfrwt beam="2">0</pdfrwt>
<totfact> 0.12854379E+00</totfact>
</mgrwt>
</event>
<event>
 6    1  0.3167183E-003  0.6383878E+03  0.7818608E-02  0.9828816E-01
          1   -1    0    0  502    0  0.00000000000E+00  0.00000000000E+00  0.11568506209E+03  0.11568506209E+03  0.00000000000E+00 0.  1.
         13   -1    0    0    0    0 -0.00000000000E+00 -0.00000000000E+00 -0.10000000000E+04  0.10000000000E+04  0.00000000000E+00 0.  1.
    9000005    2    1    2  501    0 -0.15245337916E+02 -0.33063378414E+02 -0.86313229590E+03  0.10735624833E+04  0.63734875699E+03 0.  0.
         13    1    3    3    0    0  0.21460013586E+02  0.19449596853E+03 -0.16792315618E+02  0.19639550866E+03  0.00000000000E+00 0.  1.
          1    1    3    3  501    0 -0.36705351502E+02 -0.22755934694E+03 -0.84633998028E+03  0.87716697466E+03  0.00000000000E+00 0.  1.
         21    1    1    2  502  501  0.15245337916E+02  0.33063378414E+02 -0.21182642004E+02  0.42122578774E+02  0.00000000000E+00 0.  1.
<mgrwt>
<rscale>  1 0.63838785E+03</rscale>
<asrwt>0</asrwt>
<pdfrwt beam="1">  1        1 0.42067384E+00 0.63838785E+03</pdfrwt>
<pdfrwt beam="2">0</pdfrwt>
<totfact> 0.10832349E+00</totfact>
</mgrwt>
</event>
<event>
 6    1  0.3167183E-003  0.6532041E+03  0.7818608E-02  0.9800786E-01
          1   -1    0    0  502    0  0.00000000000E+00  0.00000000000E+00  0.10667576395E+03  0.10667576395E+03  0.00000000000E+00 0.  1.
         13   -1    0    0    0    0 -0.00000000000E+00 -0.00000000000E+00 -0.10000000000E+04  0.10000000000E+04  0.00000000000E+00 0.  1.
    9000005    2    1    2  501    0  0.62062662828E-03 -0.15505888931E-02 -0.89333100236E+03  0.11066687946E+04  0.65320405775E+03 0.  0.
         13    1    3    3    0    0  0.51129705590E+02  0.65989660026E+02  0.88288379763E+02  0.12150604934E+03  0.00000000000E+00 0.  1.
          1    1    3    3  501    0 -0.51129084963E+02 -0.65991210615E+02 -0.98161938212E+03  0.98516274522E+03  0.00000000000E+00 0.  1.
         21    1    1    2  502  501 -0.62062662828E-03  0.15505888931E-02  0.67663073935E-02  0.69693915854E-02  0.00000000000E+00 0. -1.
<mgrwt>
<rscale>  1 0.65320406E+03</rscale>
<asrwt>0</asrwt>
<pdfrwt beam="1">  1        1 0.38791269E+00 0.65320406E+03</pdfrwt>
<pdfrwt beam="2">0</pdfrwt>
<totfact> 0.15130799E+00</totfact>
</mgrwt>
</event>
<event>
 6    1  0.3167183E-003  0.6441268E+03  0.7818608E-02  0.9817863E-01
          1   -1    0    0  502    0  0.00000000000E+00  0.00000000000E+00  0.10380552779E+03  0.10380552779E+03  0.00000000000E+00 0.  1.
         13   -1    0    0    0    0 -0.00000000000E+00 -0.00000000000E+00 -0.10000000000E+04  0.10000000000E+04  0.00000000000E+00 0.  1.
    9000005    2    1    2  501    0  0.27325656155E-01 -0.98750782862E-02 -0.89627227495E+03  0.11037224768E+04  0.64412678411E+03 0.  0.
         13    1    3    3    0    0 -0.73857864399E+02 -0.36846297329E+02  0.85293259263E+02  0.11869108575E+03  0.00000000000E+00 0.  1.
          3    1    3    3  501    0  0.73885190055E+02  0.36836422250E+02 -0.98156553421E+03  0.98503139100E+03  0.00000000000E+00 0.  1.
         21    1    1    2  502  501 -0.27325656155E-01  0.98750782862E-02  0.77802741906E-01  0.83051040352E-01  0.00000000000E+00 0.  1.
<mgrwt>
<rscale>  1 0.64412678E+03</rscale>
<asrwt>0</asrwt>
<pdfrwt beam="1">  1        1 0.37747544E+00 0.64412678E+03</pdfrwt>
<pdfrwt beam="2">0</pdfrwt>
<totfact> 0.16853962E+00</totfact>
</mgrwt>
</event>
<event>
 6    1  0.3167183E-003  0.6560923E+03  0.7818608E-02  0.9795414E-01
          1   -1    0    0  502    0  0.00000000000E+00  0.00000000000E+00  0.10761435121E+03  0.10761435121E+03  0.00000000000E+00 0.  1.
         13   -1    0    0    0    0 -0.00000000000E+00 -0.00000000000E+00 -0.10000000000E+04  0.10000000000E+04  0.00000000000E+00 0.  1.
    9000005    2    1    2  501    0 -0.10114068246E-04  0.86273155375E-06 -0.89238573103E+03  0.11076142683E+04  0.65609227590E+03 0.  0.
         13    1    3    3    0    0  0.58084589310E+02 -0.25841096652E+03 -0.11943054576E+03  0.29054036276E+03  0.00000000000E+00 0.  1.
          3    1    3    3  501    0 -0.58084599424E+02  0.25841096738E+03 -0.77295518527E+03  0.81707390558E+03  0.00000000000E+00 0.  1.
         21    1    1    2  502  501  0.10114068249E-04 -0.86273159427E-06  0.82235551114E-04  0.82859667809E-04  0.00000000000E+00 0. -1.
<mgrwt>
<rscale>  1 0.65609228E+03</rscale>
<asrwt>0</asrwt>
<pdfrwt beam="1">  1        1 0.39132574E+00 0.65609228E+03</pdfrwt>
<pdfrwt beam="2">0</pdfrwt>
<totfact> 0.14604820E+00</totfact>
</mgrwt>
</event>
<event>
 6    1  0.3167183E-003  0.6605220E+03  0.7818608E-02  0.9787233E-01
          1   -1    0    0  502    0  0.00000000000E+00  0.00000000000E+00  0.10907710893E+03  0.10907710893E+03  0.00000000000E+00 0.  1.
         13   -1    0    0    0    0 -0.00000000000E+00 -0.00000000000E+00 -0.10000000000E+04  0.10000000000E+04  0.00000000000E+00 0.  1.
    9000005    2    1    2  501    0 -0.38913515004E-03  0.37771570204E-02 -0.89092681274E+03  0.11090716502E+04  0.66052202051E+03 0.  0.
         13    1    3    3    0    0 -0.26105422004E+03 -0.15776078744E+02 -0.78409841236E+03  0.82656428106E+03  0.00000000000E+00 0.  1.
          3    1    3    3  501    0  0.26105383090E+03  0.15779855901E+02 -0.10682840038E+03  0.28250736912E+03  0.00000000000E+00 0.  1.
         21    1    1    2  502  501  0.38913515005E-03 -0.37771570204E-02  0.39216725856E-02  0.54587413558E-02  0.00000000000E+00 0.  1.
<mgrwt>
<rscale>  1 0.66052202E+03</rscale>
<asrwt>0</asrwt>
<pdfrwt beam="1">  1        1 0.39664487E+00 0.66052202E+03</pdfrwt>
<pdfrwt beam="2">0</pdfrwt>
<totfact> 0.13819684E+00</totfact>
</mgrwt>
</event>
<event>
 6    1  0.3167183E-003  0.4954624E+03  0.7818608E-02  0.1014970E+00
          1   -1    0    0  502    0  0.00000000000E+00  0.00000000000E+00  0.69614203690E+02  0.69614203690E+02  0.00000000000E+00 0.  1.
         13   -1    0    0    0    0 -0.00000000000E+00 -0.00000000000E+00 -0.10000000000E+04  0.10000000000E+04  0.00000000000E+00 0.  1.
    9000005    2    1    2  501    0 -0.47109096660E-01 -0.19780894405E+00 -0.93862791582E+03  0.10613695763E+04  0.49546238172E+03 0.  0.
         13    1    3    3    0    0 -0.13775451069E+03  0.19513297044E+03 -0.60942529767E+03  0.65456273558E+03  0.00000000000E+00 0.  1.
          3    1    3    3  501    0  0.13770740159E+03 -0.19533077938E+03 -0.32920261814E+03  0.40680684067E+03  0.00000000000E+00 0.  1.
         21    1    1    2  502  501  0.47109096660E-01  0.19780894405E+00  0.82421195059E+01  0.82446274382E+01  0.00000000000E+00 0. -1.
<mgrwt>
<rscale>  1 0.49546242E+03</rscale>
<asrwt>0</asrwt>
<pdfrwt beam="1">  1        1 0.25314309E+00 0.49546242E+03</pdfrwt>
<pdfrwt beam="2">0</pdfrwt>
<totfact> 0.59895600E+00</totfact>
</mgrwt>
</event>
<event>
 6    1  0.3167183E-003  0.6515855E+03  0.7818608E-02  0.9803809E-01
          1   -1    0    0  502    0  0.00000000000E+00  0.00000000000E+00  0.10614252412E+03  0.10614252412E+03  0.00000000000E+00 0.  1.
         13   -1    0    0    0    0 -0.00000000000E+00 -0.00000000000E+00 -0.10000000000E+04  0.10000000000E+04  0.00000000000E+00 0.  1.
    9000005    2    1    2  501    0  0.37302883968E-04  0.89174106392E-05 -0.89385908152E+03  0.11061409180E+04  0.65158550697E+03 0.  0.
         13    1    3    3    0    0  0.79918885998E+02  0.26749758691E+03 -0.73200210491E+03  0.78343415099E+03  0.00000000000E+00 0.  1.
          3    1    3    3  501    0 -0.79918848695E+02 -0.26749757800E+03 -0.16185697661E+03  0.32270676703E+03  0.00000000000E+00 0.  1.
         21    1    1    2  502  501 -0.37302883974E-04 -0.89174106312E-05  0.16056454875E-02  0.16061035013E-02  0.00000000000E+00 0. -1.
<mgrwt>
<rscale>  1 0.65158551E+03</rscale>
<asrwt>0</asrwt>
<pdfrwt beam="1">  1        1 0.38597363E+00 0.65158551E+03</pdfrwt>
<pdfrwt beam="2">0</pdfrwt>
<totfact> 0.15437515E+00</totfact>
</mgrwt>
</event>
<event>
 6    1  0.3167183E-003  0.6446034E+03  0.7818608E-02  0.9816959E-01
          1   -1    0    0  502    0  0.00000000000E+00  0.00000000000E+00  0.10400278788E+03  0.10400278788E+03  0.00000000000E+00 0.  1.
         13   -1    0    0    0    0 -0.00000000000E+00 -0.00000000000E+00 -0.10000000000E+04  0.10000000000E+04  0.00000000000E+00 0.  1.
    9000005    2    1    2  501    0 -0.12829526923E-01 -0.13567139852E-02 -0.89612125902E+03  0.11038780719E+04  0.64460335605E+03 0.  0.
         13    1    3    3    0    0 -0.21704089819E+03  0.23997286667E+02 -0.85403373518E+03  0.88150793648E+03  0.00000000000E+00 0.  1.
          3    1    3    3  501    0  0.21702806867E+03 -0.23998643381E+02 -0.42087523841E+02  0.22237013544E+03  0.00000000000E+00 0.  1.
         21    1    1    2  502  501  0.12829526923E-01  0.13567139852E-02  0.12404689856E+00  0.12471595919E+00  0.00000000000E+00 0. -1.
<mgrwt>
<rscale>  1 0.64460336E+03</rscale>
<asrwt>0</asrwt>
<pdfrwt beam="1">  1        1 0.37819275E+00 0.64460336E+03</pdfrwt>
<pdfrwt beam="2">0</pdfrwt>
<totfact> 0.16730250E+00</totfact>
</mgrwt>
</event>
<event>
 6    1  0.3167183E-003  0.6415885E+03  0.7818608E-02  0.9822692E-01
          1   -1    0    0  502    0  0.00000000000E+00  0.00000000000E+00  0.10290904578E+03  0.10290904578E+03  0.00000000000E+00 0.  1.
         13   -1    0    0    0    0 -0.00000000000E+00 -0.00000000000E+00 -0.10000000000E+04  0.10000000000E+04  0.00000000000E+00 0.  1.
    9000005    2    1    2  501    0  0.42061129193E-05  0.90964786921E-05 -0.89709104184E+03  0.11029089576E+04  0.64158852186E+03 0.  0.
         13    1    3    3    0    0  0.21927676019E+03  0.19505680563E+03 -0.22586991309E+03  0.37033319136E+03  0.00000000000E+00 0.  1.
          1    1    3    3  501    0 -0.21927675599E+03 -0.19505679653E+03 -0.67122112875E+03  0.73257576623E+03  0.00000000000E+00 0.  1.
         21    1    1    2  502  501 -0.42061129098E-05 -0.90964787031E-05  0.87621216335E-04  0.88192487563E-04  0.00000000000E+00 0.  1.
<mgrwt>
<rscale>  1 0.64158852E+03</rscale>
<asrwt>0</asrwt>
<pdfrwt beam="1">  1        1 0.37421550E+00 0.64158852E+03</pdfrwt>
<pdfrwt beam="2">0</pdfrwt>
<totfact> 0.17428463E+00</totfact>
</mgrwt>
</event>
<event>
 6    1  0.3167183E-003  0.6493566E+03  0.7818608E-02  0.9807987E-01
          1   -1    0    0  502    0  0.00000000000E+00  0.00000000000E+00  0.10542027820E+03  0.10542027820E+03  0.00000000000E+00 0.  1.
         13   -1    0    0    0    0 -0.00000000000E+00 -0.00000000000E+00 -0.10000000000E+04  0.10000000000E+04  0.00000000000E+00 0.  1.
    9000005    2    1    2  501    0  0.57661854854E-04  0.46297567167E-04 -0.89458400094E+03  0.11054159984E+04  0.64935660066E+03 0.  0.
         13    1    3    3    0    0 -0.44334438273E+02 -0.31813575629E+03 -0.36672180693E+03  0.48750465180E+03  0.00000000000E+00 0.  1.
          3    1    3    3  501    0  0.44334495935E+02  0.31813580258E+03 -0.52786219401E+03  0.61791134662E+03  0.00000000000E+00 0.  1.
         21    1    1    2  502  501 -0.57661854858E-04 -0.46297567179E-04  0.42791440551E-02  0.42797829616E-02  0.00000000000E+00 0.  1.
<mgrwt>
<rscale>  1 0.64935660E+03</rscale>
<asrwt>0</asrwt>
<pdfrwt beam="1">  1        1 0.38334727E+00 0.64935660E+03</pdfrwt>
<pdfrwt beam="2">0</pdfrwt>
<totfact> 0.15862481E+00</totfact>
</mgrwt>
</event>
<event>
 6    1  0.3167183E-003  0.6461936E+03  0.7818608E-02  0.9813948E-01
          1   -1    0    0  502    0  0.00000000000E+00  0.00000000000E+00  0.10566781934E+03  0.10566781934E+03  0.00000000000E+00 0.  1.
         13   -1    0    0    0    0 -0.00000000000E+00 -0.00000000000E+00 -0.10000000000E+04  0.10000000000E+04  0.00000000000E+00 0.  1.
    9000005    2    1    2  501    0 -0.46288912528E-01 -0.99328339779E-01 -0.89560585531E+03  0.11043894392E+04  0.64619360353E+03 0.  0.
         13    1    3    3    0    0  0.24447524774E+03 -0.12265055550E+03 -0.15385931662E+03  0.31382159714E+03  0.00000000000E+00 0.  1.
          1    1    3    3  501    0 -0.24452153665E+03  0.12255122716E+03 -0.74174653869E+03  0.79056784201E+03  0.00000000000E+00 0.  1.
         21    1    1    2  502  501  0.46288912528E-01  0.99328339779E-01  0.12736746518E+01  0.12783801864E+01  0.00000000000E+00 0. -1.
<mgrwt>
<rscale>  1 0.64619361E+03</rscale>
<asrwt>0</asrwt>
<pdfrwt beam="1">  1        1 0.38424743E+00 0.64619361E+03</pdfrwt>
<pdfrwt beam="2">0</pdfrwt>
<totfact> 0.15727009E+00</totfact>
</mgrwt>
</event>
<event>
 6    1  0.3167183E-003  0.6363416E+03  0.7818608E-02  0.9832751E-01
          1   -1    0    0  502    0  0.00000000000E+00  0.00000000000E+00  0.10168527197E+03  0.10168527197E+03  0.00000000000E+00 0.  1.
         13   -1    0    0    0    0 -0.00000000000E+00 -0.00000000000E+00 -0.10000000000E+04  0.10000000000E+04  0.00000000000E+00 0.  1.
    9000005    2    1    2  501    0  0.11508455555E-01  0.41505711228E-01 -0.89876621786E+03  0.11012317323E+04  0.63634158438E+03 0.  0.
         13    1    3    3    0    0  0.21594168351E+02  0.17746166730E+03 -0.90490849456E+03  0.92239814343E+03  0.00000000000E+00 0.  1.
          3    1    3    3  501    0 -0.21582659896E+02 -0.17742016159E+03  0.61422767053E+01  0.17883358887E+03  0.00000000000E+00 0.  1.
         21    1    1    2  502  501 -0.11508455555E-01 -0.41505711228E-01  0.45148982559E+00  0.45353966885E+00  0.00000000000E+00 0.  1.
<mgrwt>
<rscale>  1 0.63634159E+03</rscale>
<asrwt>0</asrwt>
<pdfrwt beam="1">  1        1 0.36976541E+00 0.63634159E+03</pdfrwt>
<pdfrwt beam="2">0</pdfrwt>
<totfact> 0.18248887E+00</totfact>
</mgrwt>
</event>
<event>
 6    1  0.3167183E-003  0.6560513E+03  0.7818608E-02  0.9795490E-01
          1   -1    0    0  502    0  0.00000000000E+00  0.00000000000E+00  0.10761134259E+03  0.10761134259E+03  0.00000000000E+00 0.  1.
         13   -1    0    0    0    0 -0.00000000000E+00 -0.00000000000E+00 -0.10000000000E+04  0.10000000000E+04  0.00000000000E+00 0.  1.
    9000005    2    1    2  501    0  0.12393426869E-01 -0.16051553538E-02 -0.89239488259E+03  0.11075973810E+04  0.65605131791E+03 0.  0.
         13    1    3    3    0    0  0.35315114450E+02  0.27061246437E+03 -0.75345752907E+03  0.80135916498E+03  0.00000000000E+00 0.  1.
          3    1    3    3  501    0 -0.35302721023E+02 -0.27061406953E+03 -0.13893735352E+03  0.30623821600E+03  0.00000000000E+00 0.  1.
         21    1    1    2  502  501 -0.12393426869E-01  0.16051553539E-02  0.62251842986E-02  0.13961607100E-01  0.00000000000E+00 0. -1.
<mgrwt>
<rscale>  1 0.65605132E+03</rscale>
<asrwt>0</asrwt>
<pdfrwt beam="1">  1        1 0.39131480E+00 0.65605132E+03</pdfrwt>
<pdfrwt beam="2">0</pdfrwt>
<totfact> 0.14606564E+00</totfact>
</mgrwt>
</event>
<event>
 6    1  0.3167183E-003  0.6538610E+03  0.7818608E-02  0.9799561E-01
          1   -1    0    0  502    0  0.00000000000E+00  0.00000000000E+00  0.10688357064E+03  0.10688357064E+03  0.00000000000E+00 0.  1.
         13   -1    0    0    0    0 -0.00000000000E+00 -0.00000000000E+00 -0.10000000000E+04  0.10000000000E+04  0.00000000000E+00 0.  1.
    9000005    2    1    2  501    0  0.22194595317E-05 -0.36221523914E-05 -0.89311643267E+03  0.11068835653E+04  0.65386104389E+03 0.  0.
         13    1    3    3    0    0 -0.21025016523E+03  0.68572853350E+02 -0.85416493798E+03  0.88232936564E+03  0.00000000000E+00 0.  1.
          3    1    3    3  501    0  0.21025016745E+03 -0.68572856972E+02 -0.38951494691E+02  0.22455419961E+03  0.00000000000E+00 0.  1.
         21    1    1    2  502  501 -0.22194595383E-05  0.36221523934E-05  0.33090581540E-05  0.53847798905E-05  0.00000000000E+00 0.  1.
<mgrwt>
<rscale>  1 0.65386104E+03</rscale>
<asrwt>0</asrwt>
<pdfrwt beam="1">  1        1 0.38866835E+00 0.65386104E+03</pdfrwt>
<pdfrwt beam="2">0</pdfrwt>
<totfact> 0.15012771E+00</totfact>
</mgrwt>
</event>
<event>
 6    1  0.3167183E-003  0.6448195E+03  0.7818608E-02  0.9816549E-01
          1   -1    0    0  502    0  0.00000000000E+00  0.00000000000E+00  0.10399728900E+03  0.10399728900E+03  0.00000000000E+00 0.  1.
         13   -1    0    0    0    0 -0.00000000000E+00 -0.00000000000E+00 -0.10000000000E+04  0.10000000000E+04  0.00000000000E+00 0.  1.
    9000005    2    1    2  501    0 -0.60169365078E-03 -0.48972629838E-03 -0.89605195785E+03  0.11039480360E+04  0.64481947482E+03 0.  0.
         13    1    3    3    0    0 -0.93116352978E+02  0.20226129575E+03 -0.84721712508E+03  0.87598923737E+03  0.00000000000E+00 0.  1.
          3    1    3    3  501    0  0.93115751285E+02 -0.20226178547E+03 -0.48834832767E+02  0.22795879867E+03  0.00000000000E+00 0.  1.
         21    1    1    2  502  501  0.60169365079E-03  0.48972629840E-03  0.49246849054E-01  0.49252959392E-01  0.00000000000E+00 0.  1.
<mgrwt>
<rscale>  1 0.64481947E+03</rscale>
<asrwt>0</asrwt>
<pdfrwt beam="1">  1        1 0.37817276E+00 0.64481947E+03</pdfrwt>
<pdfrwt beam="2">0</pdfrwt>
<totfact> 0.16732982E+00</totfact>
</mgrwt>
</event>
<event>
 6    1  0.3167183E-003  0.6532086E+03  0.7818608E-02  0.9800777E-01
          1   -1    0    0  502    0  0.00000000000E+00  0.00000000000E+00  0.10667356741E+03  0.10667356741E+03  0.00000000000E+00 0.  1.
         13   -1    0    0    0    0 -0.00000000000E+00 -0.00000000000E+00 -0.10000000000E+04  0.10000000000E+04  0.00000000000E+00 0.  1.
    9000005    2    1    2  501    0 -0.83729387563E-03 -0.34638135418E-05 -0.89332956445E+03  0.11066703256E+04  0.65320861810E+03 0.  0.
         13    1    3    3    0    0 -0.26209234064E+03  0.52348924265E+02 -0.76469714190E+03  0.81005834587E+03  0.00000000000E+00 0.  1.
          3    1    3    3  501    0  0.26209150335E+03 -0.52348927729E+02 -0.12863242255E+03  0.29661197969E+03  0.00000000000E+00 0.  1.
         21    1    1    2  502  501  0.83729387563E-03  0.34638135408E-05  0.31318533541E-02  0.32418480014E-02  0.00000000000E+00 0.  1.
<mgrwt>
<rscale>  1 0.65320862E+03</rscale>
<asrwt>0</asrwt>
<pdfrwt beam="1">  1        1 0.38790470E+00 0.65320862E+03</pdfrwt>
<pdfrwt beam="2">0</pdfrwt>
<totfact> 0.15132019E+00</totfact>
</mgrwt>
</event>
<event>
 6    1  0.3167183E-003  0.5100155E+03  0.7818608E-02  0.1011197E+00
          3   -1    0    0  502    0  0.00000000000E+00  0.00000000000E+00  0.65028961456E+02  0.65028961456E+02  0.00000000000E+00 0.  1.
         13   -1    0    0    0    0 -0.00000000000E+00 -0.00000000000E+00 -0.10000000000E+04  0.10000000000E+04  0.00000000000E+00 0.  1.
    9000005    2    1    2  501    0 -0.11761233054E-06 -0.22225845271E-05 -0.93497105487E+03  0.10650289450E+04  0.51001547054E+03 0.  0.
         13    1    3    3    0    0 -0.19284586520E+03  0.15356867357E+03 -0.60371871656E+03  0.65211130488E+03  0.00000000000E+00 0.  1.
          3    1    3    3  501    0  0.19284586509E+03 -0.15356867579E+03 -0.33125233831E+03  0.41291764010E+03  0.00000000000E+00 0.  1.
         21    1    1    2  502  501  0.11761230452E-06  0.22225845199E-05  0.16327950749E-04  0.16478946880E-04  0.00000000000E+00 0. -1.
<mgrwt>
<rscale>  1 0.51001547E+03</rscale>
<asrwt>0</asrwt>
<pdfrwt beam="1">  1        3 0.23646945E+00 0.51001547E+03</pdfrwt>
<pdfrwt beam="2">0</pdfrwt>
<totfact> 0.46367482E-01</totfact>
</mgrwt>
</event>
<event>
 6    1  0.3167183E-003  0.6654777E+03  0.7818608E-02  0.9778162E-01
          1   -1    0    0  502    0  0.00000000000E+00  0.00000000000E+00  0.12407847350E+03  0.12407847350E+03  0.00000000000E+00 0.  1.
         13   -1    0    0    0    0 -0.00000000000E+00 -0.00000000000E+00 -0.10000000000E+04  0.10000000000E+04  0.00000000000E+00 0.  1.
    9000005    2    1    2  501    0 -0.23604919155E+00  0.16783722455E+00 -0.88928312524E+03  0.11107137360E+04  0.66547760484E+03 0.  0.
         13    1    3    3    0    0 -0.15260320762E+03 -0.15954023281E+03 -0.86019421062E+03  0.88807370463E+03  0.00000000000E+00 0.  1.
          3    1    3    3  501    0  0.15236715842E+03  0.15970807003E+03 -0.29088914613E+02  0.22264003134E+03  0.00000000000E+00 0.  1.
         21    1    1    2  502  501  0.23604919155E+00 -0.16783722455E+00  0.13361598735E+02  0.13364737532E+02  0.00000000000E+00 0.  1.
<mgrwt>
<rscale>  1 0.66547767E+03</rscale>
<asrwt>0</asrwt>
<pdfrwt beam="1">  1        1 0.45119540E+00 0.66547767E+03</pdfrwt>
<pdfrwt beam="2">0</pdfrwt>
<totfact> 0.78195799E-01</totfact>
</mgrwt>
</event>
<event>
 6    1  0.3167183E-003  0.6345799E+03  0.7818608E-02  0.9836152E-01
          1   -1    0    0  502    0  0.00000000000E+00  0.00000000000E+00  0.10067291202E+03  0.10067291202E+03  0.00000000000E+00 0.  1.
         13   -1    0    0    0    0 -0.00000000000E+00 -0.00000000000E+00 -0.10000000000E+04  0.10000000000E+04  0.00000000000E+00 0.  1.
    9000005    2    1    2  501    0 -0.10892313924E-04  0.47912539429E-05 -0.89932708003E+03  0.11006728977E+04  0.63457988535E+03 0.  0.
         13    1    3    3    0    0 -0.19113592038E+03  0.24410017299E+02 -0.12433840910E+02  0.19308907117E+03  0.00000000000E+00 0.  1.
          3    1    3    3  501    0  0.19113590949E+03 -0.24410012508E+02 -0.88689323911E+03  0.90758382654E+03  0.00000000000E+00 0.  1.
         21    1    1    2  502  501  0.10892313911E-04 -0.47912539439E-05 -0.79521308020E-05  0.14312057888E-04  0.00000000000E+00 0. -1.
<mgrwt>
<rscale>  1 0.63457989E+03</rscale>
<asrwt>0</asrwt>
<pdfrwt beam="1">  1        1 0.36608409E+00 0.63457989E+03</pdfrwt>
<pdfrwt beam="2">0</pdfrwt>
<totfact> 0.18946469E+00</totfact>
</mgrwt>
</event>
<event>
 6    1  0.3167183E-003  0.6502605E+03  0.7818608E-02  0.9806290E-01
          1   -1    0    0  502    0  0.00000000000E+00  0.00000000000E+00  0.10588848274E+03  0.10588848274E+03  0.00000000000E+00 0.  1.
         13   -1    0    0    0    0 -0.00000000000E+00 -0.00000000000E+00 -0.10000000000E+04  0.10000000000E+04  0.00000000000E+00 0.  1.
    9000005    2    1    2  501    0  0.98065668331E-01  0.54996605209E-01 -0.89427056511E+03  0.11056937067E+04  0.65026049911E+03 0.  0.
         13    1    3    3    0    0 -0.31479986754E+03  0.63811988775E+02 -0.36186466576E+03  0.48385634526E+03  0.00000000000E+00 0.  1.
          1    1    3    3  501    0  0.31489793321E+03 -0.63756992170E+02 -0.53240589934E+03  0.62183736141E+03  0.00000000000E+00 0.  1.
         21    1    1    2  502  501 -0.98065668331E-01 -0.54996605209E-01  0.15904784999E+00  0.19477607778E+00  0.00000000000E+00 0. -1.
<mgrwt>
<rscale>  1 0.65026051E+03</rscale>
<asrwt>0</asrwt>
<pdfrwt beam="1">  1        1 0.38504984E+00 0.65026051E+03</pdfrwt>
<pdfrwt beam="2">0</pdfrwt>
<totfact> 0.15587300E+00</totfact>
</mgrwt>
</event>
<event>
 6    1  0.3167183E-003  0.6311684E+03  0.7818608E-02  0.9842771E-01
          1   -1    0    0  502    0  0.00000000000E+00  0.00000000000E+00  0.99708814918E+02  0.99708814918E+02  0.00000000000E+00 0.  1.
         13   -1    0    0    0    0 -0.00000000000E+00 -0.00000000000E+00 -0.10000000000E+04  0.10000000000E+04  0.00000000000E+00 0.  1.
    9000005    2    1    2  501    0 -0.31568770198E-01 -0.12217854397E+00 -0.90036746550E+03  0.10995613602E+04  0.63116843714E+03 0.  0.
         13    1    3    3    0    0  0.19715655260E+03 -0.15495617390E+03 -0.78406066030E+03  0.82318481588E+03  0.00000000000E+00 0.  1.
          3    1    3    3  501    0 -0.19718812137E+03  0.15483399535E+03 -0.11630680520E+03  0.27637654434E+03  0.00000000000E+00 0.  1.
         21    1    1    2  502  501  0.31568770198E-01  0.12217854397E+00  0.76280420270E-01  0.14745469261E+00  0.00000000000E+00 0.  1.
<mgrwt>
<rscale>  1 0.63116845E+03</rscale>
<asrwt>0</asrwt>
<pdfrwt beam="1">  1        1 0.36257827E+00 0.63116845E+03</pdfrwt>
<pdfrwt beam="2">0</pdfrwt>
<totfact> 0.19640667E+00</totfact>
</mgrwt>
</event>
<event>
 6    1  0.3167183E-003  0.6619508E+03  0.7818608E-02  0.9784609E-01
          1   -1    0    0  502    0  0.00000000000E+00  0.00000000000E+00  0.10954668153E+03  0.10954668153E+03  0.00000000000E+00 0.  1.
         13   -1    0    0    0    0 -0.00000000000E+00 -0.00000000000E+00 -0.10000000000E+04  0.10000000000E+04  0.00000000000E+00 0.  1.
    9000005    2    1    2  501    0  0.35838879029E-04  0.18689881500E-05 -0.89045527628E+03  0.11095447234E+04  0.66195082456E+03 0.  0.
         13    1    3    3    0    0 -0.13175513152E+03  0.71856429523E+02  0.49235041354E+02  0.15794571993E+03  0.00000000000E+00 0.  1.
          3    1    3    3  501    0  0.13175516736E+03 -0.71856427654E+02 -0.93969031764E+03  0.95159900346E+03  0.00000000000E+00 0.  1.
         21    1    1    2  502  501 -0.35838879026E-04 -0.18689881503E-05  0.19578165627E-02  0.19581454521E-02  0.00000000000E+00 0. -1.
<mgrwt>
<rscale>  1 0.66195082E+03</rscale>
<asrwt>0</asrwt>
<pdfrwt beam="1">  1        1 0.39835241E+00 0.66195082E+03</pdfrwt>
<pdfrwt beam="2">0</pdfrwt>
<totfact> 0.13576211E+00</totfact>
</mgrwt>
</event>
<event>
 6    1  0.3167183E-003  0.6572902E+03  0.7818608E-02  0.9793195E-01
          1   -1    0    0  502    0  0.00000000000E+00  0.00000000000E+00  0.10800761744E+03  0.10800761744E+03  0.00000000000E+00 0.  1.
         13   -1    0    0    0    0 -0.00000000000E+00 -0.00000000000E+00 -0.10000000000E+04  0.10000000000E+04  0.00000000000E+00 0.  1.
    9000005    2    1    2  501    0  0.64030613487E-05  0.59714566447E-06 -0.89199239163E+03  0.11080076063E+04  0.65729021667E+03 0.  0.
         13    1    3    3    0    0  0.23856921033E+03  0.38297495766E+02 -0.70471380553E+02  0.25169064698E+03  0.00000000000E+00 0.  1.
          1    1    3    3  501    0 -0.23856920393E+03 -0.38297495169E+02 -0.82152101108E+03  0.85631695934E+03  0.00000000000E+00 0.  1.
         21    1    1    2  502  501 -0.64030613339E-05 -0.59714566503E-06  0.90711188016E-05  0.11119396283E-04  0.00000000000E+00 0.  1.
<mgrwt>
<rscale>  1 0.65729022E+03</rscale>
<asrwt>0</asrwt>
<pdfrwt beam="1">  1        1 0.39275580E+00 0.65729022E+03</pdfrwt>
<pdfrwt beam="2">0</pdfrwt>
<totfact> 0.14389662E+00</totfact>
</mgrwt>
</event>
<event>
 6    1  0.3167183E-003  0.6655989E+03  0.7818608E-02  0.9777941E-01
          1   -1    0    0  502    0  0.00000000000E+00  0.00000000000E+00  0.11174084581E+03  0.11174084581E+03  0.00000000000E+00 0.  1.
         13   -1    0    0    0    0 -0.00000000000E+00 -0.00000000000E+00 -0.10000000000E+04  0.10000000000E+04  0.00000000000E+00 0.  1.
    9000005    2    1    2  501    0 -0.37843669813E+00  0.16976833745E+00 -0.88919581695E+03  0.11107164568E+04  0.66559873392E+03 0.  0.
         13    1    3    3    0    0  0.15444091869E+03  0.29347935481E+03 -0.39843649324E+03  0.51839537827E+03  0.00000000000E+00 0.  1.
          3    1    3    3  501    0 -0.15481935539E+03 -0.29330958647E+03 -0.49075932371E+03  0.59232107858E+03  0.00000000000E+00 0.  1.
         21    1    1    2  502  501  0.37843669813E+00 -0.16976833745E+00  0.93666275618E+00  0.10243889602E+01  0.00000000000E+00 0. -1.
<mgrwt>
<rscale>  1 0.66559886E+03</rscale>
<asrwt>0</asrwt>
<pdfrwt beam="1">  1        1 0.40633121E+00 0.66559886E+03</pdfrwt>
<pdfrwt beam="2">0</pdfrwt>
<totfact> 0.12498386E+00</totfact>
</mgrwt>
</event>
<event>
 6    1  0.3167183E-003  0.6368823E+03  0.7818608E-02  0.9831710E-01
          1   -1    0    0  502    0  0.00000000000E+00  0.00000000000E+00  0.10140499773E+03  0.10140499773E+03  0.00000000000E+00 0.  1.
         13   -1    0    0    0    0 -0.00000000000E+00 -0.00000000000E+00 -0.10000000000E+04  0.10000000000E+04  0.00000000000E+00 0.  1.
    9000005    2    1    2  501    0 -0.69279553088E-04  0.65825411468E-05 -0.89859524399E+03  0.11014047462E+04  0.63688225162E+03 0.  0.
         13    1    3    3    0    0  0.18334940719E+03  0.24972702924E+03 -0.32193161369E+03  0.44678916521E+03  0.00000000000E+00 0.  1.
          1    1    3    3  501    0 -0.18334947647E+03 -0.24972702266E+03 -0.57666363029E+03  0.65461558099E+03  0.00000000000E+00 0.  1.
         21    1    1    2  502  501  0.69279553095E-04 -0.65825411649E-05  0.24171691291E-03  0.25153538978E-03  0.00000000000E+00 0. -1.
<mgrwt>
<rscale>  1 0.63688225E+03</rscale>
<asrwt>0</asrwt>
<pdfrwt beam="1">  1        1 0.36874622E+00 0.63688225E+03</pdfrwt>
<pdfrwt beam="2">0</pdfrwt>
<totfact> 0.18436060E+00</totfact>
</mgrwt>
</event>
<event>
 6    1  0.3167183E-003  0.5279337E+03  0.7818608E-02  0.1006734E+00
          1   -1    0    0  502    0  0.00000000000E+00  0.00000000000E+00  0.69678589028E+02  0.69678589028E+02  0.00000000000E+00 0.  1.
         13   -1    0    0    0    0 -0.00000000000E+00 -0.00000000000E+00 -0.10000000000E+04  0.10000000000E+04  0.00000000000E+00 0.  1.
    9000005    2    1    2  501    0 -0.95380775633E-06 -0.29334629943E-05 -0.93032150864E+03  0.10696784913E+04  0.52793367512E+03 0.  0.
         13    1    3    3    0    0  0.18360428706E+03 -0.92787343503E+02 -0.80029574249E+03  0.82631307673E+03  0.00000000000E+00 0.  1.
          1    1    3    3  501    0 -0.18360428801E+03  0.92787340569E+02 -0.13002576616E+03  0.24336541457E+03  0.00000000000E+00 0.  1.
         21    1    1    2  502  501  0.95380774046E-06  0.29334629969E-05  0.97670833315E-04  0.97719530467E-04  0.00000000000E+00 0.  1.
<mgrwt>
<rscale>  1 0.52793368E+03</rscale>
<asrwt>0</asrwt>
<pdfrwt beam="1">  1        1 0.25337722E+00 0.52793368E+03</pdfrwt>
<pdfrwt beam="2">0</pdfrwt>
<totfact> 0.59425934E+00</totfact>
</mgrwt>
</event>
<event>
 6    1  0.3167183E-003  0.6539637E+03  0.7818608E-02  0.9799370E-01
          1   -1    0    0  502    0  0.00000000000E+00  0.00000000000E+00  0.10716738216E+03  0.10716738216E+03  0.00000000000E+00 0.  1.
         13   -1    0    0    0    0 -0.00000000000E+00 -0.00000000000E+00 -0.10000000000E+04  0.10000000000E+04  0.00000000000E+00 0.  1.
    9000005    2    1    2  501    0 -0.25314587439E+00  0.70219771844E+00 -0.89207192073E+03  0.11061016315E+04  0.65396326364E+03 0.  0.
         13    1    3    3    0    0 -0.38526598690E+02  0.17829364814E+03  0.13100630309E+02  0.18287851237E+03  0.00000000000E+00 0.  1.
          3    1    3    3  501    0  0.38273452816E+02 -0.17759145042E+03 -0.90517255104E+03  0.92322311908E+03  0.00000000000E+00 0.  1.
         21    1    1    2  502  501  0.25314587439E+00 -0.70219771844E+00 -0.76069710799E+00  0.10657507024E+01  0.00000000000E+00 0.  1.
<mgrwt>
<rscale>  1 0.65396369E+03</rscale>
<asrwt>0</asrwt>
<pdfrwt beam="1">  1        1 0.38970039E+00 0.65396369E+03</pdfrwt>
<pdfrwt beam="2">0</pdfrwt>
<totfact> 0.14855173E+00</totfact>
</mgrwt>
</event>
<event>
 6    1  0.3167183E-003  0.7261760E+03  0.7818608E-02  0.9673486E-01
          1   -1    0    0  502    0  0.00000000000E+00  0.00000000000E+00  0.13183413079E+03  0.13183413079E+03  0.00000000000E+00 0.  1.
         13   -1    0    0    0    0 -0.00000000000E+00 -0.00000000000E+00 -0.10000000000E+04  0.10000000000E+04  0.00000000000E+00 0.  1.
    9000005    2    1    2  501    0  0.13601832432E-03  0.62731807702E-04 -0.86816708158E+03  0.11318329092E+04  0.72617604808E+03 0.  0.
         13    1    3    3    0    0  0.53315440715E+01  0.25332117954E+03 -0.83942346448E+03  0.87683054126E+03  0.00000000000E+00 0.  1.
          1    1    3    3  501    0 -0.53314080532E+01 -0.25332111681E+03 -0.28743617105E+02  0.25500236794E+03  0.00000000000E+00 0.  1.
         21    1    1    2  502  501 -0.13601832432E-03 -0.62731807727E-04  0.12123711653E-02  0.12215891726E-02  0.00000000000E+00 0.  1.
<mgrwt>
<rscale>  1 0.72617605E+03</rscale>
<asrwt>0</asrwt>
<pdfrwt beam="1">  1        1 0.47939785E+00 0.72617605E+03</pdfrwt>
<pdfrwt beam="2">0</pdfrwt>
<totfact> 0.57043939E-01</totfact>
</mgrwt>
</event>
<event>
 6    1  0.3167183E-003  0.6490204E+03  0.7818608E-02  0.9808619E-01
          1   -1    0    0  502    0  0.00000000000E+00  0.00000000000E+00  0.10531187123E+03  0.10531187123E+03  0.00000000000E+00 0.  1.
         13   -1    0    0    0    0 -0.00000000000E+00 -0.00000000000E+00 -0.10000000000E+04  0.10000000000E+04  0.00000000000E+00 0.  1.
    9000005    2    1    2  501    0  0.73726015100E-04  0.21541560272E-04 -0.89469313402E+03  0.11053068654E+04  0.64902038691E+03 0.  0.
         13    1    3    3    0    0  0.78471222723E+01  0.24041244697E+03 -0.81830872191E+03  0.85292959050E+03  0.00000000000E+00 0.  1.
          3    1    3    3  501    0 -0.78470485463E+01 -0.24041242543E+03 -0.76384412104E+02  0.25237727490E+03  0.00000000000E+00 0.  1.
         21    1    1    2  502  501 -0.73726015100E-04 -0.21541560275E-04  0.50052500309E-02  0.50058393338E-02  0.00000000000E+00 0.  1.
<mgrwt>
<rscale>  1 0.64902039E+03</rscale>
<asrwt>0</asrwt>
<pdfrwt beam="1">  1        1 0.38295307E+00 0.64902039E+03</pdfrwt>
<pdfrwt beam="2">0</pdfrwt>
<totfact> 0.15927224E+00</totfact>
</mgrwt>
</event>
<event>
 6    1  0.3167183E-003  0.6444527E+03  0.7818608E-02  0.9817244E-01
          1   -1    0    0  502    0  0.00000000000E+00  0.00000000000E+00  0.10383001346E+03  0.10383001346E+03  0.00000000000E+00 0.  1.
         13   -1    0    0    0    0 -0.00000000000E+00 -0.00000000000E+00 -0.10000000000E+04  0.10000000000E+04  0.00000000000E+00 0.  1.
    9000005    2    1    2  501    0 -0.10065038944E-03 -0.11809593150E-03 -0.89617012516E+03  0.11038298054E+04  0.64445274927E+03 0.  0.
         13    1    3    3    0    0  0.22149932394E+03  0.23400131515E+03 -0.45382240243E+03  0.55657285143E+03  0.00000000000E+00 0.  1.
          1    1    3    3  501    0 -0.22149942459E+03 -0.23400143325E+03 -0.44234772273E+03  0.54725695396E+03  0.00000000000E+00 0.  1.
         21    1    1    2  502  501  0.10065038943E-03  0.11809593148E-03  0.13861631500E-03  0.20806641418E-03  0.00000000000E+00 0.  1.
<mgrwt>
<rscale>  1 0.64445275E+03</rscale>
<asrwt>0</asrwt>
<pdfrwt beam="1">  1        1 0.37756448E+00 0.64445275E+03</pdfrwt>
<pdfrwt beam="2">0</pdfrwt>
<totfact> 0.16837735E+00</totfact>
</mgrwt>
</event>
<event>
 6    1  0.3167183E-003  0.6510729E+03  0.7818608E-02  0.9804768E-01
          1   -1    0    0  502    0  0.00000000000E+00  0.00000000000E+00  0.10597420055E+03  0.10597420055E+03  0.00000000000E+00 0.  1.
         13   -1    0    0    0    0 -0.00000000000E+00 -0.00000000000E+00 -0.10000000000E+04  0.10000000000E+04  0.00000000000E+00 0.  1.
    9000005    2    1    2  501    0 -0.33356317118E-04  0.24013832288E-04 -0.89402602332E+03  0.11059739729E+04  0.65107288259E+03 0.  0.
         13    1    3    3    0    0 -0.25517294609E+03  0.98377123028E+02 -0.74697909623E+03  0.79546782522E+03  0.00000000000E+00 0.  1.
          3    1    3    3  501    0  0.25517291274E+03 -0.98377099014E+02 -0.14704692709E+03  0.31050614772E+03  0.00000000000E+00 0.  1.
         21    1    1    2  502  501  0.33356317125E-04 -0.24013832282E-04  0.22387275069E-03  0.22761440318E-03  0.00000000000E+00 0. -1.
<mgrwt>
<rscale>  1 0.65107288E+03</rscale>
<asrwt>0</asrwt>
<pdfrwt beam="1">  1        1 0.38536154E+00 0.65107288E+03</pdfrwt>
<pdfrwt beam="2">0</pdfrwt>
<totfact> 0.15535558E+00</totfact>
</mgrwt>
</event>
<event>
 6    1  0.3167183E-003  0.6427233E+03  0.7818608E-02  0.9820530E-01
          1   -1    0    0  502    0  0.00000000000E+00  0.00000000000E+00  0.10327331541E+03  0.10327331541E+03  0.00000000000E+00 0.  1.
         13   -1    0    0    0    0 -0.00000000000E+00 -0.00000000000E+00 -0.10000000000E+04  0.10000000000E+04  0.00000000000E+00 0.  1.
    9000005    2    1    2  501    0  0.12124375530E-05 -0.90084120075E-06 -0.89672668771E+03  0.11032733119E+04  0.64272330626E+03 0.  0.
         13    1    3    3    0    0  0.74164573461E+02  0.17317471804E+03 -0.89527417818E+03  0.91488016759E+03  0.00000000000E+00 0.  1.
          3    1    3    3  501    0 -0.74164572249E+02 -0.17317471894E+03 -0.14525095257E+01  0.18839314436E+03  0.00000000000E+00 0.  1.
         21    1    1    2  502  501 -0.12124375462E-05  0.90084119543E-06  0.31210868907E-05  0.34673769686E-05  0.00000000000E+00 0. -1.
<mgrwt>
<rscale>  1 0.64272331E+03</rscale>
<asrwt>0</asrwt>
<pdfrwt beam="1">  1        1 0.37554012E+00 0.64272331E+03</pdfrwt>
<pdfrwt beam="2">0</pdfrwt>
<totfact> 0.17192479E+00</totfact>
</mgrwt>
</event>
<event>
 6    1  0.3167183E-003  0.5580439E+03  0.7818608E-02  0.9996490E-01
          1   -1    0    0  502    0  0.00000000000E+00  0.00000000000E+00  0.77854007078E+02  0.77854007078E+02  0.00000000000E+00 0.  1.
         13   -1    0    0    0    0 -0.00000000000E+00 -0.00000000000E+00 -0.10000000000E+04  0.10000000000E+04  0.00000000000E+00 0.  1.
    9000005    2    1    2  501    0 -0.55561750827E-04 -0.40265468044E-05 -0.92214675437E+03  0.10778532436E+04  0.55804388550E+03 0.  0.
         13    1    3    3    0    0 -0.23584959165E+03 -0.14186398323E+03 -0.37250186691E+03  0.46315014895E+03  0.00000000000E+00 0.  1.
          1    1    3    3  501    0  0.23584953609E+03  0.14186397920E+03 -0.54964488746E+03  0.61470309465E+03  0.00000000000E+00 0.  1.
         21    1    1    2  502  501  0.55561750811E-04  0.40265468132E-05  0.76144476657E-03  0.76347983193E-03  0.00000000000E+00 0.  1.
<mgrwt>
<rscale>  1 0.55804389E+03</rscale>
<asrwt>0</asrwt>
<pdfrwt beam="1">  1        1 0.28310608E+00 0.55804389E+03</pdfrwt>
<pdfrwt beam="2">0</pdfrwt>
<totfact> 0.43963703E+00</totfact>
</mgrwt>
</event>
<event>
 6    1  0.3167183E-003  0.6472226E+03  0.7818608E-02  0.9812005E-01
          1   -1    0    0  502    0  0.00000000000E+00  0.00000000000E+00  0.10532587320E+03  0.10532587320E+03  0.00000000000E+00 0.  1.
         13   -1    0    0    0    0 -0.00000000000E+00 -0.00000000000E+00 -0.10000000000E+04  0.10000000000E+04  0.00000000000E+00 0.  1.
    9000005    2    1    2  501    0 -0.51631699192E-02 -0.10933790276E-01 -0.89527565531E+03  0.11047242232E+04  0.64722261250E+03 0.  0.
         13    1    3    3    0    0  0.44009773907E+02  0.25670537322E+03 -0.77545123349E+03  0.81802146938E+03  0.00000000000E+00 0.  1.
          1    1    3    3  501    0 -0.44014937077E+02 -0.25671630701E+03 -0.11982442182E+03  0.28670275380E+03  0.00000000000E+00 0.  1.
         21    1    1    2  502  501  0.51631699192E-02  0.10933790276E-01  0.60152851077E+00  0.60165002731E+00  0.00000000000E+00 0.  1.
<mgrwt>
<rscale>  1 0.64722261E+03</rscale>
<asrwt>0</asrwt>
<pdfrwt beam="1">  1        1 0.38300398E+00 0.64722261E+03</pdfrwt>
<pdfrwt beam="2">0</pdfrwt>
<totfact> 0.15924255E+00</totfact>
</mgrwt>
</event>
<event>
 6    1  0.3167183E-003  0.6451424E+03  0.7818608E-02  0.9815937E-01
          1   -1    0    0  502    0  0.00000000000E+00  0.00000000000E+00  0.10406892298E+03  0.10406892298E+03  0.00000000000E+00 0.  1.
         13   -1    0    0    0    0 -0.00000000000E+00 -0.00000000000E+00 -0.10000000000E+04  0.10000000000E+04  0.00000000000E+00 0.  1.
    9000005    2    1    2  501    0 -0.30171370381E-03 -0.33633728444E-03 -0.89594781774E+03  0.11040521762E+04  0.64514239946E+03 0.  0.
         13    1    3    3    0    0  0.20922861694E+03 -0.21515537636E+03 -0.65034370538E+03  0.71625092339E+03  0.00000000000E+00 0.  1.
          3    1    3    3  501    0 -0.20922891865E+03  0.21515504003E+03 -0.24560411236E+03  0.38780125278E+03  0.00000000000E+00 0.  1.
         21    1    1    2  502  501  0.30171370380E-03  0.33633728443E-03  0.16740720504E-01  0.16746816919E-01  0.00000000000E+00 0.  1.
<mgrwt>
<rscale>  1 0.64514240E+03</rscale>
<asrwt>0</asrwt>
<pdfrwt beam="1">  1        1 0.37843325E+00 0.64514240E+03</pdfrwt>
<pdfrwt beam="2">0</pdfrwt>
<totfact> 0.16687805E+00</totfact>
</mgrwt>
</event>
<event>
 6    1  0.3167183E-003  0.6482307E+03  0.7818608E-02  0.9810105E-01
          1   -1    0    0  502    0  0.00000000000E+00  0.00000000000E+00  0.10705945780E+03  0.10705945780E+03  0.00000000000E+00 0.  1.
         13   -1    0    0    0    0 -0.00000000000E+00 -0.00000000000E+00 -0.10000000000E+04  0.10000000000E+04  0.00000000000E+00 0.  1.
    9000005    2    1    2  501    0  0.11701187412E+01  0.15334248463E+00 -0.89475591279E+03  0.11048942183E+04  0.64822966410E+03 0.  0.
         13    1    3    3    0    0  0.32762494117E+01 -0.23582296537E+03 -0.82612561151E+03  0.85913138157E+03  0.00000000000E+00 0.  1.
          1    1    3    3  501    0 -0.21061306706E+01  0.23597630785E+03 -0.68630301281E+02  0.24576283671E+03  0.00000000000E+00 0.  1.
         21    1    1    2  502  501 -0.11701187412E+01 -0.15334248463E+00  0.18153705989E+01  0.21652395243E+01  0.00000000000E+00 0. -1.
<mgrwt>
<rscale>  1 0.64823074E+03</rscale>
<asrwt>0</asrwt>
<pdfrwt beam="1">  1        1 0.38930794E+00 0.64823074E+03</pdfrwt>
<pdfrwt beam="2">0</pdfrwt>
<totfact> 0.14930727E+00</totfact>
</mgrwt>
</event>
<event>
 6    1  0.3167183E-003  0.6062521E+03  0.7818608E-02  0.9892519E-01
          1   -1    0    0  502    0  0.00000000000E+00  0.00000000000E+00  0.91971773600E+02  0.91971773600E+02  0.00000000000E+00 0.  1.
         13   -1    0    0    0    0 -0.00000000000E+00 -0.00000000000E+00 -0.10000000000E+04  0.10000000000E+04  0.00000000000E+00 0.  1.
    9000005    2    1    2  501    0 -0.85299518837E-02  0.34875728669E-01 -0.90811049255E+03  0.10918820139E+04  0.60625214590E+03 0.  0.
         13    1    3    3    0    0 -0.19996688475E+03 -0.21742313455E+03 -0.57645772455E+03  0.64773689306E+03  0.00000000000E+00 0.  1.
          1    1    3    3  501    0  0.19995835480E+03  0.21745801028E+03 -0.33165276800E+03  0.44414512089E+03  0.00000000000E+00 0.  1.
         21    1    1    2  502  501  0.85299518837E-02 -0.34875728669E-01  0.82266150008E-01  0.89759656675E-01  0.00000000000E+00 0. -1.
<mgrwt>
<rscale>  1 0.60625215E+03</rscale>
<asrwt>0</asrwt>
<pdfrwt beam="1">  1        1 0.33444352E+00 0.60625215E+03</pdfrwt>
<pdfrwt beam="2">0</pdfrwt>
<totfact> 0.26160088E+00</totfact>
</mgrwt>
</event>
<event>
 6    1  0.3167183E-003  0.6194762E+03  0.7818608E-02  0.9865803E-01
          1   -1    0    0  502    0  0.00000000000E+00  0.00000000000E+00  0.10041658610E+03  0.10041658610E+03  0.00000000000E+00 0.  1.
         13   -1    0    0    0    0 -0.00000000000E+00 -0.00000000000E+00 -0.10000000000E+04  0.10000000000E+04  0.00000000000E+00 0.  1.
    9000005    2    1    2  501    0 -0.58803125087E+00 -0.26192640967E+01 -0.90361761543E+03  0.10955708553E+04  0.61947033642E+03 0.  0.
         13    1    3    3    0    0 -0.22236846366E+03 -0.17764782455E+03 -0.67356028335E+03  0.73122495752E+03  0.00000000000E+00 0.  1.
          1    1    3    3  501    0  0.22178043241E+03  0.17502856045E+03 -0.23005733208E+03  0.36434589776E+03  0.00000000000E+00 0.  1.
         21    1    1    2  502  501  0.58803125087E+00  0.26192640967E+01  0.40342015326E+01  0.48457308185E+01  0.00000000000E+00 0. -1.
<mgrwt>
<rscale>  1 0.61947615E+03</rscale>
<asrwt>0</asrwt>
<pdfrwt beam="1">  1        1 0.36515199E+00 0.61947615E+03</pdfrwt>
<pdfrwt beam="2">0</pdfrwt>
<totfact> 0.19178511E+00</totfact>
</mgrwt>
</event>
<event>
 6    1  0.3167183E-003  0.6484353E+03  0.7818608E-02  0.9809720E-01
          1   -1    0    0  502    0  0.00000000000E+00  0.00000000000E+00  0.10512157799E+03  0.10512157799E+03  0.00000000000E+00 0.  1.
         13   -1    0    0    0    0 -0.00000000000E+00 -0.00000000000E+00 -0.10000000000E+04  0.10000000000E+04  0.00000000000E+00 0.  1.
    9000005    2    1    2  501    0  0.17785815345E-04  0.99168526077E-04 -0.89488291945E+03  0.11051170794E+04  0.64843528567E+03 0.  0.
         13    1    3    3    0    0 -0.19794118626E+03 -0.23261044299E+03 -0.26208373277E+03  0.40246268695E+03  0.00000000000E+00 0.  1.
          1    1    3    3  501    0  0.19794120405E+03  0.23261054216E+03 -0.63279918668E+03  0.70265439247E+03  0.00000000000E+00 0.  1.
         21    1    1    2  502  501 -0.17785815326E-04 -0.99168526089E-04  0.44974364555E-02  0.44985648160E-02  0.00000000000E+00 0.  1.
<mgrwt>
<rscale>  1 0.64843529E+03</rscale>
<asrwt>0</asrwt>
<pdfrwt beam="1">  1        1 0.38226109E+00 0.64843529E+03</pdfrwt>
<pdfrwt beam="2">0</pdfrwt>
<totfact> 0.16041464E+00</totfact>
</mgrwt>
</event>
<event>
 6    1  0.3167183E-003  0.6283921E+03  0.7818608E-02  0.9848192E-01
          1   -1    0    0  502    0  0.00000000000E+00  0.00000000000E+00  0.98766304872E+02  0.98766304872E+02  0.00000000000E+00 0.  1.
         13   -1    0    0    0    0 -0.00000000000E+00 -0.00000000000E+00 -0.10000000000E+04  0.10000000000E+04  0.00000000000E+00 0.  1.
    9000005    2    1    2  501    0  0.48729335684E-01 -0.12747672510E+00 -0.90112763756E+03  0.10985934666E+04  0.62839204883E+03 0.  0.
         13    1    3    3    0    0 -0.27934949466E+03  0.11500045774E+02 -0.70105996385E+03  0.75475390966E+03  0.00000000000E+00 0.  1.
          3    1    3    3  501    0  0.27939822400E+03 -0.11627522499E+02 -0.20006767371E+03  0.34383955694E+03  0.00000000000E+00 0.  1.
         21    1    1    2  502  501 -0.48729335684E-01  0.12747672510E+00 -0.10605756375E+00  0.17283827825E+00  0.00000000000E+00 0.  1.
<mgrwt>
<rscale>  1 0.62839206E+03</rscale>
<asrwt>0</asrwt>
<pdfrwt beam="1">  1        1 0.35915096E+00 0.62839206E+03</pdfrwt>
<pdfrwt beam="2">0</pdfrwt>
<totfact> 0.20340813E+00</totfact>
</mgrwt>
</event>
<event>
 6    1  0.3167183E-003  0.6576268E+03  0.7818608E-02  0.9792572E-01
          1   -1    0    0  502    0  0.00000000000E+00  0.00000000000E+00  0.10966954392E+03  0.10966954392E+03  0.00000000000E+00 0.  1.
         13   -1    0    0    0    0 -0.00000000000E+00 -0.00000000000E+00 -0.10000000000E+04  0.10000000000E+04  0.00000000000E+00 0.  1.
    9000005    2    1    2  501    0 -0.46445128354E-01  0.48879744113E-02 -0.89188137082E+03  0.11081179262E+04  0.65762676082E+03 0.  0.
         13    1    3    3    0    0  0.48512173248E+02 -0.67325878814E+02  0.90182092577E+02  0.12255208988E+03  0.00000000000E+00 0.  1.
          3    1    3    3  501    0 -0.48558618376E+02  0.67330766788E+02 -0.98206346340E+03  0.98556583632E+03  0.00000000000E+00 0.  1.
         21    1    1    2  502  501  0.46445128354E-01 -0.48879744113E-02  0.15509147358E+01  0.15516177235E+01  0.00000000000E+00 0.  1.
<mgrwt>
<rscale>  1 0.65762676E+03</rscale>
<asrwt>0</asrwt>
<pdfrwt beam="1">  1        1 0.39879918E+00 0.65762676E+03</pdfrwt>
<pdfrwt beam="2">0</pdfrwt>
<totfact> 0.13525078E+00</totfact>
</mgrwt>
</event>
<event>
 6    1  0.3167183E-003  0.6516605E+03  0.7818608E-02  0.9803668E-01
          1   -1    0    0  502    0  0.00000000000E+00  0.00000000000E+00  0.10616559642E+03  0.10616559642E+03  0.00000000000E+00 0.  1.
         13   -1    0    0    0    0 -0.00000000000E+00 -0.00000000000E+00 -0.10000000000E+04  0.10000000000E+04  0.00000000000E+00 0.  1.
    9000005    2    1    2  501    0  0.25453765176E-05  0.26004261940E-04 -0.89383465259E+03  0.11061653460E+04  0.65166048415E+03 0.  0.
         13    1    3    3    0    0 -0.19643587618E+02  0.25266378553E+03 -0.99288792852E+02  0.27218215122E+03  0.00000000000E+00 0.  1.
          1    1    3    3  501    0  0.19643590163E+02 -0.25266375953E+03 -0.79454585974E+03  0.83398319482E+03  0.00000000000E+00 0.  1.
         21    1    1    2  502  501 -0.25453765162E-05 -0.26004261947E-04  0.24901859437E-03  0.25038562444E-03  0.00000000000E+00 0.  1.
<mgrwt>
<rscale>  1 0.65166048E+03</rscale>
<asrwt>0</asrwt>
<pdfrwt beam="1">  1        1 0.38605753E+00 0.65166048E+03</pdfrwt>
<pdfrwt beam="2">0</pdfrwt>
<totfact> 0.15424109E+00</totfact>
</mgrwt>
</event>
<event>
 6    1  0.3167183E-003  0.6445507E+03  0.7818608E-02  0.9817059E-01
          1   -1    0    0  502    0  0.00000000000E+00  0.00000000000E+00  0.10662006785E+03  0.10662006785E+03  0.00000000000E+00 0.  1.
         13   -1    0    0    0    0 -0.00000000000E+00 -0.00000000000E+00 -0.10000000000E+04  0.10000000000E+04  0.00000000000E+00 0.  1.
    9000005    2    1    2  501    0  0.32452645838E+01 -0.34055363721E+01 -0.89372541857E+03  0.11019032065E+04  0.64453349273E+03 0.  0.
         13    1    3    3    0    0  0.28796715348E+03  0.13207317388E+03 -0.34020324648E+03  0.46487272846E+03  0.00000000000E+00 0.  1.
          3    1    3    3  501    0 -0.28472188890E+03 -0.13547871025E+03 -0.55352217209E+03  0.63703047803E+03  0.00000000000E+00 0.  1.
         21    1    1    2  502  501 -0.32452645838E+01  0.34055363721E+01  0.34548641672E+00  0.47168613573E+01  0.00000000000E+00 0. -1.
<mgrwt>
<rscale>  1 0.64455066E+03</rscale>
<asrwt>0</asrwt>
<pdfrwt beam="1">  1        1 0.38771016E+00 0.64455066E+03</pdfrwt>
<pdfrwt beam="2">0</pdfrwt>
<totfact> 0.15186517E+00</totfact>
</mgrwt>
</event>
<event>
 6    1  0.3167183E-003  0.6523025E+03  0.7818608E-02  0.9802468E-01
          1   -1    0    0  502    0  0.00000000000E+00  0.00000000000E+00  0.10637465670E+03  0.10637465670E+03  0.00000000000E+00 0.  1.
         13   -1    0    0    0    0 -0.00000000000E+00 -0.00000000000E+00 -0.10000000000E+04  0.10000000000E+04  0.00000000000E+00 0.  1.
    9000005    2    1    2  501    0  0.52673645712E-06 -0.17550240159E-05 -0.89362535947E+03  0.11063746404E+04  0.65230250797E+03 0.  0.
         13    1    3    3    0    0 -0.73484640062E+02 -0.12693215856E+03  0.47284113819E+02  0.15410240953E+03  0.00000000000E+00 0.  1.
          3    1    3    3  501    0  0.73484640589E+02  0.12693215681E+03 -0.94090947328E+03  0.95227223090E+03  0.00000000000E+00 0.  1.
         21    1    1    2  502  501 -0.52673644804E-06  0.17550240097E-05  0.16170291959E-04  0.16273779604E-04  0.00000000000E+00 0.  1.
<mgrwt>
<rscale>  1 0.65230251E+03</rscale>
<asrwt>0</asrwt>
<pdfrwt beam="1">  1        1 0.38681775E+00 0.65230251E+03</pdfrwt>
<pdfrwt beam="2">0</pdfrwt>
<totfact> 0.15303240E+00</totfact>
</mgrwt>
</event>
<event>
 6    1  0.3167183E-003  0.6612589E+03  0.7818608E-02  0.9785879E-01
          1   -1    0    0  502    0  0.00000000000E+00  0.00000000000E+00  0.10931586057E+03  0.10931586057E+03  0.00000000000E+00 0.  1.
         13   -1    0    0    0    0 -0.00000000000E+00 -0.00000000000E+00 -0.10000000000E+04  0.10000000000E+04  0.00000000000E+00 0.  1.
    9000005    2    1    2  501    0 -0.15181760176E-04  0.35150996496E-05 -0.89068414384E+03  0.11093158444E+04  0.66125894964E+03 0.  0.
         13    1    3    3    0    0 -0.12499762748E+03 -0.16162419270E+03 -0.88141347640E+03  0.90478533527E+03  0.00000000000E+00 0.  1.
          1    1    3    3  501    0  0.12499761230E+03  0.16162419621E+03 -0.92706674481E+01  0.20453050911E+03  0.00000000000E+00 0.  1.
         21    1    1    2  502  501  0.15181760185E-04 -0.35150996546E-05  0.44142958015E-05  0.16196535904E-04  0.00000000000E+00 0.  1.
<mgrwt>
<rscale>  1 0.66125895E+03</rscale>
<asrwt>0</asrwt>
<pdfrwt beam="1">  1        1 0.39751306E+00 0.66125895E+03</pdfrwt>
<pdfrwt beam="2">0</pdfrwt>
<totfact> 0.13695353E+00</totfact>
</mgrwt>
</event>
<event>
 6    1  0.3167183E-003  0.5540799E+03  0.7818608E-02  0.1000554E+00
          1   -1    0    0  502    0  0.00000000000E+00  0.00000000000E+00  0.76751209531E+02  0.76751209531E+02  0.00000000000E+00 0.  1.
         13   -1    0    0    0    0 -0.00000000000E+00 -0.00000000000E+00 -0.10000000000E+04  0.10000000000E+04  0.00000000000E+00 0.  1.
    9000005    2    1    2  501    0  0.17611128140E-04 -0.92216037046E-05 -0.92324886430E+03  0.10767511331E+04  0.55407990138E+03 0.  0.
         13    1    3    3    0    0 -0.21152719613E+01  0.26944091524E+03 -0.58678727113E+03  0.64569511593E+03  0.00000000000E+00 0.  1.
          3    1    3    3  501    0  0.21152895724E+01 -0.26944092446E+03 -0.33646159318E+03  0.43105601713E+03  0.00000000000E+00 0.  1.
         21    1    1    2  502  501 -0.17611128140E-04  0.92216036840E-05  0.73836337345E-04  0.76465642751E-04  0.00000000000E+00 0. -1.
<mgrwt>
<rscale>  1 0.55407990E+03</rscale>
<asrwt>0</asrwt>
<pdfrwt beam="1">  1        1 0.27909590E+00 0.55407990E+03</pdfrwt>
<pdfrwt beam="2">0</pdfrwt>
<totfact> 0.45782775E+00</totfact>
</mgrwt>
</event>
<event>
 6    1  0.3167183E-003  0.6493445E+03  0.7818608E-02  0.9808010E-01
          1   -1    0    0  502    0  0.00000000000E+00  0.00000000000E+00  0.10695712953E+03  0.10695712953E+03  0.00000000000E+00 0.  1.
         13   -1    0    0    0    0 -0.00000000000E+00 -0.00000000000E+00 -0.10000000000E+04  0.10000000000E+04  0.00000000000E+00 0.  1.
    9000005    2    1    2  501    0  0.20851771887E-01 -0.29359799366E-01 -0.89458769092E+03  0.11054118894E+04  0.64934452120E+03 0.  0.
         13    1    3    3    0    0 -0.18217516689E+03 -0.24822830219E+03 -0.27194689283E+03  0.41080432563E+03  0.00000000000E+00 0.  1.
          1    1    3    3  501    0  0.18219601866E+03  0.24819894239E+03 -0.62264079809E+03  0.69460756378E+03  0.00000000000E+00 0.  1.
         21    1    1    2  502  501 -0.20851771887E-01  0.29359799366E-01  0.15448204554E+01  0.15452401216E+01  0.00000000000E+00 0.  1.
<mgrwt>
<rscale>  1 0.64934452E+03</rscale>
<asrwt>0</asrwt>
<pdfrwt beam="1">  1        1 0.38893584E+00 0.64934452E+03</pdfrwt>
<pdfrwt beam="2">0</pdfrwt>
<totfact> 0.14984416E+00</totfact>
</mgrwt>
</event>
<event>
 6    1  0.3167183E-003  0.6567011E+03  0.7818608E-02  0.9794286E-01
          1   -1    0    0  502    0  0.00000000000E+00  0.00000000000E+00  0.10885731463E+03  0.10885731463E+03  0.00000000000E+00 0.  1.
         13   -1    0    0    0    0 -0.00000000000E+00 -0.00000000000E+00 -0.10000000000E+04  0.10000000000E+04  0.00000000000E+00 0.  1.
    9000005    2    1    2  501    0  0.36655725863E-01 -0.12820186859E-01 -0.89218551475E+03  0.11078137625E+04  0.65670110253E+03 0.  0.
         13    1    3    3    0    0  0.19242871132E+03 -0.23840859510E+03 -0.64540610310E+03  0.71443439523E+03  0.00000000000E+00 0.  1.
          1    1    3    3  501    0 -0.19239205559E+03  0.23839577492E+03 -0.24677941165E+03  0.39337936724E+03  0.00000000000E+00 0.  1.
         21    1    1    2  502  501 -0.36655725863E-01  0.12820186859E-01  0.10428293834E+01  0.10435521656E+01  0.00000000000E+00 0.  1.
<mgrwt>
<rscale>  1 0.65670110E+03</rscale>
<asrwt>0</asrwt>
<pdfrwt beam="1">  1        1 0.39584562E+00 0.65670110E+03</pdfrwt>
<pdfrwt beam="2">0</pdfrwt>
<totfact> 0.13943263E+00</totfact>
</mgrwt>
</event>
<event>
 6    1  0.3167183E-003  0.6475633E+03  0.7818608E-02  0.9811362E-01
          1   -1    0    0  502    0  0.00000000000E+00  0.00000000000E+00  0.10483500493E+03  0.10483500493E+03  0.00000000000E+00 0.  1.
         13   -1    0    0    0    0 -0.00000000000E+00 -0.00000000000E+00 -0.10000000000E+04  0.10000000000E+04  0.00000000000E+00 0.  1.
    9000005    2    1    2  501    0  0.17591759644E-04 -0.21864762175E-04 -0.89516545282E+03  0.11048345463E+04  0.64756326859E+03 0.  0.
         13    1    3    3    0    0  0.19987823762E+03  0.11011995876E+03 -0.83946389861E+03  0.86992950994E+03  0.00000000000E+00 0.  1.
          3    1    3    3  501    0 -0.19987822003E+03 -0.11011998063E+03 -0.55701554208E+02  0.23490503638E+03  0.00000000000E+00 0.  1.
         21    1    1    2  502  501 -0.17591759661E-04  0.21864762175E-04  0.45774555211E-03  0.45860498069E-03  0.00000000000E+00 0.  1.
<mgrwt>
<rscale>  1 0.64756327E+03</rscale>
<asrwt>0</asrwt>
<pdfrwt beam="1">  1        1 0.38121900E+00 0.64756327E+03</pdfrwt>
<pdfrwt beam="2">0</pdfrwt>
<totfact> 0.16214949E+00</totfact>
</mgrwt>
</event>
<event>
 6    1  0.3167183E-003  0.6488017E+03  0.7818608E-02  0.9809030E-01
          1   -1    0    0  502    0  0.00000000000E+00  0.00000000000E+00  0.10534509800E+03  0.10534509800E+03  0.00000000000E+00 0.  1.
         13   -1    0    0    0    0 -0.00000000000E+00 -0.00000000000E+00 -0.10000000000E+04  0.10000000000E+04  0.00000000000E+00 0.  1.
    9000005    2    1    2  501    0  0.11281742521E+00  0.15976638149E+00 -0.89465733088E+03  0.11051494990E+04  0.64880169327E+03 0.  0.
         13    1    3    3    0    0  0.10355134640E+03  0.18359554338E+03 -0.86758827221E+03  0.89282675529E+03  0.00000000000E+00 0.  1.
          3    1    3    3  501    0 -0.10343852897E+03 -0.18343577699E+03 -0.27069058661E+02  0.21232274370E+03  0.00000000000E+00 0.  1.
         21    1    1    2  502  501 -0.11281742521E+00 -0.15976638149E+00  0.24288704823E-02  0.19559899667E+00  0.00000000000E+00 0. -1.
<mgrwt>
<rscale>  1 0.64880172E+03</rscale>
<asrwt>0</asrwt>
<pdfrwt beam="1">  1        1 0.38307389E+00 0.64880172E+03</pdfrwt>
<pdfrwt beam="2">0</pdfrwt>
<totfact> 0.15908296E+00</totfact>
</mgrwt>
</event>
<event>
 6    1  0.3167183E-003  0.6374061E+03  0.7818608E-02  0.9830702E-01
          1   -1    0    0  502    0  0.00000000000E+00  0.00000000000E+00  0.10164323798E+03  0.10164323798E+03  0.00000000000E+00 0.  1.
         13   -1    0    0    0    0 -0.00000000000E+00 -0.00000000000E+00 -0.10000000000E+04  0.10000000000E+04  0.00000000000E+00 0.  1.
    9000005    2    1    2  501    0 -0.10795431324E-02  0.12637774034E-01 -0.89842773480E+03  0.11015711407E+04  0.63740613682E+03 0.  0.
         13    1    3    3    0    0  0.32415332758E+02  0.79982253141E+02 -0.97942628530E+03  0.98322111600E+03  0.00000000000E+00 0.  1.
          1    1    3    3  501    0 -0.32416412301E+02 -0.79969615367E+02  0.80998550499E+02  0.11835002472E+03  0.00000000000E+00 0.  1.
         21    1    1    2  502  501  0.10795431324E-02 -0.12637774034E-01  0.70972780764E-01  0.72097256226E-01  0.00000000000E+00 0.  1.
<mgrwt>
<rscale>  1 0.63740614E+03</rscale>
<asrwt>0</asrwt>
<pdfrwt beam="1">  1        1 0.36961255E+00 0.63740614E+03</pdfrwt>
<pdfrwt beam="2">0</pdfrwt>
<totfact> 0.18273566E+00</totfact>
</mgrwt>
</event>
<event>
 6    1  0.3167183E-003  0.6452203E+03  0.7818608E-02  0.9815789E-01
          1   -1    0    0  502    0  0.00000000000E+00  0.00000000000E+00  0.10421408716E+03  0.10421408716E+03  0.00000000000E+00 0.  1.
         13   -1    0    0    0    0 -0.00000000000E+00 -0.00000000000E+00 -0.10000000000E+04  0.10000000000E+04  0.00000000000E+00 0.  1.
    9000005    2    1    2  501    0  0.57654861115E-01 -0.41077025089E+00 -0.89534660769E+03  0.11036098974E+04  0.64522018383E+03 0.  0.
         13    1    3    3    0    0 -0.30960532222E+03  0.90355422877E+02 -0.44473807300E+03  0.54937374488E+03  0.00000000000E+00 0.  1.
          3    1    3    3  501    0  0.30966297708E+03 -0.90766193128E+02 -0.45060853469E+03  0.55423615249E+03  0.00000000000E+00 0.  1.
         21    1    1    2  502  501 -0.57654861115E-01  0.41077025089E+00 -0.43930515533E+00  0.60418978933E+00  0.00000000000E+00 0.  1.
<mgrwt>
<rscale>  1 0.64522032E+03</rscale>
<asrwt>0</asrwt>
<pdfrwt beam="1">  1        1 0.37896112E+00 0.64522032E+03</pdfrwt>
<pdfrwt beam="2">0</pdfrwt>
<totfact> 0.16598368E+00</totfact>
</mgrwt>
</event>
<event>
 6    1  0.3167183E-003  0.6516279E+03  0.7818608E-02  0.9803729E-01
          1   -1    0    0  502    0  0.00000000000E+00  0.00000000000E+00  0.10873066293E+03  0.10873066293E+03  0.00000000000E+00 0.  1.
         13   -1    0    0    0    0 -0.00000000000E+00 -0.00000000000E+00 -0.10000000000E+04  0.10000000000E+04  0.00000000000E+00 0.  1.
    9000005    2    1    2  501    0  0.94752611940E+00  0.79927630091E+00 -0.89367928659E+03  0.11060205882E+04  0.65162668577E+03 0.  0.
         13    1    3    3    0    0 -0.17435189886E+03  0.15628445818E+03 -0.83115109899E+03  0.86350192001E+03  0.00000000000E+00 0.  1.
          1    1    3    3  501    0  0.17529942498E+03 -0.15548518187E+03 -0.62528187594E+02  0.24251866820E+03  0.00000000000E+00 0.  1.
         21    1    1    2  502  501 -0.94752611940E+00 -0.79927630091E+00  0.24099495193E+01  0.27100747292E+01  0.00000000000E+00 0. -1.
<mgrwt>
<rscale>  1 0.65162786E+03</rscale>
<asrwt>0</asrwt>
<pdfrwt beam="1">  1        1 0.39538506E+00 0.65162786E+03</pdfrwt>
<pdfrwt beam="2">0</pdfrwt>
<totfact> 0.14022522E+00</totfact>
</mgrwt>
</event>
<event>
 6    1  0.3167183E-003  0.6456577E+03  0.7818608E-02  0.9814961E-01
          1   -1    0    0  502    0  0.00000000000E+00  0.00000000000E+00  0.10708230287E+03  0.10708230287E+03  0.00000000000E+00 0.  1.
         13   -1    0    0    0    0 -0.00000000000E+00 -0.00000000000E+00 -0.10000000000E+04  0.10000000000E+04  0.00000000000E+00 0.  1.
    9000005    2    1    2  501    0  0.27474691467E+00  0.24117078573E+00 -0.89576864261E+03  0.11042080135E+04  0.64565760459E+03 0.  0.
         13    1    3    3    0    0  0.15671227127E+03  0.71543737757E+02  0.19099571772E+02  0.17332638582E+03  0.00000000000E+00 0.  1.
          3    1    3    3  501    0 -0.15643752436E+03 -0.71302566972E+02 -0.91486821438E+03  0.93088162769E+03  0.00000000000E+00 0.  1.
         21    1    1    2  502  501 -0.27474691467E+00 -0.24117078573E+00  0.28509454813E+01  0.28742893647E+01  0.00000000000E+00 0.  1.
<mgrwt>
<rscale>  1 0.64565771E+03</rscale>
<asrwt>0</asrwt>
<pdfrwt beam="1">  1        1 0.38939101E+00 0.64565771E+03</pdfrwt>
<pdfrwt beam="2">0</pdfrwt>
<totfact> 0.14925259E+00</totfact>
</mgrwt>
</event>
<event>
 6    1  0.3167183E-003  0.6646473E+03  0.7818608E-02  0.9779676E-01
          1   -1    0    0  502    0  0.00000000000E+00  0.00000000000E+00  0.11562143039E+03  0.11562143039E+03  0.00000000000E+00 0.  1.
         13   -1    0    0    0    0 -0.00000000000E+00 -0.00000000000E+00 -0.10000000000E+04  0.10000000000E+04  0.00000000000E+00 0.  1.
    9000005    2    1    2  501    0 -0.26660798100E+01 -0.31605706002E+01 -0.88862835271E+03  0.11096920253E+04  0.66463444435E+03 0.  0.
         13    1    3    3    0    0  0.24422046548E+03 -0.21045158902E+03 -0.57904604560E+03  0.66274265745E+03  0.00000000000E+00 0.  1.
          3    1    3    3  501    0 -0.24688654529E+03  0.20729101842E+03 -0.30958230711E+03  0.44694936787E+03  0.00000000000E+00 0.  1.
         21    1    1    2  502  501  0.26660798100E+01  0.31605706002E+01  0.42497831061E+01  0.59294050731E+01  0.00000000000E+00 0.  1.
<mgrwt>
<rscale>  1 0.66464731E+03</rscale>
<asrwt>0</asrwt>
<pdfrwt beam="1">  1        1 0.42044245E+00 0.66464731E+03</pdfrwt>
<pdfrwt beam="2">0</pdfrwt>
<totfact> 0.10802251E+00</totfact>
</mgrwt>
</event>
<event>
 6    1  0.3167183E-003  0.6544115E+03  0.7818608E-02  0.9798536E-01
          1   -1    0    0  502    0  0.00000000000E+00  0.00000000000E+00  0.11896048987E+03  0.11896048987E+03  0.00000000000E+00 0.  1.
         13   -1    0    0    0    0 -0.00000000000E+00 -0.00000000000E+00 -0.10000000000E+04  0.10000000000E+04  0.00000000000E+00 0.  1.
    9000005    2    1    2  501    0  0.13163513250E+02 -0.24871598149E+02 -0.87019307282E+03  0.10888022459E+04  0.65380614272E+03 0.  0.
         13    1    3    3    0    0 -0.43490361997E+02  0.10960762425E+03  0.70146704446E+02  0.13720715370E+03  0.00000000000E+00 0.  1.
          1    1    3    3  501    0  0.56653875248E+02 -0.13447922240E+03 -0.94033977726E+03  0.95159509222E+03  0.00000000000E+00 0.  1.
         21    1    1    2  502  501 -0.13163513250E+02  0.24871598149E+02 -0.10846437316E+02  0.30158243948E+02  0.00000000000E+00 0. -1.
<mgrwt>
<rscale>  1 0.65441145E+03</rscale>
<asrwt>0</asrwt>
<pdfrwt beam="1">  1        1 0.43258451E+00 0.65441145E+03</pdfrwt>
<pdfrwt beam="2">0</pdfrwt>
<totfact> 0.95363462E-01</totfact>
</mgrwt>
</event>
<event>
 6    1  0.3167183E-003  0.6439644E+03  0.7818608E-02  0.9818171E-01
          1   -1    0    0  502    0  0.00000000000E+00  0.00000000000E+00  0.10753299476E+03  0.10753299476E+03  0.00000000000E+00 0.  1.
         13   -1    0    0    0    0 -0.00000000000E+00 -0.00000000000E+00 -0.10000000000E+04  0.10000000000E+04  0.00000000000E+00 0.  1.
    9000005    2    1    2  501    0  0.80956990955E+00 -0.30337966834E+00 -0.89627396282E+03  0.11036291033E+04  0.64396384505E+03 0.  0.
         13    1    3    3    0    0  0.12853629568E+03 -0.50978859667E+02  0.50294050671E+02  0.14713910076E+03  0.00000000000E+00 0.  1.
          3    1    3    3  501    0 -0.12772672577E+03  0.50675479999E+02 -0.94656801349E+03  0.95649000252E+03  0.00000000000E+00 0.  1.
         21    1    1    2  502  501 -0.80956990955E+00  0.30337966834E+00  0.38069575812E+01  0.39038914799E+01  0.00000000000E+00 0.  1.
<mgrwt>
<rscale>  1 0.64396443E+03</rscale>
<asrwt>0</asrwt>
<pdfrwt beam="1">  1        1 0.39102990E+00 0.64396443E+03</pdfrwt>
<pdfrwt beam="2">0</pdfrwt>
<totfact> 0.14682294E+00</totfact>
</mgrwt>
</event>
<event>
 6    1  0.3167183E-003  0.6390192E+03  0.7818608E-02  0.9827605E-01
          1   -1    0    0  502    0  0.00000000000E+00  0.00000000000E+00  0.10208669832E+03  0.10208669832E+03  0.00000000000E+00 0.  1.
         13   -1    0    0    0    0 -0.00000000000E+00 -0.00000000000E+00 -0.10000000000E+04  0.10000000000E+04  0.00000000000E+00 0.  1.
    9000005    2    1    2  501    0 -0.48644426954E-04  0.11853768882E-03 -0.89791359194E+03  0.11020863810E+04  0.63901922715E+03 0.  0.
         13    1    3    3    0    0 -0.29402994235E+03 -0.82156328869E+02 -0.61150594699E+03  0.68347845071E+03  0.00000000000E+00 0.  1.
          3    1    3    3  501    0  0.29402989371E+03  0.82156447407E+02 -0.28640764495E+03  0.41860793033E+03  0.00000000000E+00 0.  1.
         21    1    1    2  502  501  0.48644426931E-04 -0.11853768882E-03  0.29025921007E-03  0.31728200858E-03  0.00000000000E+00 0. -1.
<mgrwt>
<rscale>  1 0.63901923E+03</rscale>
<asrwt>0</asrwt>
<pdfrwt beam="1">  1        1 0.37122514E+00 0.63901923E+03</pdfrwt>
<pdfrwt beam="2">0</pdfrwt>
<totfact> 0.17972650E+00</totfact>
</mgrwt>
</event>
<event>
 6    1  0.3167183E-003  0.6405986E+03  0.7818608E-02  0.9824582E-01
          1   -1    0    0  502    0  0.00000000000E+00  0.00000000000E+00  0.10259163154E+03  0.10259163154E+03  0.00000000000E+00 0.  1.
         13   -1    0    0    0    0 -0.00000000000E+00 -0.00000000000E+00 -0.10000000000E+04  0.10000000000E+04  0.00000000000E+00 0.  1.
    9000005    2    1    2  501    0 -0.98687364414E-05  0.20990614971E-05 -0.89740836220E+03  0.11025916197E+04  0.64059855698E+03 0.  0.
         13    1    3    3    0    0  0.24882708888E+03 -0.48266058862E+02 -0.11165369348E+03  0.27696765130E+03  0.00000000000E+00 0.  1.
          3    1    3    3  501    0 -0.24882709875E+03  0.48266060961E+02 -0.78575466872E+03  0.82562396836E+03  0.00000000000E+00 0.  1.
         21    1    1    2  502  501  0.98687364289E-05 -0.20990614979E-05 -0.62630078277E-05  0.11875322519E-04  0.00000000000E+00 0. -1.
<mgrwt>
<rscale>  1 0.64059856E+03</rscale>
<asrwt>0</asrwt>
<pdfrwt beam="1">  1        1 0.37306127E+00 0.64059856E+03</pdfrwt>
<pdfrwt beam="2">0</pdfrwt>
<totfact> 0.17636614E+00</totfact>
</mgrwt>
</event>
<event>
 6    1  0.3167183E-003  0.6637478E+03  0.7818608E-02  0.9781319E-01
          1   -1    0    0  502    0  0.00000000000E+00  0.00000000000E+00  0.11014421249E+03  0.11014421249E+03  0.00000000000E+00 0.  1.
         13   -1    0    0    0    0 -0.00000000000E+00 -0.00000000000E+00 -0.10000000000E+04  0.10000000000E+04  0.00000000000E+00 0.  1.
    9000005    2    1    2  501    0 -0.62595277484E-04 -0.10882766995E-03 -0.88985972624E+03  0.11101402718E+04  0.66374776127E+03 0.  0.
         13    1    3    3    0    0  0.30585237887E+03 -0.44613406331E+02 -0.24280762291E+03  0.39305416347E+03  0.00000000000E+00 0.  1.
          3    1    3    3  501    0 -0.30585244146E+03  0.44613297503E+02 -0.64705210333E+03  0.71708610828E+03  0.00000000000E+00 0.  1.
         21    1    1    2  502  501  0.62595277478E-04  0.10882766996E-03  0.39387364478E-02  0.39407367884E-02  0.00000000000E+00 0. -1.
<mgrwt>
<rscale>  1 0.66374776E+03</rscale>
<asrwt>0</asrwt>
<pdfrwt beam="1">  1        1 0.40052525E+00 0.66374776E+03</pdfrwt>
<pdfrwt beam="2">0</pdfrwt>
<totfact> 0.13272303E+00</totfact>
</mgrwt>
</event>
<event>
 6    1  0.3167183E-003  0.6499395E+03  0.7818608E-02  0.9806893E-01
          1   -1    0    0  502    0  0.00000000000E+00  0.00000000000E+00  0.10612642498E+03  0.10612642498E+03  0.00000000000E+00 0.  1.
         13   -1    0    0    0    0 -0.00000000000E+00 -0.00000000000E+00 -0.10000000000E+04  0.10000000000E+04  0.00000000000E+00 0.  1.
    9000005    2    1    2  501    0  0.20451514673E+00  0.13511162582E+01 -0.89309324220E+03  0.11045528110E+04  0.64993807837E+03 0.  0.
         13    1    3    3    0    0 -0.19221509788E+03 -0.10135563294E+03 -0.85619404529E+03  0.88333903535E+03  0.00000000000E+00 0.  1.
          3    1    3    3  501    0  0.19241961303E+03  0.10270674919E+03 -0.36899196905E+02  0.22121377566E+03  0.00000000000E+00 0.  1.
         21    1    1    2  502  501 -0.20451514673E+00 -0.13511162582E+01 -0.78033282585E+00  0.15736139639E+01  0.00000000000E+00 0. -1.
<mgrwt>
<rscale>  1 0.64993951E+03</rscale>
<asrwt>0</asrwt>
<pdfrwt beam="1">  1        1 0.38591509E+00 0.64993951E+03</pdfrwt>
<pdfrwt beam="2">0</pdfrwt>
<totfact> 0.15451429E+00</totfact>
</mgrwt>
</event>
<event>
 6    1  0.3167183E-003  0.6426967E+03  0.7818608E-02  0.9820581E-01
          1   -1    0    0  502    0  0.00000000000E+00  0.00000000000E+00  0.10326502726E+03  0.10326502726E+03  0.00000000000E+00 0.  1.
         13   -1    0    0    0    0 -0.00000000000E+00 -0.00000000000E+00 -0.10000000000E+04  0.10000000000E+04  0.00000000000E+00 0.  1.
    9000005    2    1    2  501    0  0.73700675216E-05 -0.93181489547E-06 -0.89673523493E+03  0.11032647650E+04  0.64269670921E+03 0.  0.
         13    1    3    3    0    0  0.83335814512E+02 -0.28871360625E+03 -0.25291151530E+03  0.39276537396E+03  0.00000000000E+00 0.  1.
          1    1    3    3  501    0 -0.83335807142E+02  0.28871360532E+03 -0.64382371963E+03  0.71049939100E+03  0.00000000000E+00 0.  1.
         21    1    1    2  502  501 -0.73700675220E-05  0.93181491018E-06  0.26219326745E-03  0.26229848583E-03  0.00000000000E+00 0. -1.
<mgrwt>
<rscale>  1 0.64269671E+03</rscale>
<asrwt>0</asrwt>
<pdfrwt beam="1">  1        1 0.37550998E+00 0.64269671E+03</pdfrwt>
<pdfrwt beam="2">0</pdfrwt>
<totfact> 0.17197817E+00</totfact>
</mgrwt>
</event>
<event>
 6    1  0.3167183E-003  0.6509155E+03  0.7818608E-02  0.9805063E-01
          1   -1    0    0  502    0  0.00000000000E+00  0.00000000000E+00  0.11795811041E+03  0.11795811041E+03  0.00000000000E+00 0.  1.
         13   -1    0    0    0    0 -0.00000000000E+00 -0.00000000000E+00 -0.10000000000E+04  0.10000000000E+04  0.00000000000E+00 0.  1.
    9000005    2    1    2  501    0  0.45051158340E+00  0.16294886402E+00 -0.89407197362E+03  0.11059184910E+04  0.65091534417E+03 0.  0.
         13    1    3    3    0    0  0.25192136100E+02  0.32202603123E+03 -0.51620717318E+03  0.60893780812E+03  0.00000000000E+00 0.  1.
          1    1    3    3  501    0 -0.24741624516E+02 -0.32186308237E+03 -0.37786480044E+03  0.49698068291E+03  0.00000000000E+00 0.  1.
         21    1    1    2  502  501 -0.45051158340E+00 -0.16294886402E+00  0.12030084033E+02  0.12039619382E+02  0.00000000000E+00 0.  1.
<mgrwt>
<rscale>  1 0.65091552E+03</rscale>
<asrwt>0</asrwt>
<pdfrwt beam="1">  1        1 0.42893949E+00 0.65091552E+03</pdfrwt>
<pdfrwt beam="2">0</pdfrwt>
<totfact> 0.99138803E-01</totfact>
</mgrwt>
</event>
<event>
 6    1  0.3167183E-003  0.6146049E+03  0.7818608E-02  0.9875560E-01
          1   -1    0    0  502    0  0.00000000000E+00  0.00000000000E+00  0.94434919309E+02  0.94434919309E+02  0.00000000000E+00 0.  1.
         13   -1    0    0    0    0 -0.00000000000E+00 -0.00000000000E+00 -0.10000000000E+04  0.10000000000E+04  0.00000000000E+00 0.  1.
    9000005    2    1    2  501    0  0.71839708873E-04  0.22737668061E-04 -0.90556518701E+03  0.10944347890E+04  0.61460491330E+03 0.  0.
         13    1    3    3    0    0  0.58903909727E+02  0.10905958778E+03 -0.95351175224E+03  0.96153436025E+03  0.00000000000E+00 0.  1.
          3    1    3    3  501    0 -0.58903837888E+02 -0.10905956504E+03  0.47946565239E+02  0.13290042875E+03  0.00000000000E+00 0.  1.
         21    1    1    2  502  501 -0.71839708876E-04 -0.22737668057E-04  0.10631456678E-03  0.13031013939E-03  0.00000000000E+00 0.  1.
<mgrwt>
<rscale>  1 0.61460491E+03</rscale>
<asrwt>0</asrwt>
<pdfrwt beam="1">  1        1 0.34340043E+00 0.61460491E+03</pdfrwt>
<pdfrwt beam="2">0</pdfrwt>
<totfact> 0.23883874E+00</totfact>
</mgrwt>
</event>
<event>
 6    1  0.3167183E-003  0.6513772E+03  0.7818608E-02  0.9804198E-01
          1   -1    0    0  502    0  0.00000000000E+00  0.00000000000E+00  0.10607687753E+03  0.10607687753E+03  0.00000000000E+00 0.  1.
         13   -1    0    0    0    0 -0.00000000000E+00 -0.00000000000E+00 -0.10000000000E+04  0.10000000000E+04  0.00000000000E+00 0.  1.
    9000005    2    1    2  501    0  0.10421128266E-02  0.48132799813E-03 -0.89392685306E+03  0.11060729743E+04  0.65137716104E+03 0.  0.
         13    1    3    3    0    0 -0.26906165170E+03 -0.71252260915E+02 -0.15978750329E+03  0.32094096546E+03  0.00000000000E+00 0.  1.
          3    1    3    3  501    0  0.26906269381E+03  0.71252742243E+02 -0.73413934977E+03  0.78513200887E+03  0.00000000000E+00 0.  1.
         21    1    1    2  502  501 -0.10421128266E-02 -0.48132799812E-03  0.37305853087E-02  0.39031964505E-02  0.00000000000E+00 0.  1.
<mgrwt>
<rscale>  1 0.65137716E+03</rscale>
<asrwt>0</asrwt>
<pdfrwt beam="1">  1        1 0.38573491E+00 0.65137716E+03</pdfrwt>
<pdfrwt beam="2">0</pdfrwt>
<totfact> 0.15475706E+00</totfact>
</mgrwt>
</event>
<event>
 6    1  0.3167183E-003  0.6522520E+03  0.7818608E-02  0.9802563E-01
          1   -1    0    0  502    0  0.00000000000E+00  0.00000000000E+00  0.10635830175E+03  0.10635830175E+03  0.00000000000E+00 0.  1.
         13   -1    0    0    0    0 -0.00000000000E+00 -0.00000000000E+00 -0.10000000000E+04  0.10000000000E+04  0.00000000000E+00 0.  1.
    9000005    2    1    2  501    0 -0.38334855006E-04 -0.98433227265E-04 -0.89364178982E+03  0.11063581620E+04  0.65225204792E+03 0.  0.
         13    1    3    3    0    0  0.74933824040E+02  0.10986618022E+03  0.58276151484E+02  0.14519561073E+03  0.00000000000E+00 0.  1.
          3    1    3    3  501    0 -0.74933862375E+02 -0.10986627866E+03 -0.95191794130E+03  0.96116255123E+03  0.00000000000E+00 0.  1.
         21    1    1    2  502  501  0.38334855008E-04  0.98433227273E-04  0.91565597583E-04  0.13979599422E-03  0.00000000000E+00 0. -1.
<mgrwt>
<rscale>  1 0.65225205E+03</rscale>
<asrwt>0</asrwt>
<pdfrwt beam="1">  1        1 0.38675828E+00 0.65225205E+03</pdfrwt>
<pdfrwt beam="2">0</pdfrwt>
<totfact> 0.15312664E+00</totfact>
</mgrwt>
</event>
<event>
 6    1  0.3167183E-003  0.6574523E+03  0.7818608E-02  0.9792895E-01
          1   -1    0    0  502    0  0.00000000000E+00  0.00000000000E+00  0.10938309765E+03  0.10938309765E+03  0.00000000000E+00 0.  1.
         13   -1    0    0    0    0 -0.00000000000E+00 -0.00000000000E+00 -0.10000000000E+04  0.10000000000E+04  0.00000000000E+00 0.  1.
    9000005    2    1    2  501    0  0.53175568627E-01  0.14294516890E-01 -0.89193847575E+03  0.11080603776E+04  0.65745231991E+03 0.  0.
         13    1    3    3    0    0 -0.24235391722E+03  0.21000348936E+03 -0.56764853056E+03  0.65196759198E+03  0.00000000000E+00 0.  1.
          1    1    3    3  501    0  0.24240709279E+03 -0.20998919485E+03 -0.32428994518E+03  0.45609278566E+03  0.00000000000E+00 0.  1.
         21    1    1    2  502  501 -0.53175568627E-01 -0.14294516890E-01  0.13215733931E+01  0.13227200035E+01  0.00000000000E+00 0. -1.
<mgrwt>
<rscale>  1 0.65745232E+03</rscale>
<asrwt>0</asrwt>
<pdfrwt beam="1">  1        1 0.39775756E+00 0.65745232E+03</pdfrwt>
<pdfrwt beam="2">0</pdfrwt>
<totfact> 0.13670794E+00</totfact>
</mgrwt>
</event>
<event>
 6    1  0.3167183E-003  0.6271197E+03  0.7818608E-02  0.9850686E-01
          1   -1    0    0  502    0  0.00000000000E+00  0.00000000000E+00  0.98789908358E+02  0.98789908358E+02  0.00000000000E+00 0.  1.
         13   -1    0    0    0    0 -0.00000000000E+00 -0.00000000000E+00 -0.10000000000E+04  0.10000000000E+04  0.00000000000E+00 0.  1.
    9000005    2    1    2  501    0  0.27340508359E-01  0.83652682723E-01 -0.90167568278E+03  0.10983160725E+04  0.62711972584E+03 0.  0.
         13    1    3    3    0    0  0.24164123805E+03  0.17722384810E+03 -0.28901643447E+03  0.41632833156E+03  0.00000000000E+00 0.  1.
          3    1    3    3  501    0 -0.24161389754E+03 -0.17714019542E+03 -0.61265924831E+03  0.68198774098E+03  0.00000000000E+00 0.  1.
         21    1    1    2  502  501 -0.27340508359E-01 -0.83652682723E-01  0.46559113659E+00  0.47383581671E+00  0.00000000000E+00 0. -1.
<mgrwt>
<rscale>  1 0.62711973E+03</rscale>
<asrwt>0</asrwt>
<pdfrwt beam="1">  1        1 0.35923679E+00 0.62711973E+03</pdfrwt>
<pdfrwt beam="2">0</pdfrwt>
<totfact> 0.20327914E+00</totfact>
</mgrwt>
</event>
<event>
 6    1  0.3167183E-003  0.6132386E+03  0.7818608E-02  0.9878314E-01
          1   -1    0    0  502    0  0.00000000000E+00  0.00000000000E+00  0.94094033533E+02  0.94094033533E+02  0.00000000000E+00 0.  1.
         13   -1    0    0    0    0 -0.00000000000E+00 -0.00000000000E+00 -0.10000000000E+04  0.10000000000E+04  0.00000000000E+00 0.  1.
    9000005    2    1    2  501    0 -0.23857550800E-01  0.27569904756E-01 -0.90597994911E+03  0.10940115550E+04  0.61323862637E+03 0.  0.
         13    1    3    3    0    0 -0.70034287546E+02  0.28403082456E+03 -0.28905463597E+03  0.41125526539E+03  0.00000000000E+00 0.  1.
          1    1    3    3  501    0  0.70010429995E+02 -0.28400325466E+03 -0.61692531314E+03  0.68275628958E+03  0.00000000000E+00 0.  1.
         21    1    1    2  502  501  0.23857550800E-01 -0.27569904756E-01  0.73982645445E-01  0.82478568159E-01  0.00000000000E+00 0.  1.
<mgrwt>
<rscale>  1 0.61323863E+03</rscale>
<asrwt>0</asrwt>
<pdfrwt beam="1">  1        1 0.34216084E+00 0.61323863E+03</pdfrwt>
<pdfrwt beam="2">0</pdfrwt>
<totfact> 0.24187928E+00</totfact>
</mgrwt>
</event>
<event>
 6    1  0.3167183E-003  0.6522112E+03  0.7818608E-02  0.9802639E-01
          1   -1    0    0  502    0  0.00000000000E+00  0.00000000000E+00  0.10639124378E+03  0.10639124378E+03  0.00000000000E+00 0.  1.
         13   -1    0    0    0    0 -0.00000000000E+00 -0.00000000000E+00 -0.10000000000E+04  0.10000000000E+04  0.00000000000E+00 0.  1.
    9000005    2    1    2  501    0 -0.13386543064E-02 -0.23446450259E-02 -0.89365510263E+03  0.11063448188E+04  0.65221117411E+03 0.  0.
         13    1    3    3    0    0  0.17438754698E+03  0.26671134960E+03 -0.32932680472E+03  0.45825986608E+03  0.00000000000E+00 0.  1.
          1    1    3    3  501    0 -0.17438888564E+03 -0.26671369425E+03 -0.56432829791E+03  0.64808495273E+03  0.00000000000E+00 0.  1.
         21    1    1    2  502  501  0.13386543064E-02  0.23446450259E-02  0.46346402568E-01  0.46424975893E-01  0.00000000000E+00 0.  1.
<mgrwt>
<rscale>  1 0.65221117E+03</rscale>
<asrwt>0</asrwt>
<pdfrwt beam="1">  1        1 0.38687807E+00 0.65221117E+03</pdfrwt>
<pdfrwt beam="2">0</pdfrwt>
<totfact> 0.15294091E+00</totfact>
</mgrwt>
</event>
<event>
 6    1  0.3167183E-003  0.6536455E+03  0.7818608E-02  0.9799963E-01
          1   -1    0    0  502    0  0.00000000000E+00  0.00000000000E+00  0.10687848625E+03  0.10687848625E+03  0.00000000000E+00 0.  1.
         13   -1    0    0    0    0 -0.00000000000E+00 -0.00000000000E+00 -0.10000000000E+04  0.10000000000E+04  0.00000000000E+00 0.  1.
    9000005    2    1    2  501    0  0.49375103779E-01 -0.64897240043E-01 -0.89315744403E+03  0.11067893766E+04  0.65364554429E+03 0.  0.
         13    1    3    3    0    0 -0.31143137468E+03 -0.98972054149E+02 -0.43914045474E+03  0.54738405861E+03  0.00000000000E+00 0.  1.
          3    1    3    3  501    0  0.31148074978E+03  0.98907156909E+02 -0.45401698930E+03  0.55940531794E+03  0.00000000000E+00 0.  1.
         21    1    1    2  502  501 -0.49375103779E-01  0.64897240043E-01  0.35930287312E-01  0.89109697479E-01  0.00000000000E+00 0.  1.
<mgrwt>
<rscale>  1 0.65364555E+03</rscale>
<asrwt>0</asrwt>
<pdfrwt beam="1">  1        1 0.38864986E+00 0.65364555E+03</pdfrwt>
<pdfrwt beam="2">0</pdfrwt>
<totfact> 0.15016202E+00</totfact>
</mgrwt>
</event>
<event>
 6    1  0.3167183E-003  0.6130257E+03  0.7818608E-02  0.9878744E-01
          1   -1    0    0  502    0  0.00000000000E+00  0.00000000000E+00  0.93950331610E+02  0.93950331610E+02  0.00000000000E+00 0.  1.
         13   -1    0    0    0    0 -0.00000000000E+00 -0.00000000000E+00 -0.10000000000E+04  0.10000000000E+04  0.00000000000E+00 0.  1.
    9000005    2    1    2  501    0 -0.84243961851E-06 -0.35513392760E-05 -0.90604985906E+03  0.10939501409E+04  0.61302574472E+03 0.  0.
         13    1    3    3    0    0  0.25310010725E+03 -0.11317789164E+03 -0.68625177293E+03  0.74014214533E+03  0.00000000000E+00 0.  1.
          1    1    3    3  501    0 -0.25310010809E+03  0.11317788809E+03 -0.21979808613E+03  0.35380799558E+03  0.00000000000E+00 0.  1.
         21    1    1    2  502  501  0.84243962471E-06  0.35513392751E-05  0.19066758895E-03  0.19070252015E-03  0.00000000000E+00 0. -1.
<mgrwt>
<rscale>  1 0.61302574E+03</rscale>
<asrwt>0</asrwt>
<pdfrwt beam="1">  1        1 0.34163829E+00 0.61302574E+03</pdfrwt>
<pdfrwt beam="2">0</pdfrwt>
<totfact> 0.24315657E+00</totfact>
</mgrwt>
</event>
<event>
 6    1  0.3167183E-003  0.6353560E+03  0.7818608E-02  0.9834652E-01
          1   -1    0    0  502    0  0.00000000000E+00  0.00000000000E+00  0.10093013926E+03  0.10093013926E+03  0.00000000000E+00 0.  1.
         13   -1    0    0    0    0 -0.00000000000E+00 -0.00000000000E+00 -0.10000000000E+04  0.10000000000E+04  0.00000000000E+00 0.  1.
    9000005    2    1    2  501    0  0.60739578970E-04  0.25020358601E-03 -0.89908069303E+03  0.11009193039E+04  0.63535597985E+03 0.  0.
         13    1    3    3    0    0  0.21874933890E+03 -0.21720034465E+03 -0.31653470006E+03  0.44183874810E+03  0.00000000000E+00 0.  1.
          3    1    3    3  501    0 -0.21874927816E+03  0.21720059485E+03 -0.58254599298E+03  0.65908055580E+03  0.00000000000E+00 0.  1.
         21    1    1    2  502  501 -0.60739578988E-04 -0.25020358603E-03  0.10832296408E-01  0.10835355859E-01  0.00000000000E+00 0. -1.
<mgrwt>
<rscale>  1 0.63535598E+03</rscale>
<asrwt>0</asrwt>
<pdfrwt beam="1">  1        1 0.36701946E+00 0.63535598E+03</pdfrwt>
<pdfrwt beam="2">0</pdfrwt>
<totfact> 0.18765720E+00</totfact>
</mgrwt>
</event>
<event>
 6    1  0.3167183E-003  0.6432389E+03  0.7818608E-02  0.9819549E-01
          1   -1    0    0  502    0  0.00000000000E+00  0.00000000000E+00  0.10346414759E+03  0.10346414759E+03  0.00000000000E+00 0.  1.
         13   -1    0    0    0    0 -0.00000000000E+00 -0.00000000000E+00 -0.10000000000E+04  0.10000000000E+04  0.00000000000E+00 0.  1.
    9000005    2    1    2  501    0  0.60115108822E-02 -0.69036535589E-02 -0.89656001815E+03  0.11034383061E+04  0.64323885858E+03 0.  0.
         13    1    3    3    0    0 -0.19779527955E+03  0.23251777108E+03 -0.27460915595E+03  0.41060647220E+03  0.00000000000E+00 0.  1.
          3    1    3    3  501    0  0.19780129106E+03 -0.23252467473E+03 -0.62195086219E+03  0.69283183392E+03  0.00000000000E+00 0.  1.
         21    1    1    2  502  501 -0.60115108821E-02  0.69036535589E-02  0.24165743230E-01  0.25841475217E-01  0.00000000000E+00 0. -1.
<mgrwt>
<rscale>  1 0.64323886E+03</rscale>
<asrwt>0</asrwt>
<pdfrwt beam="1">  1        1 0.37623406E+00 0.64323886E+03</pdfrwt>
<pdfrwt beam="2">0</pdfrwt>
<totfact> 0.17070322E+00</totfact>
</mgrwt>
</event>
<event>
 6    1  0.3167183E-003  0.6279349E+03  0.7818608E-02  0.9849087E-01
          1   -1    0    0  502    0  0.00000000000E+00  0.00000000000E+00  0.98576813723E+02  0.98576813723E+02  0.00000000000E+00 0.  1.
         13   -1    0    0    0    0 -0.00000000000E+00 -0.00000000000E+00 -0.10000000000E+04  0.10000000000E+04  0.00000000000E+00 0.  1.
    9000005    2    1    2  501    0 -0.66077576236E-04 -0.41357421672E-04 -0.90142445258E+03  0.10985755450E+04  0.62793485681E+03 0.  0.
         13    1    3    3    0    0  0.14432156391E+03 -0.62881617935E+02  0.24537780209E+02  0.15932643956E+03  0.00000000000E+00 0.  1.
          1    1    3    3  501    0 -0.14432162999E+03  0.62881576578E+02 -0.92596223279E+03  0.93924910546E+03  0.00000000000E+00 0.  1.
         21    1    1    2  502  501  0.66077576227E-04  0.41357421667E-04  0.12663061417E-02  0.12687032462E-02  0.00000000000E+00 0.  1.
<mgrwt>
<rscale>  1 0.62793486E+03</rscale>
<asrwt>0</asrwt>
<pdfrwt beam="1">  1        1 0.35846190E+00 0.62793486E+03</pdfrwt>
<pdfrwt beam="2">0</pdfrwt>
<totfact> 0.20484070E+00</totfact>
</mgrwt>
</event>
<event>
 6    1  0.3167183E-003  0.6446493E+03  0.7818608E-02  0.9816871E-01
          1   -1    0    0  502    0  0.00000000000E+00  0.00000000000E+00  0.10389362609E+03  0.10389362609E+03  0.00000000000E+00 0.  1.
         13   -1    0    0    0    0 -0.00000000000E+00 -0.00000000000E+00 -0.10000000000E+04  0.10000000000E+04  0.00000000000E+00 0.  1.
    9000005    2    1    2  501    0 -0.96948621589E-04  0.76756601231E-04 -0.89610680276E+03  0.11038931798E+04  0.64464932356E+03 0.  0.
         13    1    3    3    0    0  0.84984995756E+02 -0.19713078821E+03 -0.36329874647E+02  0.21772197169E+03  0.00000000000E+00 0.  1.
          3    1    3    3  501    0 -0.84985092705E+02  0.19713086496E+03 -0.85977692812E+03  0.88617120808E+03  0.00000000000E+00 0.  1.
         21    1    1    2  502  501  0.96948621587E-04 -0.76756601232E-04  0.42885603907E-03  0.44632736114E-03  0.00000000000E+00 0. -1.
<mgrwt>
<rscale>  1 0.64464932E+03</rscale>
<asrwt>0</asrwt>
<pdfrwt beam="1">  1        1 0.37779580E+00 0.64464932E+03</pdfrwt>
<pdfrwt beam="2">0</pdfrwt>
<totfact> 0.16797649E+00</totfact>
</mgrwt>
</event>
<event>
 6    1  0.3167183E-003  0.6401509E+03  0.7818608E-02  0.9825438E-01
          1   -1    0    0  502    0  0.00000000000E+00  0.00000000000E+00  0.10244972610E+03  0.10244972610E+03  0.00000000000E+00 0.  1.
         13   -1    0    0    0    0 -0.00000000000E+00 -0.00000000000E+00 -0.10000000000E+04  0.10000000000E+04  0.00000000000E+00 0.  1.
    9000005    2    1    2  501    0 -0.18218373734E-03  0.20123833700E-03 -0.89755170654E+03  0.11024482680E+04  0.64015085537E+03 0.  0.
         13    1    3    3    0    0  0.19830142138E+03 -0.11024462843E+03 -0.59966111888E+02  0.23467694048E+03  0.00000000000E+00 0.  1.
          3    1    3    3  501    0 -0.19830160356E+03  0.11024482967E+03 -0.83758559465E+03  0.86777132749E+03  0.00000000000E+00 0.  1.
         21    1    1    2  502  501  0.18218373735E-03 -0.20123833700E-03  0.14326449017E-02  0.14581355208E-02  0.00000000000E+00 0. -1.
<mgrwt>
<rscale>  1 0.64015086E+03</rscale>
<asrwt>0</asrwt>
<pdfrwt beam="1">  1        1 0.37254524E+00 0.64015086E+03</pdfrwt>
<pdfrwt beam="2">0</pdfrwt>
<totfact> 0.17730454E+00</totfact>
</mgrwt>
</event>
<event>
 6    1  0.3167183E-003  0.6324170E+03  0.7818608E-02  0.9840343E-01
          1   -1    0    0  502    0  0.00000000000E+00  0.00000000000E+00  0.99987908991E+02  0.99987908991E+02  0.00000000000E+00 0.  1.
         13   -1    0    0    0    0 -0.00000000000E+00 -0.00000000000E+00 -0.10000000000E+04  0.10000000000E+04  0.00000000000E+00 0.  1.
    9000005    2    1    2  501    0 -0.85249311610E-06  0.18537916162E-05 -0.90001217756E+03  0.10999878224E+04  0.63241702200E+03 0.  0.
         13    1    3    3    0    0  0.13711414574E+03  0.25474458980E+03 -0.22799164699E+03  0.36834126308E+03  0.00000000000E+00 0.  1.
          3    1    3    3  501    0 -0.13711414659E+03 -0.25474458794E+03 -0.67202053057E+03  0.73164655933E+03  0.00000000000E+00 0.  1.
         21    1    1    2  502  501  0.85249310745E-06 -0.18537916036E-05  0.86549676141E-04  0.86573724235E-04  0.00000000000E+00 0. -1.
<mgrwt>
<rscale>  1 0.63241702E+03</rscale>
<asrwt>0</asrwt>
<pdfrwt beam="1">  1        1 0.36359316E+00 0.63241702E+03</pdfrwt>
<pdfrwt beam="2">0</pdfrwt>
<totfact> 0.19436319E+00</totfact>
</mgrwt>
</event>
<event>
 6    1  0.3167183E-003  0.6536176E+03  0.7818608E-02  0.9800015E-01
          1   -1    0    0  502    0  0.00000000000E+00  0.00000000000E+00  0.10712560940E+03  0.10712560940E+03  0.00000000000E+00 0.  1.
         13   -1    0    0    0    0 -0.00000000000E+00 -0.00000000000E+00 -0.10000000000E+04  0.10000000000E+04  0.00000000000E+00 0.  1.
    9000005    2    1    2  501    0  0.22040958231E-01 -0.43968387417E-01 -0.89319393907E+03  0.11068022980E+04  0.65361755768E+03 0.  0.
         13    1    3    3    0    0  0.81506116816E+02 -0.27338859378E+03 -0.17657406918E+03  0.33550405689E+03  0.00000000000E+00 0.  1.
          3    1    3    3  501    0 -0.81484075858E+02  0.27334462539E+03 -0.71661986989E+03  0.77129824113E+03  0.00000000000E+00 0.  1.
         21    1    1    2  502  501 -0.22040958231E-01  0.43968387417E-01  0.31954846478E+00  0.32331137356E+00  0.00000000000E+00 0.  1.
<mgrwt>
<rscale>  1 0.65361756E+03</rscale>
<asrwt>0</asrwt>
<pdfrwt beam="1">  1        1 0.38954849E+00 0.65361756E+03</pdfrwt>
<pdfrwt beam="2">0</pdfrwt>
<totfact> 0.14879183E+00</totfact>
</mgrwt>
</event>
<event>
 6    1  0.3167183E-003  0.6454462E+03  0.7818608E-02  0.9815362E-01
          1   -1    0    0  502    0  0.00000000000E+00  0.00000000000E+00  0.10427030546E+03  0.10427030546E+03  0.00000000000E+00 0.  1.
         13   -1    0    0    0    0 -0.00000000000E+00 -0.00000000000E+00 -0.10000000000E+04  0.10000000000E+04  0.00000000000E+00 0.  1.
    9000005    2    1    2  501    0  0.38909614255E-02  0.11485412230E-01 -0.89584947184E+03  0.11041499159E+04  0.64544617153E+03 0.  0.
         13    1    3    3    0    0  0.15954913335E+03 -0.19084371167E+03 -0.96206123057E+02  0.26670745462E+03  0.00000000000E+00 0.  1.
          1    1    3    3  501    0 -0.15954524239E+03  0.19085519708E+03 -0.79964334878E+03  0.83744246123E+03  0.00000000000E+00 0.  1.
         21    1    1    2  502  501 -0.38909614255E-02 -0.11485412230E-01  0.11977730430E+00  0.12038960462E+00  0.00000000000E+00 0.  1.
<mgrwt>
<rscale>  1 0.64544617E+03</rscale>
<asrwt>0</asrwt>
<pdfrwt beam="1">  1        1 0.37916555E+00 0.64544617E+03</pdfrwt>
<pdfrwt beam="2">0</pdfrwt>
<totfact> 0.16563259E+00</totfact>
</mgrwt>
</event>
<event>
 6    1  0.3167183E-003  0.6478725E+03  0.7818608E-02  0.9810779E-01
          1   -1    0    0  502    0  0.00000000000E+00  0.00000000000E+00  0.10607471998E+03  0.10607471998E+03  0.00000000000E+00 0.  1.
         13   -1    0    0    0    0 -0.00000000000E+00 -0.00000000000E+00 -0.10000000000E+04  0.10000000000E+04  0.00000000000E+00 0.  1.
    9000005    2    1    2  501    0 -0.80921090943E-01  0.10285614176E+00 -0.89506115103E+03  0.11049313344E+04  0.64787249714E+03 0.  0.
         13    1    3    3    0    0  0.23184302349E+03 -0.21773837388E+03 -0.55163539239E+03  0.63675960388E+03  0.00000000000E+00 0.  1.
          3    1    3    3  501    0 -0.23192394458E+03  0.21784123002E+03 -0.34342575864E+03  0.46817173052E+03  0.00000000000E+00 0.  1.
         21    1    1    2  502  501  0.80921090943E-01 -0.10285614176E+00  0.11358710068E+01  0.11433855662E+01  0.00000000000E+00 0. -1.
<mgrwt>
<rscale>  1 0.64787251E+03</rscale>
<asrwt>0</asrwt>
<pdfrwt beam="1">  1        1 0.38572707E+00 0.64787251E+03</pdfrwt>
<pdfrwt beam="2">0</pdfrwt>
<totfact> 0.15486987E+00</totfact>
</mgrwt>
</event>
<event>
 6    1  0.3167183E-003  0.6305314E+03  0.7818608E-02  0.9844012E-01
          1   -1    0    0  502    0  0.00000000000E+00  0.00000000000E+00  0.99392495013E+02  0.99392495013E+02  0.00000000000E+00 0.  1.
         13   -1    0    0    0    0 -0.00000000000E+00 -0.00000000000E+00 -0.10000000000E+04  0.10000000000E+04  0.00000000000E+00 0.  1.
    9000005    2    1    2  501    0 -0.65399937228E-04 -0.53348785897E-04 -0.90060719407E+03  0.10993921728E+04  0.63053138836E+03 0.  0.
         13    1    3    3    0    0 -0.16026265425E+03 -0.51354407783E+02  0.14524478957E+02  0.16891522736E+03  0.00000000000E+00 0.  1.
          1    1    3    3  501    0  0.16026258885E+03  0.51354354434E+02 -0.91513167303E+03  0.93047694549E+03  0.00000000000E+00 0.  1.
         21    1    1    2  502  501  0.65399937221E-04  0.53348785897E-04 -0.31091402951E-03  0.32216576244E-03  0.00000000000E+00 0.  1.
<mgrwt>
<rscale>  1 0.63053139E+03</rscale>
<asrwt>0</asrwt>
<pdfrwt beam="1">  1        1 0.36142802E+00 0.63053139E+03</pdfrwt>
<pdfrwt beam="2">0</pdfrwt>
<totfact> 0.19871967E+00</totfact>
</mgrwt>
</event>
<event>
 6    1  0.3167183E-003  0.6478850E+03  0.7818608E-02  0.9810756E-01
          1   -1    0    0  502    0  0.00000000000E+00  0.00000000000E+00  0.10729123133E+03  0.10729123133E+03  0.00000000000E+00 0.  1.
         13   -1    0    0    0    0 -0.00000000000E+00 -0.00000000000E+00 -0.10000000000E+04  0.10000000000E+04  0.00000000000E+00 0.  1.
    9000005    2    1    2  501    0  0.19508163666E+00  0.28218680939E+00 -0.89504742767E+03  0.11049275452E+04  0.64788491621E+03 0.  0.
         13    1    3    3    0    0 -0.23931871380E+03  0.18239351207E+03 -0.24286257473E+03  0.38668213073E+03  0.00000000000E+00 0.  1.
          3    1    3    3  501    0  0.23951379544E+03 -0.18211132526E+03 -0.65218485294E+03  0.71824541446E+03  0.00000000000E+00 0.  1.
         21    1    1    2  502  501 -0.19508163666E+00 -0.28218680939E+00  0.23386589962E+01  0.23636861342E+01  0.00000000000E+00 0.  1.
<mgrwt>
<rscale>  1 0.64788501E+03</rscale>
<asrwt>0</asrwt>
<pdfrwt beam="1">  1        1 0.39015075E+00 0.64788501E+03</pdfrwt>
<pdfrwt beam="2">0</pdfrwt>
<totfact> 0.14803784E+00</totfact>
</mgrwt>
</event>
<event>
 6    1  0.3167183E-003  0.6514756E+03  0.7818608E-02  0.9804014E-01
          1   -1    0    0  502    0  0.00000000000E+00  0.00000000000E+00  0.10610516837E+03  0.10610516837E+03  0.00000000000E+00 0.  1.
         13   -1    0    0    0    0 -0.00000000000E+00 -0.00000000000E+00 -0.10000000000E+04  0.10000000000E+04  0.00000000000E+00 0.  1.
    9000005    2    1    2  501    0  0.20330312708E-04 -0.91103353839E-06 -0.89389488450E+03  0.11061051117E+04  0.65147559711E+03 0.  0.
         13    1    3    3    0    0  0.21450269628E+03 -0.17214497281E+03 -0.74326809643E+03  0.79252303534E+03  0.00000000000E+00 0.  1.
          1    1    3    3  501    0 -0.21450267595E+03  0.17214497190E+03 -0.15062678807E+03  0.31358207637E+03  0.00000000000E+00 0.  1.
         21    1    1    2  502  501 -0.20330312727E-04  0.91103354771E-06  0.52876752733E-04  0.56657767140E-04  0.00000000000E+00 0.  1.
<mgrwt>
<rscale>  1 0.65147560E+03</rscale>
<asrwt>0</asrwt>
<pdfrwt beam="1">  1        1 0.38583779E+00 0.65147560E+03</pdfrwt>
<pdfrwt beam="2">0</pdfrwt>
<totfact> 0.15459212E+00</totfact>
</mgrwt>
</event>
<event>
 6    1  0.3167183E-003  0.6399104E+03  0.7818608E-02  0.9825898E-01
          1   -1    0    0  502    0  0.00000000000E+00  0.00000000000E+00  0.10578372289E+03  0.10578372289E+03  0.00000000000E+00 0.  1.
         13   -1    0    0    0    0 -0.00000000000E+00 -0.00000000000E+00 -0.10000000000E+04  0.10000000000E+04  0.00000000000E+00 0.  1.
    9000005    2    1    2  501    0 -0.61647416303E+01 -0.30229982127E+01 -0.89331073572E+03  0.10988582220E+04  0.63987356480E+03 0.  0.
         13    1    3    3    0    0  0.16432239690E+03  0.26950717744E+03 -0.39131745236E+03  0.50275771236E+03  0.00000000000E+00 0.  1.
          1    1    3    3  501    0 -0.17048713853E+03 -0.27253017565E+03 -0.50199328336E+03  0.59610050963E+03  0.00000000000E+00 0.  1.
         21    1    1    2  502  501  0.61647416303E+01  0.30229982127E+01 -0.90554138768E+00  0.69255009037E+01  0.00000000000E+00 0. -1.
<mgrwt>
<rscale>  1 0.63991040E+03</rscale>
<asrwt>0</asrwt>
<pdfrwt beam="1">  1        1 0.38466889E+00 0.63991040E+03</pdfrwt>
<pdfrwt beam="2">0</pdfrwt>
<totfact> 0.15678021E+00</totfact>
</mgrwt>
</event>
<event>
 6    1  0.4240679E-003  0.6598118E+03  0.7818608E-02  0.9788540E-01
          1   -1    0    0  502    0  0.00000000000E+00  0.00000000000E+00  0.10883791686E+03  0.10883791686E+03  0.00000000000E+00 0.  1.
         13   -1    0    0    0    0 -0.00000000000E+00 -0.00000000000E+00 -0.10000000000E+04  0.10000000000E+04  0.00000000000E+00 0.  1.
    9000005    2    1    2  501    0  0.92619971070E-06 -0.31355818919E-06 -0.89116209136E+03  0.11088379086E+04  0.65981181742E+03 0.  0.
         13    1    3    3    0    0  0.46713942342E+02 -0.28136251147E+03 -0.16694192788E+03  0.33047944347E+03  0.00000000000E+00 0.  1.
          1    1    3    3  501    0 -0.46713941416E+02  0.28136251116E+03 -0.72422016348E+03  0.77835846511E+03  0.00000000000E+00 0.  1.
         21    1    1    2  502  501 -0.92619970733E-06  0.31355822801E-06  0.82199348736E-05  0.82778918806E-05  0.00000000000E+00 0. -1.
<mgrwt>
<rscale>  1 0.65981182E+03</rscale>
<asrwt>0</asrwt>
<pdfrwt beam="1">  1        1 0.39577508E+00 0.65981182E+03</pdfrwt>
<pdfrwt beam="2">0</pdfrwt>
<totfact> 0.13945240E+00</totfact>
</mgrwt>
</event>
<event>
 6    1  0.3167183E-003  0.6597204E+03  0.7818608E-02  0.9788709E-01
          1   -1    0    0  502    0  0.00000000000E+00  0.00000000000E+00  0.10881494339E+03  0.10881494339E+03  0.00000000000E+00 0.  1.
         13   -1    0    0    0    0 -0.00000000000E+00 -0.00000000000E+00 -0.10000000000E+04  0.10000000000E+04  0.00000000000E+00 0.  1.
    9000005    2    1    2  501    0  0.11828892075E-03 -0.12590884876E-02 -0.89119217539E+03  0.11088077132E+04  0.65972043417E+03 0.  0.
         13    1    3    3    0    0  0.75983786390E+02 -0.27999800731E+03 -0.18179439604E+03  0.34237643366E+03  0.00000000000E+00 0.  1.
          1    1    3    3  501    0 -0.75983668102E+02  0.27999674822E+03 -0.70939777935E+03  0.76643127949E+03  0.00000000000E+00 0.  1.
         21    1    1    2  502  501 -0.11828892074E-03  0.12590884876E-02  0.71187847410E-02  0.72302415089E-02  0.00000000000E+00 0.  1.
<mgrwt>
<rscale>  1 0.65972043E+03</rscale>
<asrwt>0</asrwt>
<pdfrwt beam="1">  1        1 0.39569154E+00 0.65972043E+03</pdfrwt>
<pdfrwt beam="2">0</pdfrwt>
<totfact> 0.13957417E+00</totfact>
</mgrwt>
</event>
<event>
 6    1  0.3167183E-003  0.6384831E+03  0.7818608E-02  0.9828633E-01
          1   -1    0    0  502    0  0.00000000000E+00  0.00000000000E+00  0.10203459422E+03  0.10203459422E+03  0.00000000000E+00 0.  1.
         13   -1    0    0    0    0 -0.00000000000E+00 -0.00000000000E+00 -0.10000000000E+04  0.10000000000E+04  0.00000000000E+00 0.  1.
    9000005    2    1    2  501    0  0.78116449877E-01 -0.12188136496E+00 -0.89803452298E+03  0.11018741747E+04  0.63848310187E+03 0.  0.
         13    1    3    3    0    0 -0.18507106695E+03  0.25162621072E+03 -0.56212341955E+03  0.64307836890E+03  0.00000000000E+00 0.  1.
          3    1    3    3  501    0  0.18514918340E+03 -0.25174809208E+03 -0.33591110343E+03  0.45879580576E+03  0.00000000000E+00 0.  1.
         21    1    1    2  502  501 -0.78116449877E-01  0.12188136496E+00  0.69117204391E-01  0.16041955869E+00  0.00000000000E+00 0.  1.
<mgrwt>
<rscale>  1 0.63848312E+03</rscale>
<asrwt>0</asrwt>
<pdfrwt beam="1">  1        1 0.37103567E+00 0.63848312E+03</pdfrwt>
<pdfrwt beam="2">0</pdfrwt>
<totfact> 0.18008897E+00</totfact>
</mgrwt>
</event>
<event>
 6    1  0.3167183E-003  0.6580272E+03  0.7818608E-02  0.9791832E-01
          1   -1    0    0  502    0  0.00000000000E+00  0.00000000000E+00  0.10824994735E+03  0.10824994735E+03  0.00000000000E+00 0.  1.
         13   -1    0    0    0    0 -0.00000000000E+00 -0.00000000000E+00 -0.10000000000E+04  0.10000000000E+04  0.00000000000E+00 0.  1.
    9000005    2    1    2  501    0 -0.13045402056E-05 -0.57411417060E-05 -0.89175005096E+03  0.11082499412E+04  0.65802718700E+03 0.  0.
         13    1    3    3    0    0 -0.29996092404E+03 -0.13482235985E+03 -0.46240434186E+03  0.56742523740E+03  0.00000000000E+00 0.  1.
          3    1    3    3  501    0  0.29996092274E+03  0.13482235411E+03 -0.42934570909E+03  0.54082470382E+03  0.00000000000E+00 0.  1.
         21    1    1    2  502  501  0.13045402244E-05  0.57411417097E-05 -0.16979633036E-05  0.61274474872E-05  0.00000000000E+00 0. -1.
<mgrwt>
<rscale>  1 0.65802719E+03</rscale>
<asrwt>0</asrwt>
<pdfrwt beam="1">  1        1 0.39363700E+00 0.65802719E+03</pdfrwt>
<pdfrwt beam="2">0</pdfrwt>
<totfact> 0.14258585E+00</totfact>
</mgrwt>
</event>
<event>
 6    1  0.3167183E-003  0.6481399E+03  0.7818608E-02  0.9810276E-01
          1   -1    0    0  502    0  0.00000000000E+00  0.00000000000E+00  0.10502155538E+03  0.10502155538E+03  0.00000000000E+00 0.  1.
         13   -1    0    0    0    0 -0.00000000000E+00 -0.00000000000E+00 -0.10000000000E+04  0.10000000000E+04  0.00000000000E+00 0.  1.
    9000005    2    1    2  501    0 -0.80960043590E-04 -0.42510545484E-05 -0.89497866151E+03  0.11050213238E+04  0.64813989351E+03 0.  0.
         13    1    3    3    0    0  0.22648236947E+03 -0.13717956751E+03 -0.76603331549E+03  0.81050572969E+03  0.00000000000E+00 0.  1.
          1    1    3    3  501    0 -0.22648245043E+03  0.13717956326E+03 -0.12894534603E+03  0.29451559414E+03  0.00000000000E+00 0.  1.
         21    1    1    2  502  501  0.80960043592E-04  0.42510545398E-05  0.21689358979E-03  0.23155005812E-03  0.00000000000E+00 0. -1.
<mgrwt>
<rscale>  1 0.64813989E+03</rscale>
<asrwt>0</asrwt>
<pdfrwt beam="1">  1        1 0.38189737E+00 0.64813989E+03</pdfrwt>
<pdfrwt beam="2">0</pdfrwt>
<totfact> 0.16101787E+00</totfact>
</mgrwt>
</event>
<event>
 6    1  0.3167183E-003  0.6440559E+03  0.7818608E-02  0.9817997E-01
          1   -1    0    0  502    0  0.00000000000E+00  0.00000000000E+00  0.10477133495E+03  0.10477133495E+03  0.00000000000E+00 0.  1.
         13   -1    0    0    0    0 -0.00000000000E+00 -0.00000000000E+00 -0.10000000000E+04  0.10000000000E+04  0.00000000000E+00 0.  1.
    9000005    2    1    2  501    0  0.11236183107E-01  0.40545543131E-01 -0.89629753825E+03  0.11037016340E+04  0.64405591221E+03 0.  0.
         13    1    3    3    0    0 -0.22703516688E+02 -0.12477668483E+03 -0.95537315475E+03  0.96375439587E+03  0.00000000000E+00 0.  1.
          3    1    3    3  501    0  0.22714752871E+02  0.12481723037E+03  0.59075616498E+02  0.13994723813E+03  0.00000000000E+00 0.  1.
         21    1    1    2  502  501 -0.11236183107E-01 -0.40545543131E-01  0.10688732045E+01  0.10697009490E+01  0.00000000000E+00 0.  1.
<mgrwt>
<rscale>  1 0.64405591E+03</rscale>
<asrwt>0</asrwt>
<pdfrwt beam="1">  1        1 0.38098748E+00 0.64405591E+03</pdfrwt>
<pdfrwt beam="2">0</pdfrwt>
<totfact> 0.16263665E+00</totfact>
</mgrwt>
</event>
<event>
 6    1  0.3167183E-003  0.6401567E+03  0.7818608E-02  0.9825427E-01
          1   -1    0    0  502    0  0.00000000000E+00  0.00000000000E+00  0.10245084202E+03  0.10245084202E+03  0.00000000000E+00 0.  1.
         13   -1    0    0    0    0 -0.00000000000E+00 -0.00000000000E+00 -0.10000000000E+04  0.10000000000E+04  0.00000000000E+00 0.  1.
    9000005    2    1    2  501    0 -0.23442303245E-04  0.50362822179E-05 -0.89754983930E+03  0.11024501603E+04  0.64015673227E+03 0.  0.
         13    1    3    3    0    0 -0.31015421568E+03 -0.69011301781E+02 -0.51529500670E+03  0.60538181440E+03  0.00000000000E+00 0.  1.
          3    1    3    3  501    0  0.31015419224E+03  0.69011306817E+02 -0.38225483260E+03  0.49706834588E+03  0.00000000000E+00 0.  1.
         21    1    1    2  502  501  0.23442303205E-04 -0.50362822226E-05  0.68132134903E-03  0.68174312344E-03  0.00000000000E+00 0.  1.
<mgrwt>
<rscale>  1 0.64015673E+03</rscale>
<asrwt>0</asrwt>
<pdfrwt beam="1">  1        1 0.37254930E+00 0.64015673E+03</pdfrwt>
<pdfrwt beam="2">0</pdfrwt>
<totfact> 0.17729707E+00</totfact>
</mgrwt>
</event>
<event>
 6    1  0.3167183E-003  0.5346275E+03  0.7818608E-02  0.1005116E+00
          1   -1    0    0  502    0  0.00000000000E+00  0.00000000000E+00  0.71693306886E+02  0.71693306886E+02  0.00000000000E+00 0.  1.
         13   -1    0    0    0    0 -0.00000000000E+00 -0.00000000000E+00 -0.10000000000E+04  0.10000000000E+04  0.00000000000E+00 0.  1.
    9000005    2    1    2  501    0  0.65062118146E+00  0.23380927937E+00 -0.92787727997E+03  0.10708794455E+04  0.53462703088E+03 0.  0.
         13    1    3    3    0    0 -0.75466547408E+02  0.22418287086E+03 -0.71337762258E+03  0.75157221327E+03  0.00000000000E+00 0.  1.
          1    1    3    3  501    0  0.76117168589E+02 -0.22394906158E+03 -0.21449965739E+03  0.31930723223E+03  0.00000000000E+00 0.  1.
         21    1    1    2  502  501 -0.65062118146E+00 -0.23380927937E+00 -0.42941314191E+00  0.81386138091E+00  0.00000000000E+00 0.  1.
<mgrwt>
<rscale>  1 0.53462748E+03</rscale>
<asrwt>0</asrwt>
<pdfrwt beam="1">  1        1 0.26070348E+00 0.53462748E+03</pdfrwt>
<pdfrwt beam="2">0</pdfrwt>
<totfact> 0.55168248E+00</totfact>
</mgrwt>
</event>
<event>
 6    1  0.3167183E-003  0.6259033E+03  0.7818608E-02  0.9853076E-01
          1   -1    0    0  502    0  0.00000000000E+00  0.00000000000E+00  0.10696721102E+03  0.10696721102E+03  0.00000000000E+00 0.  1.
         13   -1    0    0    0    0 -0.00000000000E+00 -0.00000000000E+00 -0.10000000000E+04  0.10000000000E+04  0.00000000000E+00 0.  1.
    9000005    2    1    2  501    0 -0.24727640687E+00  0.12940217497E+01 -0.90200847462E+03  0.10978953551E+04  0.62590189866E+03 0.  0.
         13    1    3    3    0    0  0.91124265000E+02  0.22395566840E+03 -0.80131947151E+03  0.83700219146E+03  0.00000000000E+00 0.  1.
          1    1    3    3  501    0 -0.91371541406E+02 -0.22266164665E+03 -0.10068900310E+03  0.26089316360E+03  0.00000000000E+00 0.  1.
         21    1    1    2  502  501  0.24727640687E+00 -0.12940217497E+01  0.89756856350E+01  0.90718559583E+01  0.00000000000E+00 0. -1.
<mgrwt>
<rscale>  1 0.62590329E+03</rscale>
<asrwt>0</asrwt>
<pdfrwt beam="1">  1        1 0.38897250E+00 0.62590329E+03</pdfrwt>
<pdfrwt beam="2">0</pdfrwt>
<totfact> 0.15045468E+00</totfact>
</mgrwt>
</event>
<event>
 6    1  0.3167183E-003  0.6309163E+03  0.7818608E-02  0.9843262E-01
          1   -1    0    0  502    0  0.00000000000E+00  0.00000000000E+00  0.99520058364E+02  0.99520058364E+02  0.00000000000E+00 0.  1.
         13   -1    0    0    0    0 -0.00000000000E+00 -0.00000000000E+00 -0.10000000000E+04  0.10000000000E+04  0.00000000000E+00 0.  1.
    9000005    2    1    2  501    0  0.39998808458E-03  0.85346215187E-04 -0.90048615981E+03  0.10995138268E+04  0.63091626325E+03 0.  0.
         13    1    3    3    0    0  0.22138673122E+03  0.85848153471E+02 -0.88310064645E+02  0.25333901739E+03  0.00000000000E+00 0.  1.
          1    1    3    3  501    0 -0.22138633123E+03 -0.85848068125E+02 -0.81217609516E+03  0.84617480937E+03  0.00000000000E+00 0.  1.
         21    1    1    2  502  501 -0.39998808459E-03 -0.85346215187E-04  0.62181701287E-02  0.62316060686E-02  0.00000000000E+00 0.  1.
<mgrwt>
<rscale>  1 0.63091626E+03</rscale>
<asrwt>0</asrwt>
<pdfrwt beam="1">  1        1 0.36189188E+00 0.63091626E+03</pdfrwt>
<pdfrwt beam="2">0</pdfrwt>
<totfact> 0.19777920E+00</totfact>
</mgrwt>
</event>
<event>
 6    1  0.3167183E-003  0.6484907E+03  0.7818608E-02  0.9809615E-01
          1   -1    0    0  502    0  0.00000000000E+00  0.00000000000E+00  0.10513545958E+03  0.10513545958E+03  0.00000000000E+00 0.  1.
         13   -1    0    0    0    0 -0.00000000000E+00 -0.00000000000E+00 -0.10000000000E+04  0.10000000000E+04  0.00000000000E+00 0.  1.
    9000005    2    1    2  501    0  0.64409789729E-04  0.67852847110E-04 -0.89486493661E+03  0.11051350525E+04  0.64849073199E+03 0.  0.
         13    1    3    3    0    0  0.21099746979E+03 -0.85672827728E+02 -0.84077829654E+03  0.87107284976E+03  0.00000000000E+00 0.  1.
          1    1    3    3  501    0 -0.21099740538E+03  0.85672895581E+02 -0.54086640071E+02  0.23406220273E+03  0.00000000000E+00 0.  1.
         21    1    1    2  502  501 -0.64409789732E-04 -0.67852847113E-04  0.39618373936E-03  0.40708007223E-03  0.00000000000E+00 0.  1.
<mgrwt>
<rscale>  1 0.64849073E+03</rscale>
<asrwt>0</asrwt>
<pdfrwt beam="1">  1        1 0.38231157E+00 0.64849073E+03</pdfrwt>
<pdfrwt beam="2">0</pdfrwt>
<totfact> 0.16033066E+00</totfact>
</mgrwt>
</event>
<event>
 6    1  0.3167183E-003  0.5360594E+03  0.7818608E-02  0.1004773E+00
          1   -1    0    0  502    0  0.00000000000E+00  0.00000000000E+00  0.71860841111E+02  0.71860841111E+02  0.00000000000E+00 0.  1.
         13   -1    0    0    0    0 -0.00000000000E+00 -0.00000000000E+00 -0.10000000000E+04  0.10000000000E+04  0.00000000000E+00 0.  1.
    9000005    2    1    2  501    0  0.85993752562E-02  0.46518683314E-02 -0.92815886019E+03  0.10718388472E+04  0.53605936667E+03 0.  0.
         13    1    3    3    0    0 -0.14954725093E+03 -0.45411543681E+02 -0.28703147974E+02  0.15890393093E+03  0.00000000000E+00 0.  1.
          1    1    3    3  501    0  0.14955585030E+03  0.45416195549E+02 -0.89945571222E+03  0.91293491631E+03  0.00000000000E+00 0.  1.
         21    1    1    2  502  501 -0.85993752562E-02 -0.46518683314E-02  0.19701304165E-01  0.21993874592E-01  0.00000000000E+00 0. -1.
<mgrwt>
<rscale>  1 0.53605937E+03</rscale>
<asrwt>0</asrwt>
<pdfrwt beam="1">  1        1 0.26131270E+00 0.53605937E+03</pdfrwt>
<pdfrwt beam="2">0</pdfrwt>
<totfact> 0.54820626E+00</totfact>
</mgrwt>
</event>
<event>
 6    1  0.3167183E-003  0.6512515E+03  0.7818608E-02  0.9804434E-01
          1   -1    0    0  502    0  0.00000000000E+00  0.00000000000E+00  0.10628498767E+03  0.10628498767E+03  0.00000000000E+00 0.  1.
         13   -1    0    0    0    0 -0.00000000000E+00 -0.00000000000E+00 -0.10000000000E+04  0.10000000000E+04  0.00000000000E+00 0.  1.
    9000005    2    1    2  501    0  0.99354969990E-01  0.17615424072E+00 -0.89392235706E+03  0.11059953438E+04  0.65125147155E+03 0.  0.
         13    1    3    3    0    0 -0.10039273209E+03  0.34156308732E+02 -0.96979341511E+03  0.97557399621E+03  0.00000000000E+00 0.  1.
          1    1    3    3  501    0  0.10049208706E+03 -0.33980154491E+02  0.75871058058E+02  0.13042134761E+03  0.00000000000E+00 0.  1.
         21    1    1    2  502  501 -0.99354969990E-01 -0.17615424072E+00  0.20734472786E+00  0.28964385503E+00  0.00000000000E+00 0. -1.
<mgrwt>
<rscale>  1 0.65125150E+03</rscale>
<asrwt>0</asrwt>
<pdfrwt beam="1">  1        1 0.38649168E+00 0.65125150E+03</pdfrwt>
<pdfrwt beam="2">0</pdfrwt>
<totfact> 0.15357174E+00</totfact>
</mgrwt>
</event>
<event>
 6    1  0.3167183E-003  0.6507474E+03  0.7818608E-02  0.9805378E-01
          1   -1    0    0  502    0  0.00000000000E+00  0.00000000000E+00  0.10715301125E+03  0.10715301125E+03  0.00000000000E+00 0.  1.
         13   -1    0    0    0    0 -0.00000000000E+00 -0.00000000000E+00 -0.10000000000E+04  0.10000000000E+04  0.00000000000E+00 0.  1.
    9000005    2    1    2  501    0  0.29229712915E+00 -0.26943592823E+00 -0.89409785646E+03  0.11058404933E+04  0.65074731015E+03 0.  0.
         13    1    3    3    0    0 -0.23339127057E+03  0.21049535418E+03 -0.58858867489E+03  0.66724538778E+03  0.00000000000E+00 0.  1.
          3    1    3    3  501    0  0.23368356770E+03 -0.21076479011E+03 -0.30550918157E+03  0.43859510552E+03  0.00000000000E+00 0.  1.
         21    1    1    2  502  501 -0.29229712915E+00  0.26943592823E+00  0.12508677082E+01  0.13125179445E+01  0.00000000000E+00 0. -1.
<mgrwt>
<rscale>  1 0.65074743E+03</rscale>
<asrwt>0</asrwt>
<pdfrwt beam="1">  1        1 0.38964814E+00 0.65074743E+03</pdfrwt>
<pdfrwt beam="2">0</pdfrwt>
<totfact> 0.14871989E+00</totfact>
</mgrwt>
</event>
<event>
 6    1  0.3167183E-003  0.6513342E+03  0.7818608E-02  0.9804279E-01
          1   -1    0    0  502    0  0.00000000000E+00  0.00000000000E+00  0.10631971034E+03  0.10631971034E+03  0.00000000000E+00 0.  1.
         13   -1    0    0    0    0 -0.00000000000E+00 -0.00000000000E+00 -0.10000000000E+04  0.10000000000E+04  0.00000000000E+00 0.  1.
    9000005    2    1    2  501    0  0.18815804101E-02  0.38632355574E-02 -0.89394092605E+03  0.11060590385E+04  0.65133418260E+03 0.  0.
         13    1    3    3    0    0 -0.27396640090E+03  0.38210993231E+02 -0.73883814621E+03  0.78892298428E+03  0.00000000000E+00 0.  1.
          1    1    3    3  501    0  0.27396828249E+03 -0.38207129996E+02 -0.15510277984E+03  0.31713605425E+03  0.00000000000E+00 0.  1.
         21    1    1    2  502  501 -0.18815804101E-02 -0.38632355574E-02  0.26063638758E+00  0.26067180796E+00  0.00000000000E+00 0.  1.
<mgrwt>
<rscale>  1 0.65133418E+03</rscale>
<asrwt>0</asrwt>
<pdfrwt beam="1">  1        1 0.38661794E+00 0.65133418E+03</pdfrwt>
<pdfrwt beam="2">0</pdfrwt>
<totfact> 0.15337188E+00</totfact>
</mgrwt>
</event>
<event>
 6    1  0.3167183E-003  0.6443943E+03  0.7818608E-02  0.9817355E-01
          1   -1    0    0  502    0  0.00000000000E+00  0.00000000000E+00  0.10382003712E+03  0.10382003712E+03  0.00000000000E+00 0.  1.
         13   -1    0    0    0    0 -0.00000000000E+00 -0.00000000000E+00 -0.10000000000E+04  0.10000000000E+04  0.00000000000E+00 0.  1.
    9000005    2    1    2  501    0  0.27473742522E-02  0.52128995362E-03 -0.89618875263E+03  0.11038108133E+04  0.64439431338E+03 0.  0.
         13    1    3    3    0    0 -0.30917695287E+03 -0.87011033486E+02 -0.40446096032E+03  0.51647843765E+03  0.00000000000E+00 0.  1.
          1    1    3    3  501    0  0.30917970024E+03  0.87011554776E+02 -0.49172779232E+03  0.58733237561E+03  0.00000000000E+00 0.  1.
         21    1    1    2  502  501 -0.27473742522E-02 -0.52128995363E-03  0.87897574090E-02  0.92238627379E-02  0.00000000000E+00 0.  1.
<mgrwt>
<rscale>  1 0.64439431E+03</rscale>
<asrwt>0</asrwt>
<pdfrwt beam="1">  1        1 0.37752820E+00 0.64439431E+03</pdfrwt>
<pdfrwt beam="2">0</pdfrwt>
<totfact> 0.16844115E+00</totfact>
</mgrwt>
</event>
<event>
 6    1  0.3167183E-003  0.6487905E+03  0.7818608E-02  0.9809051E-01
          1   -1    0    0  502    0  0.00000000000E+00  0.00000000000E+00  0.10620120310E+03  0.10620120310E+03  0.00000000000E+00 0.  1.
         13   -1    0    0    0    0 -0.00000000000E+00 -0.00000000000E+00 -0.10000000000E+04  0.10000000000E+04  0.00000000000E+00 0.  1.
    9000005    2    1    2  501    0  0.14039745248E-01 -0.18487469808E-02 -0.89476766132E+03  0.11052322352E+04  0.64879050991E+03 0.  0.
         13    1    3    3    0    0 -0.68492455234E+02 -0.29658418378E+03 -0.63843998322E+03  0.70728990285E+03  0.00000000000E+00 0.  1.
          1    1    3    3  501    0  0.68506494979E+02  0.29658233504E+03 -0.25632767810E+03  0.39794233235E+03  0.00000000000E+00 0.  1.
         21    1    1    2  502  501 -0.14039745248E-01  0.18487469808E-02  0.96886442577E+00  0.96896790857E+00  0.00000000000E+00 0. -1.
<mgrwt>
<rscale>  1 0.64879051E+03</rscale>
<asrwt>0</asrwt>
<pdfrwt beam="1">  1        1 0.38618701E+00 0.64879051E+03</pdfrwt>
<pdfrwt beam="2">0</pdfrwt>
<totfact> 0.15411957E+00</totfact>
</mgrwt>
</event>
<event>
 6    1  0.3167183E-003  0.6502211E+03  0.7818608E-02  0.9806364E-01
          1   -1    0    0  502    0  0.00000000000E+00  0.00000000000E+00  0.10573684796E+03  0.10573684796E+03  0.00000000000E+00 0.  1.
         13   -1    0    0    0    0 -0.00000000000E+00 -0.00000000000E+00 -0.10000000000E+04  0.10000000000E+04  0.00000000000E+00 0.  1.
    9000005    2    1    2  501    0 -0.17705531698E-01  0.88062856870E-01 -0.89423683923E+03  0.11056432482E+04  0.65022108515E+03 0.  0.
         13    1    3    3    0    0 -0.12405400667E+03  0.13655265977E+03  0.80889741499E+01  0.18466579804E+03  0.00000000000E+00 0.  1.
          1    1    3    3  501    0  0.12403630114E+03 -0.13646459691E+03 -0.90232581338E+03  0.92097745016E+03  0.00000000000E+00 0.  1.
         21    1    1    2  502  501  0.17705531698E-01 -0.88062856870E-01 -0.26312806230E-01  0.93599767011E-01  0.00000000000E+00 0.  1.
<mgrwt>
<rscale>  1 0.65022109E+03</rscale>
<asrwt>0</asrwt>
<pdfrwt beam="1">  1        1 0.38449844E+00 0.65022109E+03</pdfrwt>
<pdfrwt beam="2">0</pdfrwt>
<totfact> 0.15675187E+00</totfact>
</mgrwt>
</event>
<event>
 6    1  0.3167183E-003  0.4574026E+03  0.7818608E-02  0.1025537E+00
          1   -1    0    0  502    0  0.00000000000E+00  0.00000000000E+00  0.52304386853E+02  0.52304386853E+02  0.00000000000E+00 0.  1.
         13   -1    0    0    0    0 -0.00000000000E+00 -0.00000000000E+00 -0.10000000000E+04  0.10000000000E+04  0.00000000000E+00 0.  1.
    9000005    2    1    2  501    0  0.28288613692E-05 -0.13669809565E-04 -0.94769571026E+03  0.10523042887E+04  0.45740262009E+03 0.  0.
         13    1    3    3    0    0 -0.20535861539E+03 -0.40782853443E+01 -0.70523342208E+03  0.73453588949E+03  0.00000000000E+00 0.  1.
          3    1    3    3  501    0  0.20535861822E+03  0.40782716745E+01 -0.24246228818E+03  0.31776839926E+03  0.00000000000E+00 0.  1.
         21    1    1    2  502  501 -0.28288613682E-05  0.13669809565E-04  0.97112545768E-04  0.98110716519E-04  0.00000000000E+00 0.  1.
<mgrwt>
<rscale>  1 0.45740262E+03</rscale>
<asrwt>0</asrwt>
<pdfrwt beam="1">  1        1 0.19019817E+00 0.45740262E+03</pdfrwt>
<pdfrwt beam="2">0</pdfrwt>
<totfact> 0.11471663E+01</totfact>
</mgrwt>
</event>
<event>
 6    1  0.3167183E-003  0.6560165E+03  0.7818608E-02  0.9795555E-01
          1   -1    0    0  502    0  0.00000000000E+00  0.00000000000E+00  0.10760162525E+03  0.10760162525E+03  0.00000000000E+00 0.  1.
         13   -1    0    0    0    0 -0.00000000000E+00 -0.00000000000E+00 -0.10000000000E+04  0.10000000000E+04  0.00000000000E+00 0.  1.
    9000005    2    1    2  501    0  0.26847264987E-02 -0.13777572501E-03 -0.89241041580E+03  0.11075892878E+04  0.65601652428E+03 0.  0.
         13    1    3    3    0    0  0.29373516002E+03 -0.10373022700E+03 -0.61962261709E+03  0.69352180343E+03  0.00000000000E+00 0.  1.
          3    1    3    3  501    0 -0.29373247530E+03  0.10373008922E+03 -0.27278779871E+03  0.41406748433E+03  0.00000000000E+00 0.  1.
         21    1    1    2  502  501 -0.26847264987E-02  0.13777572501E-03  0.12041055379E-01  0.12337493795E-01  0.00000000000E+00 0.  1.
<mgrwt>
<rscale>  1 0.65601652E+03</rscale>
<asrwt>0</asrwt>
<pdfrwt beam="1">  1        1 0.39127946E+00 0.65601652E+03</pdfrwt>
<pdfrwt beam="2">0</pdfrwt>
<totfact> 0.14611933E+00</totfact>
</mgrwt>
</event>
<event>
 6    1  0.3167183E-003  0.6569508E+03  0.7818608E-02  0.9793823E-01
          1   -1    0    0  502    0  0.00000000000E+00  0.00000000000E+00  0.10789649147E+03  0.10789649147E+03  0.00000000000E+00 0.  1.
         13   -1    0    0    0    0 -0.00000000000E+00 -0.00000000000E+00 -0.10000000000E+04  0.10000000000E+04  0.00000000000E+00 0.  1.
    9000005    2    1    2  501    0  0.20779799752E-03  0.33397989642E-03 -0.89210381096E+03  0.11078959953E+04  0.65695077964E+03 0.  0.
         13    1    3    3    0    0  0.19796393216E+02 -0.30734759131E+03 -0.63864034235E+03  0.70902462999E+03  0.00000000000E+00 0.  1.
          3    1    3    3  501    0 -0.19796185418E+02  0.30734792529E+03 -0.25346346861E+03  0.39887136530E+03  0.00000000000E+00 0.  1.
         21    1    1    2  502  501 -0.20779799752E-03 -0.33397989641E-03  0.30242526889E-03  0.49616894527E-03  0.00000000000E+00 0. -1.
<mgrwt>
<rscale>  1 0.65695078E+03</rscale>
<asrwt>0</asrwt>
<pdfrwt beam="1">  1        1 0.39235171E+00 0.65695078E+03</pdfrwt>
<pdfrwt beam="2">0</pdfrwt>
<totfact> 0.14450156E+00</totfact>
</mgrwt>
</event>
<event>
 6    1  0.3167183E-003  0.6582954E+03  0.7818608E-02  0.9791337E-01
          1   -1    0    0  502    0  0.00000000000E+00  0.00000000000E+00  0.10842165291E+03  0.10842165291E+03  0.00000000000E+00 0.  1.
         13   -1    0    0    0    0 -0.00000000000E+00 -0.00000000000E+00 -0.10000000000E+04  0.10000000000E+04  0.00000000000E+00 0.  1.
    9000005    2    1    2  501    0  0.45301329783E-02  0.34810197055E-02 -0.89166167371E+03  0.11083381307E+04  0.65829542872E+03 0.  0.
         13    1    3    3    0    0  0.32571858492E+03  0.13599524623E+02 -0.36937709879E+03  0.49266315546E+03  0.00000000000E+00 0.  1.
          3    1    3    3  501    0 -0.32571405479E+03 -0.13596043604E+02 -0.52228457492E+03  0.61567497520E+03  0.00000000000E+00 0.  1.
         21    1    1    2  502  501 -0.45301329783E-02 -0.34810197055E-02  0.83326624151E-01  0.83522247907E-01  0.00000000000E+00 0. -1.
<mgrwt>
<rscale>  1 0.65829543E+03</rscale>
<asrwt>0</asrwt>
<pdfrwt beam="1">  1        1 0.39426139E+00 0.65829543E+03</pdfrwt>
<pdfrwt beam="2">0</pdfrwt>
<totfact> 0.14167063E+00</totfact>
</mgrwt>
</event>
<event>
 6    1  0.3167183E-003  0.6692647E+03  0.7818608E-02  0.9771287E-01
          1   -1    0    0  502    0  0.00000000000E+00  0.00000000000E+00  0.11198506773E+03  0.11198506773E+03  0.00000000000E+00 0.  1.
         13   -1    0    0    0    0 -0.00000000000E+00 -0.00000000000E+00 -0.10000000000E+04  0.10000000000E+04  0.00000000000E+00 0.  1.
    9000005    2    1    2  501    0 -0.65571613936E-03  0.93775721088E-03 -0.88802112185E+03  0.11119787733E+04  0.66926473040E+03 0.  0.
         13    1    3    3    0    0 -0.31701418951E+03 -0.57376280992E+02 -0.59436397130E+03  0.67606106555E+03  0.00000000000E+00 0.  1.
          3    1    3    3  501    0  0.31701353379E+03  0.57377218750E+02 -0.29365715055E+03  0.43591770772E+03  0.00000000000E+00 0.  1.
         21    1    1    2  502  501  0.65571613941E-03 -0.93775721089E-03  0.61895798083E-02  0.62944618869E-02  0.00000000000E+00 0. -1.
<mgrwt>
<rscale>  1 0.66926473E+03</rscale>
<asrwt>0</asrwt>
<pdfrwt beam="1">  1        1 0.40721929E+00 0.66926473E+03</pdfrwt>
<pdfrwt beam="2">0</pdfrwt>
<totfact> 0.12375938E+00</totfact>
</mgrwt>
</event>
<event>
 6    1  0.3167183E-003  0.6546662E+03  0.7818608E-02  0.9798062E-01
          1   -1    0    0  502    0  0.00000000000E+00  0.00000000000E+00  0.10782790483E+03  0.10782790483E+03  0.00000000000E+00 0.  1.
         13   -1    0    0    0    0 -0.00000000000E+00 -0.00000000000E+00 -0.10000000000E+04  0.10000000000E+04  0.00000000000E+00 0.  1.
    9000005    2    1    2  501    0  0.23213347258E-01 -0.40792948949E-02 -0.89285280066E+03  0.11071467914E+04  0.65466624595E+03 0.  0.
         13    1    3    3    0    0 -0.31672119467E+03  0.20984126849E+02 -0.31125660477E+03  0.44455969537E+03  0.00000000000E+00 0.  1.
          3    1    3    3  501    0  0.31674440801E+03 -0.20988206144E+02 -0.58159619588E+03  0.66258709606E+03  0.00000000000E+00 0.  1.
         21    1    1    2  502  501 -0.23213347258E-01  0.40792948949E-02  0.68070548541E+00  0.68111339585E+00  0.00000000000E+00 0.  1.
<mgrwt>
<rscale>  1 0.65466625E+03</rscale>
<asrwt>0</asrwt>
<pdfrwt beam="1">  1        1 0.39210230E+00 0.65466625E+03</pdfrwt>
<pdfrwt beam="2">0</pdfrwt>
<totfact> 0.14493204E+00</totfact>
</mgrwt>
</event>
<event>
 6    1  0.3167183E-003  0.6372857E+03  0.7818608E-02  0.9830933E-01
          1   -1    0    0  502    0  0.00000000000E+00  0.00000000000E+00  0.10168363516E+03  0.10168363516E+03  0.00000000000E+00 0.  1.
         13   -1    0    0    0    0 -0.00000000000E+00 -0.00000000000E+00 -0.10000000000E+04  0.10000000000E+04  0.00000000000E+00 0.  1.
    9000005    2    1    2  501    0  0.95077864638E-02 -0.17148384196E-01 -0.89846601899E+03  0.11015327020E+04  0.63728573327E+03 0.  0.
         13    1    3    3    0    0 -0.17328691027E+03  0.12142172290E+03 -0.86101550314E+03  0.88663368124E+03  0.00000000000E+00 0.  1.
          1    1    3    3  501    0  0.17329641805E+03 -0.12143887129E+03 -0.37450515849E+02  0.21489902072E+03  0.00000000000E+00 0.  1.
         21    1    1    2  502  501 -0.95077864638E-02  0.17148384196E-01  0.14965415260E+00  0.15093319871E+00  0.00000000000E+00 0.  1.
<mgrwt>
<rscale>  1 0.63728573E+03</rscale>
<asrwt>0</asrwt>
<pdfrwt beam="1">  1        1 0.36975945E+00 0.63728573E+03</pdfrwt>
<pdfrwt beam="2">0</pdfrwt>
<totfact> 0.18246844E+00</totfact>
</mgrwt>
</event>
<event>
 6    1  0.3167183E-003  0.6457587E+03  0.7818608E-02  0.9814770E-01
          1   -1    0    0  502    0  0.00000000000E+00  0.00000000000E+00  0.10429840531E+03  0.10429840531E+03  0.00000000000E+00 0.  1.
         13   -1    0    0    0    0 -0.00000000000E+00 -0.00000000000E+00 -0.10000000000E+04  0.10000000000E+04  0.00000000000E+00 0.  1.
    9000005    2    1    2  501    0 -0.23657536057E-02 -0.30128445501E-01 -0.89574352648E+03  0.11042467178E+04  0.64575873799E+03 0.  0.
         13    1    3    3    0    0 -0.34224651457E+02  0.23682056156E+03 -0.77182146350E+02  0.25142074071E+03  0.00000000000E+00 0.  1.
          1    1    3    3  501    0  0.34222285704E+02 -0.23685069001E+03 -0.81856138013E+03  0.85282597712E+03  0.00000000000E+00 0.  1.
         21    1    1    2  502  501  0.23657536057E-02  0.30128445501E-01  0.41931789696E-01  0.51687474358E-01  0.00000000000E+00 0. -1.
<mgrwt>
<rscale>  1 0.64575874E+03</rscale>
<asrwt>0</asrwt>
<pdfrwt beam="1">  1        1 0.37926773E+00 0.64575874E+03</pdfrwt>
<pdfrwt beam="2">0</pdfrwt>
<totfact> 0.16545130E+00</totfact>
</mgrwt>
</event>
<event>
 6    1  0.3167183E-003  0.6046296E+03  0.7818608E-02  0.9895847E-01
          1   -1    0    0  502    0  0.00000000000E+00  0.00000000000E+00  0.91397941403E+02  0.91397941403E+02  0.00000000000E+00 0.  1.
         13   -1    0    0    0    0 -0.00000000000E+00 -0.00000000000E+00 -0.10000000000E+04  0.10000000000E+04  0.00000000000E+00 0.  1.
    9000005    2    1    2  501    0 -0.21621979312E-03  0.72522100510E-04 -0.90860575428E+03  0.10913942387E+04  0.60462961187E+03 0.  0.
         13    1    3    3    0    0  0.22409160213E+03 -0.14523937502E+03 -0.19850135869E+03  0.33273760173E+03  0.00000000000E+00 0.  1.
          3    1    3    3  501    0 -0.22409181835E+03  0.14523944754E+03 -0.71010439559E+03  0.75865663696E+03  0.00000000000E+00 0.  1.
         21    1    1    2  502  501  0.21621979313E-03 -0.72522100508E-04  0.36956802002E-02  0.37027101690E-02  0.00000000000E+00 0.  1.
<mgrwt>
<rscale>  1 0.60462961E+03</rscale>
<asrwt>0</asrwt>
<pdfrwt beam="1">  1        1 0.33235685E+00 0.60462961E+03</pdfrwt>
<pdfrwt beam="2">0</pdfrwt>
<totfact> 0.26718391E+00</totfact>
</mgrwt>
</event>
<event>
 6    1  0.3167183E-003  0.6467483E+03  0.7818608E-02  0.9812900E-01
          1   -1    0    0  502    0  0.00000000000E+00  0.00000000000E+00  0.10466531248E+03  0.10466531248E+03  0.00000000000E+00 0.  1.
         13   -1    0    0    0    0 -0.00000000000E+00 -0.00000000000E+00 -0.10000000000E+04  0.10000000000E+04  0.00000000000E+00 0.  1.
    9000005    2    1    2  501    0  0.57315170640E-02 -0.49946761783E-02 -0.89542898625E+03  0.11045707078E+04  0.64674831197E+03 0.  0.
         13    1    3    3    0    0  0.12446363461E+03 -0.17000268500E+03 -0.86669020930E+03  0.89193274867E+03  0.00000000000E+00 0.  1.
          1    1    3    3  501    0 -0.12445790310E+03  0.16999769032E+03 -0.28738776948E+02  0.21263795912E+03  0.00000000000E+00 0.  1.
         21    1    1    2  502  501 -0.57315170640E-02  0.49946761783E-02  0.94298733822E-01  0.94604694802E-01  0.00000000000E+00 0.  1.
<mgrwt>
<rscale>  1 0.64674831E+03</rscale>
<asrwt>0</asrwt>
<pdfrwt beam="1">  1        1 0.38060194E+00 0.64674831E+03</pdfrwt>
<pdfrwt beam="2">0</pdfrwt>
<totfact> 0.16319413E+00</totfact>
</mgrwt>
</event>
<event>
 6    1  0.3167183E-003  0.6486219E+03  0.7818608E-02  0.9809369E-01
          1   -1    0    0  502    0  0.00000000000E+00  0.00000000000E+00  0.10517866583E+03  0.10517866583E+03  0.00000000000E+00 0.  1.
         13   -1    0    0    0    0 -0.00000000000E+00 -0.00000000000E+00 -0.10000000000E+04  0.10000000000E+04  0.00000000000E+00 0.  1.
    9000005    2    1    2  501    0  0.26031559450E-03  0.12016306172E-03 -0.89482238383E+03  0.11051775777E+04  0.64862190811E+03 0.  0.
         13    1    3    3    0    0 -0.67721867189E+02 -0.15025119135E+03  0.28506716716E+02  0.16725520828E+03  0.00000000000E+00 0.  1.
          1    1    3    3  501    0  0.67722127505E+02  0.15025131152E+03 -0.92332910055E+03  0.93792236943E+03  0.00000000000E+00 0.  1.
         21    1    1    2  502  501 -0.26031559451E-03 -0.12016306173E-03  0.10496632338E-02  0.10881159288E-02  0.00000000000E+00 0.  1.
<mgrwt>
<rscale>  1 0.64862191E+03</rscale>
<asrwt>0</asrwt>
<pdfrwt beam="1">  1        1 0.38246868E+00 0.64862191E+03</pdfrwt>
<pdfrwt beam="2">0</pdfrwt>
<totfact> 0.16007078E+00</totfact>
</mgrwt>
</event>
<event>
 6    1  0.5007018E-003  0.6538273E+03  0.7818608E-02  0.9799624E-01
          1   -1    0    0  502    0  0.00000000000E+00  0.00000000000E+00  0.10687256013E+03  0.10687256013E+03  0.00000000000E+00 0.  1.
         13   -1    0    0    0    0 -0.00000000000E+00 -0.00000000000E+00 -0.10000000000E+04  0.10000000000E+04  0.00000000000E+00 0.  1.
    9000005    2    1    2  501    0  0.43809973818E-05 -0.49287577895E-04 -0.89312743256E+03  0.11068725101E+04  0.65382730355E+03 0.  0.
         13    1    3    3    0    0  0.17609858313E+03 -0.14818052194E+03 -0.83961257338E+03  0.87058454583E+03  0.00000000000E+00 0.  1.
          3    1    3    3  501    0 -0.17609857875E+03  0.14818047265E+03 -0.53514859174E+02  0.23628796428E+03  0.00000000000E+00 0.  1.
         21    1    1    2  502  501 -0.43809973828E-05  0.49287577912E-04 -0.73080944170E-05  0.50018663702E-04  0.00000000000E+00 0. -1.
<mgrwt>
<rscale>  1 0.65382730E+03</rscale>
<asrwt>0</asrwt>
<pdfrwt beam="1">  1        1 0.38862831E+00 0.65382730E+03</pdfrwt>
<pdfrwt beam="2">0</pdfrwt>
<totfact> 0.15018999E+00</totfact>
</mgrwt>
</event>
<event>
 6    1  0.3677635E-003  0.5663847E+03  0.7818608E-02  0.9977711E-01
          1   -1    0    0  502    0  0.00000000000E+00  0.00000000000E+00  0.80198044421E+02  0.80198044421E+02  0.00000000000E+00 0.  1.
         13   -1    0    0    0    0 -0.00000000000E+00 -0.00000000000E+00 -0.10000000000E+04  0.10000000000E+04  0.00000000000E+00 0.  1.
    9000005    2    1    2  501    0  0.13804351391E-03 -0.14787915981E-03 -0.91980199074E+03  0.10801978391E+04  0.56638473620E+03 0.  0.
         13    1    3    3    0    0  0.61263569549E+02  0.99933584180E+02 -0.95156143608E+03  0.95875393759E+03  0.00000000000E+00 0.  1.
          1    1    3    3  501    0 -0.61263431506E+02 -0.99933732059E+02  0.31759445344E+02  0.12144390150E+03  0.00000000000E+00 0.  1.
         21    1    1    2  502  501 -0.13804351390E-03  0.14787915982E-03  0.35161621102E-04  0.20533045862E-03  0.00000000000E+00 0. -1.
<mgrwt>
<rscale>  1 0.56638474E+03</rscale>
<asrwt>0</asrwt>
<pdfrwt beam="1">  1        1 0.29162987E+00 0.56638474E+03</pdfrwt>
<pdfrwt beam="2">0</pdfrwt>
<totfact> 0.40335832E+00</totfact>
</mgrwt>
</event>
<event>
 6    1  0.3167183E-003  0.6495224E+03  0.7818608E-02  0.9807676E-01
          1   -1    0    0  502    0  0.00000000000E+00  0.00000000000E+00  0.10693671246E+03  0.10693671246E+03  0.00000000000E+00 0.  1.
         13   -1    0    0    0    0 -0.00000000000E+00 -0.00000000000E+00 -0.10000000000E+04  0.10000000000E+04  0.00000000000E+00 0.  1.
    9000005    2    1    2  501    0 -0.58475727387E+00 -0.97270282648E-01 -0.89446365263E+03  0.11054160465E+04  0.64952217713E+03 0.  0.
         13    1    3    3    0    0  0.22935400956E+03 -0.22872203801E+03 -0.48272609309E+03  0.58132737190E+03  0.00000000000E+00 0.  1.
          1    1    3    3  501    0 -0.22993876683E+03  0.22862476772E+03 -0.41173755954E+03  0.52408867460E+03  0.00000000000E+00 0.  1.
         21    1    1    2  502  501  0.58475727387E+00  0.97270282648E-01  0.14003650854E+01  0.15206659560E+01  0.00000000000E+00 0. -1.
<mgrwt>
<rscale>  1 0.64952245E+03</rscale>
<asrwt>0</asrwt>
<pdfrwt beam="1">  1        1 0.38886159E+00 0.64952245E+03</pdfrwt>
<pdfrwt beam="2">0</pdfrwt>
<totfact> 0.14995275E+00</totfact>
</mgrwt>
</event>
<event>
 6    1  0.3167183E-003  0.6472850E+03  0.7818608E-02  0.9811887E-01
          1   -1    0    0  502    0  0.00000000000E+00  0.00000000000E+00  0.10594735422E+03  0.10594735422E+03  0.00000000000E+00 0.  1.
         13   -1    0    0    0    0 -0.00000000000E+00 -0.00000000000E+00 -0.10000000000E+04  0.10000000000E+04  0.00000000000E+00 0.  1.
    9000005    2    1    2  501    0 -0.69148446565E-01 -0.64539127214E-01 -0.89525348813E+03  0.11047427924E+04  0.64728496075E+03 0.  0.
         13    1    3    3    0    0 -0.11549630084E+02 -0.24727296731E+03 -0.91760988130E+02  0.26400263874E+03  0.00000000000E+00 0.  1.
          1    1    3    3  501    0  0.11480481637E+02  0.24720842819E+03 -0.80349250000E+03  0.84074015367E+03  0.00000000000E+00 0.  1.
         21    1    1    2  502  501  0.69148446565E-01  0.64539127214E-01  0.12008423553E+01  0.12045618162E+01  0.00000000000E+00 0. -1.
<mgrwt>
<rscale>  1 0.64728497E+03</rscale>
<asrwt>0</asrwt>
<pdfrwt beam="1">  1        1 0.38526392E+00 0.64728497E+03</pdfrwt>
<pdfrwt beam="2">0</pdfrwt>
<totfact> 0.15561920E+00</totfact>
</mgrwt>
</event>
<event>
 6    1  0.3167183E-003  0.6437803E+03  0.7818608E-02  0.9818520E-01
          1   -1    0    0  502    0  0.00000000000E+00  0.00000000000E+00  0.10361329036E+03  0.10361329036E+03  0.00000000000E+00 0.  1.
         13   -1    0    0    0    0 -0.00000000000E+00 -0.00000000000E+00 -0.10000000000E+04  0.10000000000E+04  0.00000000000E+00 0.  1.
    9000005    2    1    2  501    0  0.28115055528E-05  0.74294906938E-06 -0.89638672008E+03  0.11036132795E+04  0.64378033428E+03 0.  0.
         13    1    3    3    0    0 -0.83679066150E+02 -0.72985016331E+02  0.69743966741E+02  0.13112291797E+03  0.00000000000E+00 0.  1.
          1    1    3    3  501    0  0.83679068961E+02  0.72985017074E+02 -0.96613068682E+03  0.97249036155E+03  0.00000000000E+00 0.  1.
         21    1    1    2  502  501 -0.28115055637E-05 -0.74294906586E-06  0.10442383007E-04  0.10839737069E-04  0.00000000000E+00 0.  1.
<mgrwt>
<rscale>  1 0.64378033E+03</rscale>
<asrwt>0</asrwt>
<pdfrwt beam="1">  1        1 0.37677640E+00 0.64378033E+03</pdfrwt>
<pdfrwt beam="2">0</pdfrwt>
<totfact> 0.16974997E+00</totfact>
</mgrwt>
</event>
<event>
 6    1  0.3167183E-003  0.6545980E+03  0.7818608E-02  0.9798189E-01
          1   -1    0    0  502    0  0.00000000000E+00  0.00000000000E+00  0.11189584894E+03  0.11189584894E+03  0.00000000000E+00 0.  1.
         13   -1    0    0    0    0 -0.00000000000E+00 -0.00000000000E+00 -0.10000000000E+04  0.10000000000E+04  0.00000000000E+00 0.  1.
    9000005    2    1    2  501    0 -0.36140512142E+00 -0.61193059139E+00 -0.89284603162E+03  0.11071010076E+04  0.65459766245E+03 0.  0.
         13    1    3    3    0    0  0.22695030693E+03  0.18060649302E+02 -0.84358204797E+03  0.87376387000E+03  0.00000000000E+00 0.  1.
          3    1    3    3  501    0 -0.22731171205E+03 -0.18672579893E+02 -0.49263983649E+02  0.23333713755E+03  0.00000000000E+00 0.  1.
         21    1    1    2  502  501  0.36140512142E+00  0.61193059139E+00  0.47418805511E+01  0.47948413813E+01  0.00000000000E+00 0.  1.
<mgrwt>
<rscale>  1 0.65459805E+03</rscale>
<asrwt>0</asrwt>
<pdfrwt beam="1">  1        1 0.40689485E+00 0.65459805E+03</pdfrwt>
<pdfrwt beam="2">0</pdfrwt>
<totfact> 0.12452025E+00</totfact>
</mgrwt>
</event>
<event>
 6    1  0.3167183E-003  0.6602345E+03  0.7818608E-02  0.9787762E-01
          1   -1    0    0  502    0  0.00000000000E+00  0.00000000000E+00  0.10897781375E+03  0.10897781375E+03  0.00000000000E+00 0.  1.
         13   -1    0    0    0    0 -0.00000000000E+00 -0.00000000000E+00 -0.10000000000E+04  0.10000000000E+04  0.00000000000E+00 0.  1.
    9000005    2    1    2  501    0  0.10252206544E-03 -0.21504826520E-04 -0.89102257860E+03  0.11089774077E+04  0.66023454553E+03 0.  0.
         13    1    3    3    0    0  0.68203428840E+01 -0.32133165092E+03 -0.31895636601E+03  0.45280648226E+03  0.00000000000E+00 0.  1.
          1    1    3    3  501    0 -0.68202403619E+01  0.32133162942E+03 -0.57206621259E+03  0.65617092539E+03  0.00000000000E+00 0.  1.
         21    1    1    2  502  501 -0.10252206544E-03  0.21504826530E-04  0.39235310858E-03  0.40609628572E-03  0.00000000000E+00 0.  1.
<mgrwt>
<rscale>  1 0.66023455E+03</rscale>
<asrwt>0</asrwt>
<pdfrwt beam="1">  1        1 0.39628379E+00 0.66023455E+03</pdfrwt>
<pdfrwt beam="2">0</pdfrwt>
<totfact> 0.13871656E+00</totfact>
</mgrwt>
</event>
<event>
 6    1  0.3167183E-003  0.6466430E+03  0.7818608E-02  0.9813099E-01
          3   -1    0    0  502    0  0.00000000000E+00  0.00000000000E+00  0.11801128798E+03  0.11801128798E+03  0.00000000000E+00 0.  1.
         13   -1    0    0    0    0 -0.00000000000E+00 -0.00000000000E+00 -0.10000000000E+04  0.10000000000E+04  0.00000000000E+00 0.  1.
    9000005    2    1    2  501    0 -0.59446367570E-01  0.38370208680E+00 -0.89546012144E+03  0.11045342841E+04  0.64664287280E+03 0.  0.
         13    1    3    3    0    0  0.80966765771E+02  0.31236077259E+03 -0.40876729624E+03  0.52078361331E+03  0.00000000000E+00 0.  1.
          1    1    3    3  501    0 -0.81026212139E+02 -0.31197707050E+03 -0.48669282520E+03  0.58375067081E+03  0.00000000000E+00 0.  1.
         21    1    1    2  502  501  0.59446367570E-01 -0.38370208680E+00  0.13471409422E+02  0.13477003857E+02  0.00000000000E+00 0. -1.
<mgrwt>
<rscale>  1 0.64664299E+03</rscale>
<asrwt>0</asrwt>
<pdfrwt beam="1">  1        3 0.42913286E+00 0.64664299E+03</pdfrwt>
<pdfrwt beam="2">0</pdfrwt>
<totfact> 0.41828567E-02</totfact>
</mgrwt>
</event>
<event>
 6    1  0.3167183E-003  0.6477382E+03  0.7818608E-02  0.9811033E-01
          1   -1    0    0  502    0  0.00000000000E+00  0.00000000000E+00  0.10525324905E+03  0.10525324905E+03  0.00000000000E+00 0.  1.
         13   -1    0    0    0    0 -0.00000000000E+00 -0.00000000000E+00 -0.10000000000E+04  0.10000000000E+04  0.00000000000E+00 0.  1.
    9000005    2    1    2  501    0  0.57394185768E-02  0.70033996883E-02 -0.89510875382E+03  0.11048911330E+04  0.64773816811E+03 0.  0.
         13    1    3    3    0    0 -0.32258135091E+03  0.19218554510E+02 -0.48419043791E+03  0.58212409412E+03  0.00000000000E+00 0.  1.
          1    1    3    3  501    0  0.32258709033E+03 -0.19211551111E+02 -0.41091831591E+03  0.52276703883E+03  0.00000000000E+00 0.  1.
         21    1    1    2  502  501 -0.57394185768E-02 -0.70033996883E-02  0.36200287212E+00  0.36211609734E+00  0.00000000000E+00 0. -1.
<mgrwt>
<rscale>  1 0.64773817E+03</rscale>
<asrwt>0</asrwt>
<pdfrwt beam="1">  1        1 0.38273989E+00 0.64773817E+03</pdfrwt>
<pdfrwt beam="2">0</pdfrwt>
<totfact> 0.15965577E+00</totfact>
</mgrwt>
</event>
<event>
 6    1  0.3167183E-003  0.6405929E+03  0.7818608E-02  0.9824593E-01
          1   -1    0    0  502    0  0.00000000000E+00  0.00000000000E+00  0.10258984562E+03  0.10258984562E+03  0.00000000000E+00 0.  1.
         13   -1    0    0    0    0 -0.00000000000E+00 -0.00000000000E+00 -0.10000000000E+04  0.10000000000E+04  0.00000000000E+00 0.  1.
    9000005    2    1    2  501    0 -0.12299984519E-04  0.86545395561E-05 -0.89741017030E+03  0.11025898237E+04  0.64059293284E+03 0.  0.
         13    1    3    3    0    0  0.10912883398E+03 -0.28110190882E+03 -0.26282771779E+03  0.40000724342E+03  0.00000000000E+00 0.  1.
          1    1    3    3  501    0 -0.10912884628E+03  0.28110191748E+03 -0.63458245251E+03  0.70258258030E+03  0.00000000000E+00 0.  1.
         21    1    1    2  502  501  0.12299984517E-04 -0.86545395799E-05  0.15919561680E-04  0.21900299508E-04  0.00000000000E+00 0. -1.
<mgrwt>
<rscale>  1 0.64059293E+03</rscale>
<asrwt>0</asrwt>
<pdfrwt beam="1">  1        1 0.37305477E+00 0.64059293E+03</pdfrwt>
<pdfrwt beam="2">0</pdfrwt>
<totfact> 0.17637792E+00</totfact>
</mgrwt>
</event>
<event>
 6    1  0.3167183E-003  0.6374330E+03  0.7818608E-02  0.9830650E-01
          1   -1    0    0  502    0  0.00000000000E+00  0.00000000000E+00  0.10181058493E+03  0.10181058493E+03  0.00000000000E+00 0.  1.
         13   -1    0    0    0    0 -0.00000000000E+00 -0.00000000000E+00 -0.10000000000E+04  0.10000000000E+04  0.00000000000E+00 0.  1.
    9000005    2    1    2  501    0  0.26866321043E-01  0.47165078609E-01 -0.89841625874E+03  0.11015773374E+04  0.63743301877E+03 0.  0.
         13    1    3    3    0    0  0.97761697784E+02 -0.13872822782E+03  0.16994709624E+02  0.17056286496E+03  0.00000000000E+00 0.  1.
          1    1    3    3  501    0 -0.97734831463E+02  0.13877539289E+03 -0.91541096837E+03  0.93101447248E+03  0.00000000000E+00 0.  1.
         21    1    1    2  502  501 -0.26866321043E-01 -0.47165078609E-01  0.22684366836E+00  0.23324749456E+00  0.00000000000E+00 0.  1.
<mgrwt>
<rscale>  1 0.63743302E+03</rscale>
<asrwt>0</asrwt>
<pdfrwt beam="1">  1        1 0.37022109E+00 0.63743302E+03</pdfrwt>
<pdfrwt beam="2">0</pdfrwt>
<totfact> 0.18161375E+00</totfact>
</mgrwt>
</event>
<event>
 6    1  0.3167183E-003  0.6628916E+03  0.7818608E-02  0.9782885E-01
          1   -1    0    0  502    0  0.00000000000E+00  0.00000000000E+00  0.11118650139E+03  0.11118650139E+03  0.00000000000E+00 0.  1.
         13   -1    0    0    0    0 -0.00000000000E+00 -0.00000000000E+00 -0.10000000000E+04  0.10000000000E+04  0.00000000000E+00 0.  1.
    9000005    2    1    2  501    0 -0.38703657188E+00  0.38925243782E+01 -0.88208380674E+03  0.11034025245E+04  0.66288007020E+03 0.  0.
         13    1    3    3    0    0  0.23721405984E+03  0.21863619007E+03 -0.57712962050E+03  0.66117387475E+03  0.00000000000E+00 0.  1.
          1    1    3    3  501    0 -0.23760109641E+03 -0.21474366569E+03 -0.30495418623E+03  0.44222864977E+03  0.00000000000E+00 0.  1.
         21    1    1    2  502  501  0.38703657188E+00 -0.38925243782E+01 -0.67296918682E+01  0.77839768746E+01  0.00000000000E+00 0.  1.
<mgrwt>
<rscale>  1 0.66289161E+03</rscale>
<asrwt>0</asrwt>
<pdfrwt beam="1">  1        1 0.40431540E+00 0.66289161E+03</pdfrwt>
<pdfrwt beam="2">0</pdfrwt>
<totfact> 0.12767089E+00</totfact>
</mgrwt>
</event>
<event>
 6    1  0.3167183E-003  0.6575432E+03  0.7818608E-02  0.9792727E-01
          1   -1    0    0  502    0  0.00000000000E+00  0.00000000000E+00  0.10813243537E+03  0.10813243537E+03  0.00000000000E+00 0.  1.
         13   -1    0    0    0    0 -0.00000000000E+00 -0.00000000000E+00 -0.10000000000E+04  0.10000000000E+04  0.00000000000E+00 0.  1.
    9000005    2    1    2  501    0  0.43912240983E-03  0.72917376817E-03 -0.89190923965E+03  0.11080907517E+04  0.65754317131E+03 0.  0.
         13    1    3    3    0    0 -0.32739356204E+03  0.25504780514E+02 -0.41911829288E+03  0.53244453393E+03  0.00000000000E+00 0.  1.
          1    1    3    3  501    0  0.32739400116E+03 -0.25504051340E+02 -0.47279094678E+03  0.57564621773E+03  0.00000000000E+00 0.  1.
         21    1    1    2  502  501 -0.43912240986E-03 -0.72917376818E-03  0.41675022469E-01  0.41683714094E-01  0.00000000000E+00 0. -1.
<mgrwt>
<rscale>  1 0.65754317E+03</rscale>
<asrwt>0</asrwt>
<pdfrwt beam="1">  1        1 0.39320969E+00 0.65754317E+03</pdfrwt>
<pdfrwt beam="2">0</pdfrwt>
<totfact> 0.14322343E+00</totfact>
</mgrwt>
</event>
<event>
 6    1  0.3167183E-003  0.6457230E+03  0.7818608E-02  0.9814838E-01
          1   -1    0    0  502    0  0.00000000000E+00  0.00000000000E+00  0.10427892490E+03  0.10427892490E+03  0.00000000000E+00 0.  1.
         13   -1    0    0    0    0 -0.00000000000E+00 -0.00000000000E+00 -0.10000000000E+04  0.10000000000E+04  0.00000000000E+00 0.  1.
    9000005    2    1    2  501    0 -0.31114609804E-02  0.32215313095E-02 -0.89576032624E+03  0.11042394191E+04  0.64572295339E+03 0.  0.
         13    1    3    3    0    0  0.73666053953E+02  0.22458538478E+03 -0.71761278408E+02  0.24701207185E+03  0.00000000000E+00 0.  1.
          1    1    3    3  501    0 -0.73669165414E+02 -0.22458216325E+03 -0.82399904783E+03  0.85722734721E+03  0.00000000000E+00 0.  1.
         21    1    1    2  502  501  0.31114609804E-02 -0.32215313096E-02  0.39251138588E-01  0.39505839237E-01  0.00000000000E+00 0.  1.
<mgrwt>
<rscale>  1 0.64572295E+03</rscale>
<asrwt>0</asrwt>
<pdfrwt beam="1">  1        1 0.37919689E+00 0.64572295E+03</pdfrwt>
<pdfrwt beam="2">0</pdfrwt>
<totfact> 0.16557146E+00</totfact>
</mgrwt>
</event>
<event>
 6    1  0.3167183E-003  0.6464784E+03  0.7818608E-02  0.9813410E-01
          1   -1    0    0  502    0  0.00000000000E+00  0.00000000000E+00  0.10448652982E+03  0.10448652982E+03  0.00000000000E+00 0.  1.
         13   -1    0    0    0    0 -0.00000000000E+00 -0.00000000000E+00 -0.10000000000E+04  0.10000000000E+04  0.00000000000E+00 0.  1.
    9000005    2    1    2  501    0 -0.50775415586E-03 -0.20214821464E-03 -0.89551638440E+03  0.11044835648E+04  0.64647842206E+03 0.  0.
         13    1    3    3    0    0  0.70450496882E+02 -0.22711465500E+03 -0.73689935484E+02  0.24894687308E+03  0.00000000000E+00 0.  1.
          1    1    3    3  501    0 -0.70451004636E+02  0.22711445285E+03 -0.82182644891E+03  0.85553669172E+03  0.00000000000E+00 0.  1.
         21    1    1    2  502  501  0.50775415586E-03  0.20214821463E-03  0.29142193778E-02  0.29650215456E-02  0.00000000000E+00 0.  1.
<mgrwt>
<rscale>  1 0.64647842E+03</rscale>
<asrwt>0</asrwt>
<pdfrwt beam="1">  1        1 0.37995182E+00 0.64647842E+03</pdfrwt>
<pdfrwt beam="2">0</pdfrwt>
<totfact> 0.16428388E+00</totfact>
</mgrwt>
</event>
<event>
 6    1  0.3167183E-003  0.6454834E+03  0.7818608E-02  0.9815291E-01
          1   -1    0    0  502    0  0.00000000000E+00  0.00000000000E+00  0.11117296047E+03  0.11117296047E+03  0.00000000000E+00 0.  1.
         13   -1    0    0    0    0 -0.00000000000E+00 -0.00000000000E+00 -0.10000000000E+04  0.10000000000E+04  0.00000000000E+00 0.  1.
    9000005    2    1    2  501    0 -0.21115143928E+01  0.53512935422E+00 -0.89565050733E+03  0.11040102397E+04  0.64547969230E+03 0.  0.
         13    1    3    3    0    0  0.30106102935E+03 -0.81492164894E+02 -0.58106560951E+03  0.65948158343E+03  0.00000000000E+00 0.  1.
          3    1    3    3  501    0 -0.30317254375E+03  0.82027294249E+02 -0.31458489782E+03  0.44452865624E+03  0.00000000000E+00 0.  1.
         21    1    1    2  502  501  0.21115143928E+01 -0.53512935422E+00  0.68234677997E+01  0.71627208008E+01  0.00000000000E+00 0.  1.
<mgrwt>
<rscale>  1 0.64548337E+03</rscale>
<asrwt>0</asrwt>
<pdfrwt beam="1">  1        1 0.40426616E+00 0.64548337E+03</pdfrwt>
<pdfrwt beam="2">0</pdfrwt>
<totfact> 0.12816064E+00</totfact>
</mgrwt>
</event>
<event>
 6    1  0.3190336E-003  0.6285673E+03  0.7818608E-02  0.9847849E-01
          1   -1    0    0  502    0  0.00000000000E+00  0.00000000000E+00  0.98774222762E+02  0.98774222762E+02  0.00000000000E+00 0.  1.
         13   -1    0    0    0    0 -0.00000000000E+00 -0.00000000000E+00 -0.10000000000E+04  0.10000000000E+04  0.00000000000E+00 0.  1.
    9000005    2    1    2  501    0 -0.43040008677E-05 -0.52377185966E-06 -0.90122578050E+03  0.10987742173E+04  0.62856731799E+03 0.  0.
         13    1    3    3    0    0 -0.12726062547E+03 -0.28338757802E+03 -0.36731941451E+03  0.48106895395E+03  0.00000000000E+00 0.  1.
          1    1    3    3  501    0  0.12726062117E+03  0.28338757750E+03 -0.53390636598E+03  0.61770526339E+03  0.00000000000E+00 0.  1.
         21    1    1    2  502  501  0.43040008581E-05  0.52377188758E-06  0.32605773972E-05  0.54249539482E-05  0.00000000000E+00 0.  1.
<mgrwt>
<rscale>  1 0.62856732E+03</rscale>
<asrwt>0</asrwt>
<pdfrwt beam="1">  1        1 0.35917975E+00 0.62856732E+03</pdfrwt>
<pdfrwt beam="2">0</pdfrwt>
<totfact> 0.20334276E+00</totfact>
</mgrwt>
</event>
<event>
 6    1  0.3167183E-003  0.6515456E+03  0.7818608E-02  0.9803883E-01
          1   -1    0    0  502    0  0.00000000000E+00  0.00000000000E+00  0.10612836878E+03  0.10612836878E+03  0.00000000000E+00 0.  1.
         13   -1    0    0    0    0 -0.00000000000E+00 -0.00000000000E+00 -0.10000000000E+04  0.10000000000E+04  0.00000000000E+00 0.  1.
    9000005    2    1    2  501    0 -0.62925622217E-04  0.40439356269E-04 -0.89387206912E+03  0.11061279245E+04  0.65154563117E+03 0.  0.
         13    1    3    3    0    0 -0.13604056755E+03 -0.29500886435E+03 -0.48819596282E+03  0.58640648374E+03  0.00000000000E+00 0.  1.
          3    1    3    3  501    0  0.13604050462E+03  0.29500890479E+03 -0.40567610630E+03  0.51972144080E+03  0.00000000000E+00 0.  1.
         21    1    1    2  502  501  0.62925622214E-04 -0.40439356297E-04  0.43789441588E-03  0.44423698060E-03  0.00000000000E+00 0.  1.
<mgrwt>
<rscale>  1 0.65154563E+03</rscale>
<asrwt>0</asrwt>
<pdfrwt beam="1">  1        1 0.38592215E+00 0.65154563E+03</pdfrwt>
<pdfrwt beam="2">0</pdfrwt>
<totfact> 0.15445728E+00</totfact>
</mgrwt>
</event>
<event>
 6    1  0.3167183E-003  0.6455337E+03  0.7818608E-02  0.9815196E-01
          3   -1    0    0  502    0  0.00000000000E+00  0.00000000000E+00  0.10617945166E+03  0.10617945166E+03  0.00000000000E+00 0.  1.
         13   -1    0    0    0    0 -0.00000000000E+00 -0.00000000000E+00 -0.10000000000E+04  0.10000000000E+04  0.00000000000E+00 0.  1.
    9000005    2    1    2  501    0 -0.77157616292E+00  0.57452380929E+00 -0.89569313256E+03  0.11040742251E+04  0.64553294363E+03 0.  0.
         13    1    3    3    0    0 -0.29742748996E+03 -0.99732394739E+02 -0.58003926906E+03  0.65943552831E+03  0.00000000000E+00 0.  1.
          1    1    3    3  501    0  0.29665591380E+03  0.10030691855E+03 -0.31565386350E+03  0.44463869674E+03  0.00000000000E+00 0.  1.
         21    1    1    2  502  501  0.77157616292E+00 -0.57452380929E+00  0.18725842212E+01  0.21052266025E+01  0.00000000000E+00 0.  1.
<mgrwt>
<rscale>  1 0.64553366E+03</rscale>
<asrwt>0</asrwt>
<pdfrwt beam="1">  1        3 0.38610791E+00 0.64553366E+03</pdfrwt>
<pdfrwt beam="2">0</pdfrwt>
<totfact> 0.70133486E-02</totfact>
</mgrwt>
</event>
<event>
 6    1  0.3167183E-003  0.6535947E+03  0.7818608E-02  0.9800057E-01
          1   -1    0    0  502    0  0.00000000000E+00  0.00000000000E+00  0.10679654169E+03  0.10679654169E+03  0.00000000000E+00 0.  1.
         13   -1    0    0    0    0 -0.00000000000E+00 -0.00000000000E+00 -0.10000000000E+04  0.10000000000E+04  0.00000000000E+00 0.  1.
    9000005    2    1    2  501    0  0.98893599727E-05  0.62397530769E-05 -0.89320349420E+03  0.11067965039E+04  0.65359469024E+03 0.  0.
         13    1    3    3    0    0 -0.18296136336E+03 -0.26352123973E+03 -0.55205844524E+03  0.63850358749E+03  0.00000000000E+00 0.  1.
          3    1    3    3  501    0  0.18296137325E+03  0.26352124597E+03 -0.34114504896E+03  0.46829291646E+03  0.00000000000E+00 0.  1.
         21    1    1    2  502  501 -0.98893599946E-05 -0.62397530948E-05  0.35890143600E-04  0.37747004747E-04  0.00000000000E+00 0.  1.
<mgrwt>
<rscale>  1 0.65359469E+03</rscale>
<asrwt>0</asrwt>
<pdfrwt beam="1">  1        1 0.38835188E+00 0.65359469E+03</pdfrwt>
<pdfrwt beam="2">0</pdfrwt>
<totfact> 0.15062069E+00</totfact>
</mgrwt>
</event>
<event>
 6    1  0.3167183E-003  0.6365309E+03  0.7818608E-02  0.9832386E-01
          1   -1    0    0  502    0  0.00000000000E+00  0.00000000000E+00  0.10129307108E+03  0.10129307108E+03  0.00000000000E+00 0.  1.
         13   -1    0    0    0    0 -0.00000000000E+00 -0.00000000000E+00 -0.10000000000E+04  0.10000000000E+04  0.00000000000E+00 0.  1.
    9000005    2    1    2  501    0  0.38672273604E-03 -0.23200897604E-03 -0.89870665779E+03  0.11012925449E+04  0.63653092042E+03 0.  0.
         13    1    3    3    0    0 -0.22205551298E+03 -0.17726564299E+03 -0.20126488546E+03  0.34819436117E+03  0.00000000000E+00 0.  1.
          1    1    3    3  501    0  0.22205589970E+03  0.17726541098E+03 -0.69744177233E+03  0.75309818371E+03  0.00000000000E+00 0.  1.
         21    1    1    2  502  501 -0.38672273605E-03  0.23200897603E-03 -0.27112576484E-03  0.52620511201E-03  0.00000000000E+00 0.  1.
<mgrwt>
<rscale>  1 0.63653092E+03</rscale>
<asrwt>0</asrwt>
<pdfrwt beam="1">  1        1 0.36833922E+00 0.63653092E+03</pdfrwt>
<pdfrwt beam="2">0</pdfrwt>
<totfact> 0.18513231E+00</totfact>
</mgrwt>
</event>
<event>
 6    1  0.3167183E-003  0.6149499E+03  0.7818608E-02  0.9874866E-01
          3   -1    0    0  502    0  0.00000000000E+00  0.00000000000E+00  0.94545563155E+02  0.94545563155E+02  0.00000000000E+00 0.  1.
         13   -1    0    0    0    0 -0.00000000000E+00 -0.00000000000E+00 -0.10000000000E+04  0.10000000000E+04  0.00000000000E+00 0.  1.
    9000005    2    1    2  501    0  0.32871943063E-03 -0.13759571814E-03 -0.90545915691E+03  0.10945408297E+04  0.61494987027E+03 0.  0.
         13    1    3    3    0    0 -0.11135530942E+03  0.20559237577E+03 -0.97319778595E+02  0.25325751562E+03  0.00000000000E+00 0.  1.
          1    1    3    3  501    0  0.11135563814E+03 -0.20559251336E+03 -0.80813937832E+03  0.84128331404E+03  0.00000000000E+00 0.  1.
         21    1    1    2  502  501 -0.32871943062E-03  0.13759571815E-03  0.47200663022E-02  0.47334992281E-02  0.00000000000E+00 0. -1.
<mgrwt>
<rscale>  1 0.61494987E+03</rscale>
<asrwt>0</asrwt>
<pdfrwt beam="1">  1        3 0.34380277E+00 0.61494987E+03</pdfrwt>
<pdfrwt beam="2">0</pdfrwt>
<totfact> 0.11815832E-01</totfact>
</mgrwt>
</event>
<event>
 6    1  0.3167183E-003  0.6468186E+03  0.7818608E-02  0.9812767E-01
          1   -1    0    0  502    0  0.00000000000E+00  0.00000000000E+00  0.10993053257E+03  0.10993053257E+03  0.00000000000E+00 0.  1.
         13   -1    0    0    0    0 -0.00000000000E+00 -0.00000000000E+00 -0.10000000000E+04  0.10000000000E+04  0.00000000000E+00 0.  1.
    9000005    2    1    2  501    0 -0.26507892847E+00 -0.12648421607E+01 -0.89531986821E+03  0.11045234261E+04  0.64681733294E+03 0.  0.
         13    1    3    3    0    0 -0.22484615044E+03  0.57795782883E+02 -0.83206522759E+03  0.86384529104E+03  0.00000000000E+00 0.  1.
          1    1    3    3  501    0  0.22458107151E+03 -0.59060625044E+02 -0.63254640623E+02  0.24067813501E+03  0.00000000000E+00 0.  1.
         21    1    1    2  502  501  0.26507892847E+00  0.12648421607E+01  0.52504007843E+01  0.54071065206E+01  0.00000000000E+00 0.  1.
<mgrwt>
<rscale>  1 0.64681862E+03</rscale>
<asrwt>0</asrwt>
<pdfrwt beam="1">  1        1 0.39974823E+00 0.64681862E+03</pdfrwt>
<pdfrwt beam="2">0</pdfrwt>
<totfact> 0.13421478E+00</totfact>
</mgrwt>
</event>
<event>
 6    1  0.3167183E-003  0.6327590E+03  0.7818608E-02  0.9839679E-01
          1   -1    0    0  502    0  0.00000000000E+00  0.00000000000E+00  0.10009847216E+03  0.10009847216E+03  0.00000000000E+00 0.  1.
         13   -1    0    0    0    0 -0.00000000000E+00 -0.00000000000E+00 -0.10000000000E+04  0.10000000000E+04  0.00000000000E+00 0.  1.
    9000005    2    1    2  501    0  0.79691437236E-04 -0.12720216496E-04 -0.89990400076E+03  0.11000959979E+04  0.63275903319E+03 0.  0.
         13    1    3    3    0    0  0.25995034110E+03  0.31537099744E+02 -0.75865108579E+03  0.80257101771E+03  0.00000000000E+00 0.  1.
          1    1    3    3  501    0 -0.25995026141E+03 -0.31537112464E+02 -0.14125291497E+03  0.29752498022E+03  0.00000000000E+00 0.  1.
         21    1    1    2  502  501 -0.79691437248E-04  0.12720216497E-04  0.24729177418E-02  0.24742341616E-02  0.00000000000E+00 0. -1.
<mgrwt>
<rscale>  1 0.63275903E+03</rscale>
<asrwt>0</asrwt>
<pdfrwt beam="1">  1        1 0.36399521E+00 0.63275903E+03</pdfrwt>
<pdfrwt beam="2">0</pdfrwt>
<totfact> 0.19356466E+00</totfact>
</mgrwt>
</event>
<event>
 6    1  0.3167183E-003  0.6492232E+03  0.7818608E-02  0.9808238E-01
          1   -1    0    0  502    0  0.00000000000E+00  0.00000000000E+00  0.10537275045E+03  0.10537275045E+03  0.00000000000E+00 0.  1.
         13   -1    0    0    0    0 -0.00000000000E+00 -0.00000000000E+00 -0.10000000000E+04  0.10000000000E+04  0.00000000000E+00 0.  1.
    9000005    2    1    2  501    0  0.65726328558E-05  0.73285519875E-05 -0.89462729430E+03  0.11053727046E+04  0.64922324392E+03 0.  0.
         13    1    3    3    0    0 -0.26367252312E+03 -0.17690563194E+03 -0.33241724062E+03  0.45969557745E+03  0.00000000000E+00 0.  1.
          1    1    3    3  501    0  0.26367252969E+03  0.17690563927E+03 -0.56221005367E+03  0.64567712719E+03  0.00000000000E+00 0.  1.
         21    1    1    2  502  501 -0.65726328350E-05 -0.73285519801E-05  0.44750327225E-04  0.45820289864E-04  0.00000000000E+00 0.  1.
<mgrwt>
<rscale>  1 0.64922324E+03</rscale>
<asrwt>0</asrwt>
<pdfrwt beam="1">  1        1 0.38317445E+00 0.64922324E+03</pdfrwt>
<pdfrwt beam="2">0</pdfrwt>
<totfact> 0.15890793E+00</totfact>
</mgrwt>
</event>
<event>
 6    1  0.3167183E-003  0.6497310E+03  0.7818608E-02  0.9807284E-01
          1   -1    0    0  502    0  0.00000000000E+00  0.00000000000E+00  0.10553916213E+03  0.10553916213E+03  0.00000000000E+00 0.  1.
         13   -1    0    0    0    0 -0.00000000000E+00 -0.00000000000E+00 -0.10000000000E+04  0.10000000000E+04  0.00000000000E+00 0.  1.
    9000005    2    1    2  501    0  0.17129888576E-04  0.12562144224E-03 -0.89446239217E+03  0.11055376027E+04  0.64973103659E+03 0.  0.
         13    1    3    3    0    0 -0.71693664825E+02 -0.22150847386E+03 -0.83273813238E+03  0.86467264481E+03  0.00000000000E+00 0.  1.
          3    1    3    3  501    0  0.71693681954E+02  0.22150859948E+03 -0.61724259789E+02  0.24086495786E+03  0.00000000000E+00 0.  1.
         21    1    1    2  502  501 -0.17129888565E-04 -0.12562144221E-03  0.15543033756E-02  0.15594656660E-02  0.00000000000E+00 0. -1.
<mgrwt>
<rscale>  1 0.64973104E+03</rscale>
<asrwt>0</asrwt>
<pdfrwt beam="1">  1        1 0.38377958E+00 0.64973104E+03</pdfrwt>
<pdfrwt beam="2">0</pdfrwt>
<totfact> 0.15791752E+00</totfact>
</mgrwt>
</event>
<event>
 6    1  0.3167183E-003  0.6573124E+03  0.7818608E-02  0.9793154E-01
          1   -1    0    0  502    0  0.00000000000E+00  0.00000000000E+00  0.10801511959E+03  0.10801511959E+03  0.00000000000E+00 0.  1.
         13   -1    0    0    0    0 -0.00000000000E+00 -0.00000000000E+00 -0.10000000000E+04  0.10000000000E+04  0.00000000000E+00 0.  1.
    9000005    2    1    2  501    0 -0.42504228389E-04  0.19833827764E-04 -0.89198510066E+03  0.11080148944E+04  0.65731239637E+03 0.  0.
         13    1    3    3    0    0 -0.11271536802E+03  0.28595973561E+03 -0.64211981221E+03  0.71189576330E+03  0.00000000000E+00 0.  1.
          1    1    3    3  501    0  0.11271532551E+03 -0.28595971577E+03 -0.24986528845E+03  0.39611913110E+03  0.00000000000E+00 0.  1.
         21    1    1    2  502  501  0.42504228396E-04 -0.19833827767E-04  0.22025313248E-03  0.22519199036E-03  0.00000000000E+00 0.  1.
<mgrwt>
<rscale>  1 0.65731240E+03</rscale>
<asrwt>0</asrwt>
<pdfrwt beam="1">  1        1 0.39278308E+00 0.65731240E+03</pdfrwt>
<pdfrwt beam="2">0</pdfrwt>
<totfact> 0.14385589E+00</totfact>
</mgrwt>
</event>
<event>
 6    1  0.3167183E-003  0.6473021E+03  0.7818608E-02  0.9811855E-01
          1   -1    0    0  502    0  0.00000000000E+00  0.00000000000E+00  0.10475060062E+03  0.10475060062E+03  0.00000000000E+00 0.  1.
         13   -1    0    0    0    0 -0.00000000000E+00 -0.00000000000E+00 -0.10000000000E+04  0.10000000000E+04  0.00000000000E+00 0.  1.
    9000005    2    1    2  501    0  0.23175365499E-04  0.10727887101E-03 -0.89525000440E+03  0.11047499857E+04  0.64730206287E+03 0.  0.
         13    1    3    3    0    0  0.19444571787E+03  0.25586467656E+03 -0.38209688003E+03  0.49927336764E+03  0.00000000000E+00 0.  1.
          3    1    3    3  501    0 -0.19444569469E+03 -0.25586456929E+03 -0.51315312437E+03  0.60547661809E+03  0.00000000000E+00 0.  1.
         21    1    1    2  502  501 -0.23175365513E-04 -0.10727887101E-03  0.60501607476E-03  0.61489048168E-03  0.00000000000E+00 0.  1.
<mgrwt>
<rscale>  1 0.64730206E+03</rscale>
<asrwt>0</asrwt>
<pdfrwt beam="1">  1        1 0.38091208E+00 0.64730206E+03</pdfrwt>
<pdfrwt beam="2">0</pdfrwt>
<totfact> 0.16266398E+00</totfact>
</mgrwt>
</event>
<event>
 6    1  0.3167183E-003  0.6545761E+03  0.7818608E-02  0.9798230E-01
          1   -1    0    0  502    0  0.00000000000E+00  0.00000000000E+00  0.10711888943E+03  0.10711888943E+03  0.00000000000E+00 0.  1.
         13   -1    0    0    0    0 -0.00000000000E+00 -0.00000000000E+00 -0.10000000000E+04  0.10000000000E+04  0.00000000000E+00 0.  1.
    9000005    2    1    2  501    0 -0.23761927764E-04 -0.99548817332E-05 -0.89288254716E+03  0.11071174526E+04  0.65457605429E+03 0.  0.
         13    1    3    3    0    0 -0.14386400438E+03 -0.17736618155E+03 -0.49922076577E+02  0.23376874865E+03  0.00000000000E+00 0.  1.
          1    1    3    3  501    0  0.14386398062E+03  0.17736617160E+03 -0.84296047058E+03  0.87334870396E+03  0.00000000000E+00 0.  1.
         21    1    1    2  502  501  0.23761927787E-04  0.99548817305E-05  0.14365888964E-02  0.14368198865E-02  0.00000000000E+00 0.  1.
<mgrwt>
<rscale>  1 0.65457605E+03</rscale>
<asrwt>0</asrwt>
<pdfrwt beam="1">  1        1 0.38952406E+00 0.65457605E+03</pdfrwt>
<pdfrwt beam="2">0</pdfrwt>
<totfact> 0.14880251E+00</totfact>
</mgrwt>
</event>
<event>
 6    1  0.3167183E-003  0.6664424E+03  0.7818608E-02  0.9776406E-01
          1   -1    0    0  502    0  0.00000000000E+00  0.00000000000E+00  0.11104237145E+03  0.11104237145E+03  0.00000000000E+00 0.  1.
         13   -1    0    0    0    0 -0.00000000000E+00 -0.00000000000E+00 -0.10000000000E+04  0.10000000000E+04  0.00000000000E+00 0.  1.
    9000005    2    1    2  501    0  0.30034186647E-02  0.23404919271E-02 -0.88896295864E+03  0.11110358210E+04  0.66644238590E+03 0.  0.
         13    1    3    3    0    0 -0.76146722471E+02 -0.25821289322E+03 -0.11709947158E+03  0.29357198063E+03  0.00000000000E+00 0.  1.
          3    1    3    3  501    0  0.76149725889E+02  0.25821523371E+03 -0.77186348706E+03  0.81746384038E+03  0.00000000000E+00 0.  1.
         21    1    1    2  502  501 -0.30034186647E-02 -0.23404919271E-02  0.53300849361E-02  0.65504375093E-02  0.00000000000E+00 0. -1.
<mgrwt>
<rscale>  1 0.66644239E+03</rscale>
<asrwt>0</asrwt>
<pdfrwt beam="1">  1        1 0.40379129E+00 0.66644239E+03</pdfrwt>
<pdfrwt beam="2">0</pdfrwt>
<totfact> 0.12827570E+00</totfact>
</mgrwt>
</event>
<event>
 6    1  0.3167183E-003  0.6437121E+03  0.7818608E-02  0.9818650E-01
          1   -1    0    0  502    0  0.00000000000E+00  0.00000000000E+00  0.10359141827E+03  0.10359141827E+03  0.00000000000E+00 0.  1.
         13   -1    0    0    0    0 -0.00000000000E+00 -0.00000000000E+00 -0.10000000000E+04  0.10000000000E+04  0.00000000000E+00 0.  1.
    9000005    2    1    2  501    0  0.24413794108E-04  0.20268905962E-03 -0.89640856051E+03  0.11035912130E+04  0.64371209256E+03 0.  0.
         13    1    3    3    0    0 -0.30376848365E+03 -0.84889414673E+02 -0.33829702672E+03  0.46252176454E+03  0.00000000000E+00 0.  1.
          1    1    3    3  501    0  0.30376850807E+03  0.84889617362E+02 -0.55811153379E+03  0.64106944848E+03  0.00000000000E+00 0.  1.
         21    1    1    2  502  501 -0.24413794084E-04 -0.20268905962E-03 -0.21216062168E-04  0.20525352500E-03  0.00000000000E+00 0. -1.
<mgrwt>
<rscale>  1 0.64371209E+03</rscale>
<asrwt>0</asrwt>
<pdfrwt beam="1">  1        1 0.37669686E+00 0.64371209E+03</pdfrwt>
<pdfrwt beam="2">0</pdfrwt>
<totfact> 0.16988910E+00</totfact>
</mgrwt>
</event>
<event>
 6    1  0.3982046E-003  0.5086540E+03  0.7818608E-02  0.1011544E+00
          1   -1    0    0  502    0  0.00000000000E+00  0.00000000000E+00  0.64682241934E+02  0.64682241934E+02  0.00000000000E+00 0.  1.
         13   -1    0    0    0    0 -0.00000000000E+00 -0.00000000000E+00 -0.10000000000E+04  0.10000000000E+04  0.00000000000E+00 0.  1.
    9000005    2    1    2  501    0  0.58116313539E-07  0.15651699812E-05 -0.93531776848E+03  0.10646822314E+04  0.50865403354E+03 0.  0.
         13    1    3    3    0    0  0.16274357390E+03 -0.12237666436E+03 -0.14869957320E+03  0.25213702999E+03  0.00000000000E+00 0.  1.
          3    1    3    3  501    0 -0.16274357384E+03  0.12237666593E+03 -0.78661819528E+03  0.81254520141E+03  0.00000000000E+00 0.  1.
         21    1    1    2  502  501 -0.58116323332E-07 -0.15651699790E-05  0.10412067867E-04  0.10529211359E-04  0.00000000000E+00 0.  1.
<mgrwt>
<rscale>  1 0.50865403E+03</rscale>
<asrwt>0</asrwt>
<pdfrwt beam="1">  1        1 0.23520865E+00 0.50865403E+03</pdfrwt>
<pdfrwt beam="2">0</pdfrwt>
<totfact> 0.71558233E+00</totfact>
</mgrwt>
</event>
<event>
 6    1  0.3167183E-003  0.6485415E+03  0.7818608E-02  0.9809520E-01
          1   -1    0    0  502    0  0.00000000000E+00  0.00000000000E+00  0.10515153159E+03  0.10515153159E+03  0.00000000000E+00 0.  1.
         13   -1    0    0    0    0 -0.00000000000E+00 -0.00000000000E+00 -0.10000000000E+04  0.10000000000E+04  0.00000000000E+00 0.  1.
    9000005    2    1    2  501    0 -0.22044967523E-05  0.44966143093E-05 -0.89484846719E+03  0.11051515264E+04  0.64854153077E+03 0.  0.
         13    1    3    3    0    0  0.19150576654E+03 -0.53338446477E+02 -0.10866062430E+02  0.19909173716E+03  0.00000000000E+00 0.  1.
          3    1    3    3  501    0 -0.19150576875E+03  0.53338450973E+02 -0.88398240476E+03  0.90605978928E+03  0.00000000000E+00 0.  1.
         21    1    1    2  502  501  0.22044967610E-05 -0.44966143065E-05 -0.12206371182E-05  0.51545417997E-05  0.00000000000E+00 0. -1.
<mgrwt>
<rscale>  1 0.64854153E+03</rscale>
<asrwt>0</asrwt>
<pdfrwt beam="1">  1        1 0.38237001E+00 0.64854153E+03</pdfrwt>
<pdfrwt beam="2">0</pdfrwt>
<totfact> 0.16023388E+00</totfact>
</mgrwt>
</event>
<event>
 6    1  0.3167183E-003  0.6164783E+03  0.7818608E-02  0.9871797E-01
          1   -1    0    0  502    0  0.00000000000E+00  0.00000000000E+00  0.95175216873E+02  0.95175216873E+02  0.00000000000E+00 0.  1.
         13   -1    0    0    0    0 -0.00000000000E+00 -0.00000000000E+00 -0.10000000000E+04  0.10000000000E+04  0.00000000000E+00 0.  1.
    9000005    2    1    2  501    0  0.48460486524E-03  0.61178044634E-02 -0.90498856807E+03  0.10950113170E+04  0.61647828507E+03 0.  0.
         13    1    3    3    0    0  0.82171795307E+02  0.29367063971E+03 -0.53230204286E+03  0.61346565789E+03  0.00000000000E+00 0.  1.
          1    1    3    3  501    0 -0.82171310703E+02 -0.29366452191E+03 -0.37268652521E+03  0.48154565911E+03  0.00000000000E+00 0.  1.
         21    1    1    2  502  501 -0.48460486523E-03 -0.61178044634E-02  0.16378494575E+00  0.16389988050E+00  0.00000000000E+00 0. -1.
<mgrwt>
<rscale>  1 0.61647829E+03</rscale>
<asrwt>0</asrwt>
<pdfrwt beam="1">  1        1 0.34609243E+00 0.61647829E+03</pdfrwt>
<pdfrwt beam="2">0</pdfrwt>
<totfact> 0.23240776E+00</totfact>
</mgrwt>
</event>
<event>
 6    1  0.3167183E-003  0.6211591E+03  0.7818608E-02  0.9862455E-01
          1   -1    0    0  502    0  0.00000000000E+00  0.00000000000E+00  0.96459694606E+02  0.96459694606E+02  0.00000000000E+00 0.  1.
         13   -1    0    0    0    0 -0.00000000000E+00 -0.00000000000E+00 -0.10000000000E+04  0.10000000000E+04  0.00000000000E+00 0.  1.
    9000005    2    1    2  501    0 -0.88052218246E-05 -0.10264191985E-04 -0.90354034646E+03  0.10964596514E+04  0.62115908541E+03 0.  0.
         13    1    3    3    0    0  0.10318367189E+03 -0.27649191900E+03 -0.28094819046E+03  0.40746354087E+03  0.00000000000E+00 0.  1.
          1    1    3    3  501    0 -0.10318368070E+03  0.27649190874E+03 -0.62259215600E+03  0.68899611049E+03  0.00000000000E+00 0.  1.
         21    1    1    2  502  501  0.88052218218E-05  0.10264191959E-04  0.41069954579E-04  0.43239180578E-04  0.00000000000E+00 0. -1.
<mgrwt>
<rscale>  1 0.62115909E+03</rscale>
<asrwt>0</asrwt>
<pdfrwt beam="1">  1        1 0.35076327E+00 0.62115909E+03</pdfrwt>
<pdfrwt beam="2">0</pdfrwt>
<totfact> 0.22158796E+00</totfact>
</mgrwt>
</event>
<event>
 6    1  0.3167183E-003  0.6570618E+03  0.7818608E-02  0.9793618E-01
          3   -1    0    0  502    0  0.00000000000E+00  0.00000000000E+00  0.10793285375E+03  0.10793285375E+03  0.00000000000E+00 0.  1.
         13   -1    0    0    0    0 -0.00000000000E+00 -0.00000000000E+00 -0.10000000000E+04  0.10000000000E+04  0.00000000000E+00 0.  1.
    9000005    2    1    2  501    0 -0.74547670010E-05 -0.11769399076E-03 -0.89206742826E+03  0.11079325481E+04  0.65706181941E+03 0.  0.
         13    1    3    3    0    0  0.30490416623E+03  0.87126931665E+02 -0.59083915561E+03  0.67055839463E+03  0.00000000000E+00 0.  1.
          3    1    3    3  501    0 -0.30490417368E+03 -0.87127049359E+02 -0.30122827265E+03  0.43737415345E+03  0.00000000000E+00 0.  1.
         21    1    1    2  502  501  0.74547670053E-05  0.11769399076E-03  0.28200429064E-03  0.30566954207E-03  0.00000000000E+00 0.  1.
<mgrwt>
<rscale>  1 0.65706182E+03</rscale>
<asrwt>0</asrwt>
<pdfrwt beam="1">  1        3 0.39248393E+00 0.65706182E+03</pdfrwt>
<pdfrwt beam="2">0</pdfrwt>
<totfact> 0.64793424E-02</totfact>
</mgrwt>
</event>
<event>
 6    1  0.3167183E-003  0.6569691E+03  0.7818608E-02  0.9793789E-01
          1   -1    0    0  502    0  0.00000000000E+00  0.00000000000E+00  0.10790211153E+03  0.10790211153E+03  0.00000000000E+00 0.  1.
         13   -1    0    0    0    0 -0.00000000000E+00 -0.00000000000E+00 -0.10000000000E+04  0.10000000000E+04  0.00000000000E+00 0.  1.
    9000005    2    1    2  501    0 -0.12043158506E-05 -0.86950311555E-05 -0.89209791263E+03  0.11079020858E+04  0.65696906019E+03 0.  0.
         13    1    3    3    0    0 -0.24485514421E+03 -0.69111560992E+02 -0.95655712573E+02  0.27180961142E+03  0.00000000000E+00 0.  1.
          1    1    3    3  501    0  0.24485514301E+03  0.69111552297E+02 -0.79644220006E+03  0.83609247441E+03  0.00000000000E+00 0.  1.
         21    1    1    2  502  501  0.12043158422E-05  0.86950311483E-05  0.24160215129E-04  0.25705445696E-04  0.00000000000E+00 0.  1.
<mgrwt>
<rscale>  1 0.65696906E+03</rscale>
<asrwt>0</asrwt>
<pdfrwt beam="1">  1        1 0.39237214E+00 0.65696906E+03</pdfrwt>
<pdfrwt beam="2">0</pdfrwt>
<totfact> 0.14447088E+00</totfact>
</mgrwt>
</event>
<event>
 6    1  0.3167183E-003  0.7018982E+03  0.7818608E-02  0.9713991E-01
          1   -1    0    0  502    0  0.00000000000E+00  0.00000000000E+00  0.12412291685E+03  0.12412291685E+03  0.00000000000E+00 0.  1.
         13   -1    0    0    0    0 -0.00000000000E+00 -0.00000000000E+00 -0.10000000000E+04  0.10000000000E+04  0.00000000000E+00 0.  1.
    9000005    2    1    2  501    0 -0.14318255334E-01 -0.69974327604E-02 -0.87683464525E+03  0.11231652221E+04  0.70189822686E+03 0.  0.
         13    1    3    3    0    0 -0.25375822876E+03  0.22317158941E+03 -0.58996221535E+03  0.67989279487E+03  0.00000000000E+00 0.  1.
          1    1    3    3  501    0  0.25374391050E+03 -0.22317858684E+03 -0.28687242990E+03  0.44327242727E+03  0.00000000000E+00 0.  1.
         21    1    1    2  502  501  0.14318255334E-01  0.69974327604E-02  0.95756210144E+00  0.95769470846E+00  0.00000000000E+00 0.  1.
<mgrwt>
<rscale>  1 0.70189823E+03</rscale>
<asrwt>0</asrwt>
<pdfrwt beam="1">  1        1 0.45135701E+00 0.70189823E+03</pdfrwt>
<pdfrwt beam="2">0</pdfrwt>
<totfact> 0.77494488E-01</totfact>
</mgrwt>
</event>
<event>
 6    1  0.3167183E-003  0.6516863E+03  0.7818608E-02  0.9803620E-01
          1   -1    0    0  502    0  0.00000000000E+00  0.00000000000E+00  0.10617377777E+03  0.10617377777E+03  0.00000000000E+00 0.  1.
         13   -1    0    0    0    0 -0.00000000000E+00 -0.00000000000E+00 -0.10000000000E+04  0.10000000000E+04  0.00000000000E+00 0.  1.
    9000005    2    1    2  501    0 -0.50468795507E-05 -0.22018020331E-05 -0.89382622722E+03  0.11061737703E+04  0.65168633998E+03 0.  0.
         13    1    3    3    0    0 -0.27077289648E+03  0.17793156604E+03 -0.38820732209E+03  0.50565059931E+03  0.00000000000E+00 0.  1.
          1    1    3    3  501    0  0.27077289143E+03 -0.17793156824E+03 -0.50561890513E+03  0.60052317102E+03  0.00000000000E+00 0.  1.
         21    1    1    2  502  501  0.50468795298E-05  0.22018020101E-05  0.49909304392E-05  0.74315753195E-05  0.00000000000E+00 0.  1.
<mgrwt>
<rscale>  1 0.65168634E+03</rscale>
<asrwt>0</asrwt>
<pdfrwt beam="1">  1        1 0.38608728E+00 0.65168634E+03</pdfrwt>
<pdfrwt beam="2">0</pdfrwt>
<totfact> 0.15419359E+00</totfact>
</mgrwt>
</event>
<event>
 6    1  0.3167183E-003  0.6628191E+03  0.7818608E-02  0.9783018E-01
          1   -1    0    0  502    0  0.00000000000E+00  0.00000000000E+00  0.11009836743E+03  0.11009836743E+03  0.00000000000E+00 0.  1.
         13   -1    0    0    0    0 -0.00000000000E+00 -0.00000000000E+00 -0.10000000000E+04  0.10000000000E+04  0.00000000000E+00 0.  1.
    9000005    2    1    2  501    0  0.77475719534E-01  0.34590027390E+00 -0.89002961283E+03  0.11097215008E+04  0.66281895872E+03 0.  0.
         13    1    3    3    0    0  0.29198186474E+03 -0.15650111593E+03 -0.45733266686E+03  0.56471158728E+03  0.00000000000E+00 0.  1.
          3    1    3    3  501    0 -0.29190438902E+03  0.15684701620E+03 -0.43269694597E+03  0.54500991356E+03  0.00000000000E+00 0.  1.
         21    1    1    2  502  501 -0.77475719534E-01 -0.34590027390E+00  0.12798025805E+00  0.37686659849E+00  0.00000000000E+00 0.  1.
<mgrwt>
<rscale>  1 0.66281905E+03</rscale>
<asrwt>0</asrwt>
<pdfrwt beam="1">  1        1 0.40035854E+00 0.66281905E+03</pdfrwt>
<pdfrwt beam="2">0</pdfrwt>
<totfact> 0.13297358E+00</totfact>
</mgrwt>
</event>
<event>
 6    1  0.3167183E-003  0.5059168E+03  0.7818608E-02  0.1012246E+00
          1   -1    0    0  502    0  0.00000000000E+00  0.00000000000E+00  0.64002089411E+02  0.64002089411E+02  0.00000000000E+00 0.  1.
         13   -1    0    0    0    0 -0.00000000000E+00 -0.00000000000E+00 -0.10000000000E+04  0.10000000000E+04  0.00000000000E+00 0.  1.
    9000005    2    1    2  501    0 -0.70482403504E-03  0.91575732495E-03 -0.93601203399E+03  0.10639879188E+04  0.50591675559E+03 0.  0.
         13    1    3    3    0    0  0.27673570900E+02  0.10923660620E+03 -0.94429702621E+03  0.95099702227E+03  0.00000000000E+00 0.  1.
          3    1    3    3  501    0 -0.27674275724E+02 -0.10923569045E+03  0.82849922174E+01  0.11299089654E+03  0.00000000000E+00 0.  1.
         21    1    1    2  502  501  0.70482403503E-03 -0.91575732494E-03  0.14123404862E-01  0.14170601727E-01  0.00000000000E+00 0. -1.
<mgrwt>
<rscale>  1 0.50591676E+03</rscale>
<asrwt>0</asrwt>
<pdfrwt beam="1">  1        1 0.23273536E+00 0.50591676E+03</pdfrwt>
<pdfrwt beam="2">0</pdfrwt>
<totfact> 0.73402450E+00</totfact>
</mgrwt>
</event>
<event>
 6    1  0.3167183E-003  0.6445381E+03  0.7818608E-02  0.9817082E-01
          3   -1    0    0  502    0  0.00000000000E+00  0.00000000000E+00  0.10389269295E+03  0.10389269295E+03  0.00000000000E+00 0.  1.
         13   -1    0    0    0    0 -0.00000000000E+00 -0.00000000000E+00 -0.10000000000E+04  0.10000000000E+04  0.00000000000E+00 0.  1.
    9000005    2    1    2  501    0 -0.18193668704E-03 -0.12766297537E-02 -0.89614263169E+03  0.11038573448E+04  0.64453814573E+03 0.  0.
         13    1    3    3    0    0  0.12771581726E+03  0.91892702681E+02 -0.92974922713E+03  0.94296830494E+03  0.00000000000E+00 0.  1.
          3    1    3    3  501    0 -0.12771599919E+03 -0.91893979311E+02  0.33606595437E+02  0.16088903984E+03  0.00000000000E+00 0.  1.
         21    1    1    2  502  501  0.18193668704E-03  0.12766297537E-02  0.35324639868E-01  0.35348169207E-01  0.00000000000E+00 0.  1.
<mgrwt>
<rscale>  1 0.64453815E+03</rscale>
<asrwt>0</asrwt>
<pdfrwt beam="1">  1        3 0.37779241E+00 0.64453815E+03</pdfrwt>
<pdfrwt beam="2">0</pdfrwt>
<totfact> 0.77604036E-02</totfact>
</mgrwt>
</event>
<event>
 6    1  0.3167183E-003  0.7283189E+03  0.7818608E-02  0.9669992E-01
          1   -1    0    0  502    0  0.00000000000E+00  0.00000000000E+00  0.13796701085E+03  0.13796701085E+03  0.00000000000E+00 0.  1.
         13   -1    0    0    0    0 -0.00000000000E+00 -0.00000000000E+00 -0.10000000000E+04  0.10000000000E+04  0.00000000000E+00 0.  1.
    9000005    2    1    2  501    0 -0.29148327438E+00 -0.25568856198E+00 -0.86737994319E+03  0.11326060168E+04  0.72831879916E+03 0.  0.
         13    1    3    3    0    0 -0.36342111346E+03  0.22743255120E+02 -0.41681803172E+03  0.55347035415E+03  0.00000000000E+00 0.  1.
          3    1    3    3  501    0  0.36312963019E+03 -0.22998943682E+02 -0.45056191148E+03  0.57913566269E+03  0.00000000000E+00 0.  1.
         21    1    1    2  502  501  0.29148327438E+00  0.25568856198E+00  0.53469540414E+01  0.53609939994E+01  0.00000000000E+00 0.  1.
<mgrwt>
<rscale>  1 0.72831890E+03</rscale>
<asrwt>0</asrwt>
<pdfrwt beam="1">  1        1 0.50169928E+00 0.72831890E+03</pdfrwt>
<pdfrwt beam="2">0</pdfrwt>
<totfact> 0.44614299E-01</totfact>
</mgrwt>
</event>
<event>
 6    1  0.3167183E-003  0.6548929E+03  0.7818608E-02  0.9797641E-01
          1   -1    0    0  502    0  0.00000000000E+00  0.00000000000E+00  0.10807940137E+03  0.10807940137E+03  0.00000000000E+00 0.  1.
         13   -1    0    0    0    0 -0.00000000000E+00 -0.00000000000E+00 -0.10000000000E+04  0.10000000000E+04  0.00000000000E+00 0.  1.
    9000005    2    1    2  501    0  0.10336264025E-01  0.84415482551E-01 -0.89277649080E+03  0.11072192943E+04  0.65489288883E+03 0.  0.
         13    1    3    3    0    0  0.17124594541E+03  0.27787039211E+03 -0.49146740222E+03  0.58998079297E+03  0.00000000000E+00 0.  1.
          3    1    3    3  501    0 -0.17123560914E+03 -0.27778597662E+03 -0.40130908858E+03  0.51723850130E+03  0.00000000000E+00 0.  1.
         21    1    1    2  502  501 -0.10336264025E-01 -0.84415482551E-01  0.85589217564E+00  0.86010710285E+00  0.00000000000E+00 0. -1.
<mgrwt>
<rscale>  1 0.65489289E+03</rscale>
<asrwt>0</asrwt>
<pdfrwt beam="1">  1        1 0.39301683E+00 0.65489289E+03</pdfrwt>
<pdfrwt beam="2">0</pdfrwt>
<totfact> 0.14357705E+00</totfact>
</mgrwt>
</event>
<event>
 6    1  0.3167183E-003  0.6491320E+03  0.7818608E-02  0.9808409E-01
          1   -1    0    0  502    0  0.00000000000E+00  0.00000000000E+00  0.10534870676E+03  0.10534870676E+03  0.00000000000E+00 0.  1.
         13   -1    0    0    0    0 -0.00000000000E+00 -0.00000000000E+00 -0.10000000000E+04  0.10000000000E+04  0.00000000000E+00 0.  1.
    9000005    2    1    2  501    0  0.10375239077E-03  0.15399289640E-03 -0.89465691370E+03  0.11053430832E+04  0.64913198844E+03 0.  0.
         13    1    3    3    0    0  0.24813374807E+02  0.31799450159E+03 -0.54959495404E+03  0.63544537146E+03  0.00000000000E+00 0.  1.
          3    1    3    3  501    0 -0.24813271054E+02 -0.31799434759E+03 -0.34506195966E+03  0.46989771177E+03  0.00000000000E+00 0.  1.
         21    1    1    2  502  501 -0.10375239077E-03 -0.15399289638E-03  0.56204557238E-02  0.56235221093E-02  0.00000000000E+00 0.  1.
<mgrwt>
<rscale>  1 0.64913199E+03</rscale>
<asrwt>0</asrwt>
<pdfrwt beam="1">  1        1 0.38308701E+00 0.64913199E+03</pdfrwt>
<pdfrwt beam="2">0</pdfrwt>
<totfact> 0.15905204E+00</totfact>
</mgrwt>
</event>
<event>
 6    1  0.3167183E-003  0.5328604E+03  0.7818608E-02  0.1005541E+00
          1   -1    0    0  502    0  0.00000000000E+00  0.00000000000E+00  0.70988566535E+02  0.70988566535E+02  0.00000000000E+00 0.  1.
         13   -1    0    0    0    0 -0.00000000000E+00 -0.00000000000E+00 -0.10000000000E+04  0.10000000000E+04  0.00000000000E+00 0.  1.
    9000005    2    1    2  501    0  0.10630503849E-02  0.77329420037E-04 -0.92901486147E+03  0.10709849766E+04  0.53286040138E+03 0.  0.
         13    1    3    3    0    0 -0.12196281465E+03 -0.14740183289E+03 -0.91823775714E+02  0.21221176754E+03  0.00000000000E+00 0.  1.
          1    1    3    3  501    0  0.12196387770E+03  0.14740191021E+03 -0.83719108576E+03  0.85877320911E+03  0.00000000000E+00 0.  1.
         21    1    1    2  502  501 -0.10630503849E-02 -0.77329420037E-04  0.34280098192E-02  0.35898895917E-02  0.00000000000E+00 0. -1.
<mgrwt>
<rscale>  1 0.53286040E+03</rscale>
<asrwt>0</asrwt>
<pdfrwt beam="1">  1        1 0.25814079E+00 0.53286040E+03</pdfrwt>
<pdfrwt beam="2">0</pdfrwt>
<totfact> 0.56615154E+00</totfact>
</mgrwt>
</event>
<event>
 6    1  0.3167183E-003  0.6345166E+03  0.7818608E-02  0.9836274E-01
          1   -1    0    0  502    0  0.00000000000E+00  0.00000000000E+00  0.10066781303E+03  0.10066781303E+03  0.00000000000E+00 0.  1.
         13   -1    0    0    0    0 -0.00000000000E+00 -0.00000000000E+00 -0.10000000000E+04  0.10000000000E+04  0.00000000000E+00 0.  1.
    9000005    2    1    2  501    0 -0.47659804010E-02 -0.23988731219E-01 -0.89933532011E+03  0.11006431556E+04  0.63451661706E+03 0.  0.
         13    1    3    3    0    0  0.13335377304E+03  0.28785092856E+03 -0.45307980105E+03  0.55310278608E+03  0.00000000000E+00 0.  1.
          3    1    3    3  501    0 -0.13335853902E+03 -0.28787491729E+03 -0.44625551906E+03  0.54754036949E+03  0.00000000000E+00 0.  1.
         21    1    1    2  502  501  0.47659804010E-02  0.23988731219E-01  0.31331390834E-02  0.24657460437E-01  0.00000000000E+00 0. -1.
<mgrwt>
<rscale>  1 0.63451662E+03</rscale>
<asrwt>0</asrwt>
<pdfrwt beam="1">  1        1 0.36606555E+00 0.63451662E+03</pdfrwt>
<pdfrwt beam="2">0</pdfrwt>
<totfact> 0.18950234E+00</totfact>
</mgrwt>
</event>
<event>
 6    1  0.3167183E-003  0.6475392E+03  0.7818608E-02  0.9811408E-01
          1   -1    0    0  502    0  0.00000000000E+00  0.00000000000E+00  0.10666116318E+03  0.10666116318E+03  0.00000000000E+00 0.  1.
         13   -1    0    0    0    0 -0.00000000000E+00 -0.00000000000E+00 -0.10000000000E+04  0.10000000000E+04  0.00000000000E+00 0.  1.
    9000005    2    1    2  501    0 -0.15559226249E+01 -0.49491150054E+00 -0.89476314879E+03  0.11044944843E+04  0.64753710910E+03 0.  0.
         13    1    3    3    0    0 -0.68179700413E+01  0.15480044277E+03 -0.93193241005E+03  0.94472624537E+03  0.00000000000E+00 0.  1.
          1    1    3    3  501    0  0.52620474163E+01 -0.15529535427E+03  0.37169261252E+02  0.15976823897E+03  0.00000000000E+00 0.  1.
         21    1    1    2  502  501  0.15559226249E+01  0.49491150054E+00  0.14243119777E+01  0.21666788452E+01  0.00000000000E+00 0. -1.
<mgrwt>
<rscale>  1 0.64753917E+03</rscale>
<asrwt>0</asrwt>
<pdfrwt beam="1">  1        1 0.38785959E+00 0.64753917E+03</pdfrwt>
<pdfrwt beam="2">0</pdfrwt>
<totfact> 0.15154931E+00</totfact>
</mgrwt>
</event>
<event>
 6    1  0.3167183E-003  0.6488072E+03  0.7818608E-02  0.9809020E-01
          1   -1    0    0  502    0  0.00000000000E+00  0.00000000000E+00  0.10973192667E+03  0.10973192667E+03  0.00000000000E+00 0.  1.
         13   -1    0    0    0    0 -0.00000000000E+00 -0.00000000000E+00 -0.10000000000E+04  0.10000000000E+04  0.00000000000E+00 0.  1.
    9000005    2    1    2  501    0  0.21757003890E+01  0.14842685312E+01 -0.89433186829E+03  0.11048892874E+04  0.64880190361E+03 0.  0.
         13    1    3    3    0    0 -0.98180040824E+01 -0.13387325785E+03  0.55596448992E+02  0.14529076885E+03  0.00000000000E+00 0.  1.
          3    1    3    3  501    0  0.11993704471E+02  0.13535752638E+03 -0.94992831728E+03  0.95959851859E+03  0.00000000000E+00 0.  1.
         21    1    1    2  502  501 -0.21757003890E+01 -0.14842685312E+01  0.40637949635E+01  0.48426392351E+01  0.00000000000E+00 0. -1.
<mgrwt>
<rscale>  1 0.64880725E+03</rscale>
<asrwt>0</asrwt>
<pdfrwt beam="1">  1        1 0.39902603E+00 0.64880725E+03</pdfrwt>
<pdfrwt beam="2">0</pdfrwt>
<totfact> 0.13516163E+00</totfact>
</mgrwt>
</event>
<event>
 6    1  0.3167183E-003  0.6511212E+03  0.7818608E-02  0.9804678E-01
          1   -1    0    0  502    0  0.00000000000E+00  0.00000000000E+00  0.10599176226E+03  0.10599176226E+03  0.00000000000E+00 0.  1.
         13   -1    0    0    0    0 -0.00000000000E+00 -0.00000000000E+00 -0.10000000000E+04  0.10000000000E+04  0.00000000000E+00 0.  1.
    9000005    2    1    2  501    0 -0.26698638680E-02 -0.10297389052E-02 -0.89400911055E+03  0.11059887705E+04  0.65112124126E+03 0.  0.
         13    1    3    3    0    0  0.31347587982E+03 -0.25401383592E+02 -0.58989211821E+03  0.66849462873E+03  0.00000000000E+00 0.  1.
          3    1    3    3  501    0 -0.31347854969E+03  0.25400353853E+02 -0.30411699235E+03  0.43749414182E+03  0.00000000000E+00 0.  1.
         21    1    1    2  502  501  0.26698638680E-02  0.10297389052E-02  0.87281148194E-03  0.29917110772E-02  0.00000000000E+00 0.  1.
<mgrwt>
<rscale>  1 0.65112124E+03</rscale>
<asrwt>0</asrwt>
<pdfrwt beam="1">  1        1 0.38542540E+00 0.65112124E+03</pdfrwt>
<pdfrwt beam="2">0</pdfrwt>
<totfact> 0.15525316E+00</totfact>
</mgrwt>
</event>
<event>
 6    1  0.3167183E-003  0.6076200E+03  0.7818608E-02  0.9889722E-01
          1   -1    0    0  502    0  0.00000000000E+00  0.00000000000E+00  0.92301524100E+02  0.92301524100E+02  0.00000000000E+00 0.  1.
         13   -1    0    0    0    0 -0.00000000000E+00 -0.00000000000E+00 -0.10000000000E+04  0.10000000000E+04  0.00000000000E+00 0.  1.
    9000005    2    1    2  501    0 -0.15596094909E-02 -0.22085864630E-02 -0.90769704019E+03  0.10922984628E+04  0.60761995942E+03 0.  0.
         13    1    3    3    0    0 -0.12612266185E+03  0.33272448349E+02 -0.94710015207E+03  0.95604010361E+03  0.00000000000E+00 0.  1.
          3    1    3    3  501    0  0.12612110224E+03 -0.33274656936E+02  0.39403111886E+02  0.13625835920E+03  0.00000000000E+00 0.  1.
         21    1    1    2  502  501  0.15596094909E-02  0.22085864630E-02 -0.14357129976E-02  0.30612918417E-02  0.00000000000E+00 0.  1.
<mgrwt>
<rscale>  1 0.60761996E+03</rscale>
<asrwt>0</asrwt>
<pdfrwt beam="1">  1        1 0.33564261E+00 0.60761996E+03</pdfrwt>
<pdfrwt beam="2">0</pdfrwt>
<totfact> 0.25842431E+00</totfact>
</mgrwt>
</event>
<event>
 6    1  0.3167183E-003  0.5974539E+03  0.7818608E-02  0.9910702E-01
          1   -1    0    0  502    0  0.00000000000E+00  0.00000000000E+00  0.89283666714E+02  0.89283666714E+02  0.00000000000E+00 0.  1.
         13   -1    0    0    0    0 -0.00000000000E+00 -0.00000000000E+00 -0.10000000000E+04  0.10000000000E+04  0.00000000000E+00 0.  1.
    9000005    2    1    2  501    0 -0.28507495252E-02  0.17623199343E-03 -0.91076214599E+03  0.10892377651E+04  0.59745394990E+03 0.  0.
         13    1    3    3    0    0  0.27651605692E+03  0.18131895837E+02 -0.25197821168E+03  0.37454360833E+03  0.00000000000E+00 0.  1.
          3    1    3    3  501    0 -0.27651890767E+03 -0.18131719605E+02 -0.65878393432E+03  0.71469415673E+03  0.00000000000E+00 0.  1.
         21    1    1    2  502  501  0.28507495252E-02 -0.17623199343E-03  0.45812706921E-01  0.45901655155E-01  0.00000000000E+00 0.  1.
<mgrwt>
<rscale>  1 0.59745395E+03</rscale>
<asrwt>0</asrwt>
<pdfrwt beam="1">  1        1 0.32466856E+00 0.59745395E+03</pdfrwt>
<pdfrwt beam="2">0</pdfrwt>
<totfact> 0.28883562E+00</totfact>
</mgrwt>
</event>
<event>
 6    1  0.3167183E-003  0.6684790E+03  0.7818608E-02  0.9772709E-01
          1   -1    0    0  502    0  0.00000000000E+00  0.00000000000E+00  0.11171608608E+03  0.11171608608E+03  0.00000000000E+00 0.  1.
         13   -1    0    0    0    0 -0.00000000000E+00 -0.00000000000E+00 -0.10000000000E+04  0.10000000000E+04  0.00000000000E+00 0.  1.
    9000005    2    1    2  501    0 -0.11441422387E-05 -0.35414066701E-05 -0.88828394044E+03  0.11117160593E+04  0.66847904803E+03 0.  0.
         13    1    3    3    0    0  0.54930809865E+02 -0.31221150666E+03 -0.26796318016E+03  0.41508756267E+03  0.00000000000E+00 0.  1.
          3    1    3    3  501    0 -0.54930811009E+02  0.31221150312E+03 -0.62032076028E+03  0.69662849663E+03  0.00000000000E+00 0.  1.
         21    1    1    2  502  501  0.11441422364E-05  0.35414066855E-05  0.26525402835E-04  0.26785212680E-04  0.00000000000E+00 0.  1.
<mgrwt>
<rscale>  1 0.66847905E+03</rscale>
<asrwt>0</asrwt>
<pdfrwt beam="1">  1        1 0.40624117E+00 0.66847905E+03</pdfrwt>
<pdfrwt beam="2">0</pdfrwt>
<totfact> 0.12503205E+00</totfact>
</mgrwt>
</event>
<event>
 6    1  0.3167183E-003  0.6598958E+03  0.7818608E-02  0.9788386E-01
          1   -1    0    0  502    0  0.00000000000E+00  0.00000000000E+00  0.10893115052E+03  0.10893115052E+03  0.00000000000E+00 0.  1.
         13   -1    0    0    0    0 -0.00000000000E+00 -0.00000000000E+00 -0.10000000000E+04  0.10000000000E+04  0.00000000000E+00 0.  1.
    9000005    2    1    2  501    0 -0.87480646728E-02 -0.50993788885E-03 -0.89113407209E+03  0.11088653419E+04  0.65989575837E+03 0.  0.
         13    1    3    3    0    0 -0.14179336644E+03  0.72179871497E+02 -0.93128351362E+03  0.94477736814E+03  0.00000000000E+00 0.  1.
          3    1    3    3  501    0  0.14178461837E+03 -0.72180381435E+02  0.40149441531E+02  0.16408797374E+03  0.00000000000E+00 0.  1.
         21    1    1    2  502  501  0.87480646728E-02  0.50993788885E-03  0.65222601107E-01  0.65808634444E-01  0.00000000000E+00 0.  1.
<mgrwt>
<rscale>  1 0.65989576E+03</rscale>
<asrwt>0</asrwt>
<pdfrwt beam="1">  1        1 0.39611411E+00 0.65989576E+03</pdfrwt>
<pdfrwt beam="2">0</pdfrwt>
<totfact> 0.13896672E+00</totfact>
</mgrwt>
</event>
<event>
 6    1  0.3167183E-003  0.6828597E+03  0.7818608E-02  0.9747002E-01
          1   -1    0    0  502    0  0.00000000000E+00  0.00000000000E+00  0.11657443045E+03  0.11657443045E+03  0.00000000000E+00 0.  1.
         13   -1    0    0    0    0 -0.00000000000E+00 -0.00000000000E+00 -0.10000000000E+04  0.10000000000E+04  0.00000000000E+00 0.  1.
    9000005    2    1    2  501    0  0.83719376676E-06 -0.85622445738E-05 -0.88342567288E+03  0.11165743268E+04  0.68285965444E+03 0.  0.
         13    1    3    3    0    0  0.90677029542E+02 -0.11179874028E+03 -0.94795596886E+03  0.95882313327E+03  0.00000000000E+00 0.  1.
          3    1    3    3  501    0 -0.90677028705E+02  0.11179873171E+03  0.64530295970E+02  0.15775119348E+03  0.00000000000E+00 0.  1.
         21    1    1    2  502  501 -0.83719377395E-06  0.85622445776E-05  0.10333690724E-03  0.10369440353E-03  0.00000000000E+00 0.  1.
<mgrwt>
<rscale>  1 0.68285965E+03</rscale>
<asrwt>0</asrwt>
<pdfrwt beam="1">  1        1 0.42390791E+00 0.68285965E+03</pdfrwt>
<pdfrwt beam="2">0</pdfrwt>
<totfact> 0.10383147E+00</totfact>
</mgrwt>
</event>
<event>
 6    1  0.3167183E-003  0.6473960E+03  0.7818608E-02  0.9811678E-01
          1   -1    0    0  502    0  0.00000000000E+00  0.00000000000E+00  0.10859576623E+03  0.10859576623E+03  0.00000000000E+00 0.  1.
         13   -1    0    0    0    0 -0.00000000000E+00 -0.00000000000E+00 -0.10000000000E+04  0.10000000000E+04  0.00000000000E+00 0.  1.
    9000005    2    1    2  501    0 -0.75211877300E+00  0.21329451900E+00 -0.89517530123E+03  0.11047445162E+04  0.64739556294E+03 0.  0.
         13    1    3    3    0    0 -0.22492993474E+03 -0.25109174988E+02 -0.52424608836E+02  0.23231936170E+03  0.00000000000E+00 0.  1.
          3    1    3    3  501    0  0.22417781596E+03  0.25322469507E+02 -0.84275069239E+03  0.87242515448E+03  0.00000000000E+00 0.  1.
         21    1    1    2  502  501  0.75211877300E+00 -0.21329451900E+00  0.37710674633E+01  0.38512500586E+01  0.00000000000E+00 0. -1.
<mgrwt>
<rscale>  1 0.64739603E+03</rscale>
<asrwt>0</asrwt>
<pdfrwt beam="1">  1        1 0.39489453E+00 0.64739603E+03</pdfrwt>
<pdfrwt beam="2">0</pdfrwt>
<totfact> 0.14104366E+00</totfact>
</mgrwt>
</event>
<event>
 6    1  0.3167183E-003  0.5552515E+03  0.7818608E-02  0.1000286E+00
          1   -1    0    0  502    0  0.00000000000E+00  0.00000000000E+00  0.77122010627E+02  0.77122010627E+02  0.00000000000E+00 0.  1.
         13   -1    0    0    0    0 -0.00000000000E+00 -0.00000000000E+00 -0.10000000000E+04  0.10000000000E+04  0.00000000000E+00 0.  1.
    9000005    2    1    2  501    0 -0.79518472884E-03  0.81817947732E-02 -0.92292354446E+03  0.10770757198E+04  0.55525150806E+03 0.  0.
         13    1    3    3    0    0 -0.24521871969E+03 -0.23524990153E+02 -0.21311903350E+03  0.32573818948E+03  0.00000000000E+00 0.  1.
          1    1    3    3  501    0  0.24521792451E+03  0.23533171948E+02 -0.70980451097E+03  0.75133753032E+03  0.00000000000E+00 0.  1.
         21    1    1    2  502  501  0.79518472884E-03 -0.81817947732E-02  0.45555088586E-01  0.46290821774E-01  0.00000000000E+00 0.  1.
<mgrwt>
<rscale>  1 0.55525151E+03</rscale>
<asrwt>0</asrwt>
<pdfrwt beam="1">  1        1 0.28044427E+00 0.55525151E+03</pdfrwt>
<pdfrwt beam="2">0</pdfrwt>
<totfact> 0.45164066E+00</totfact>
</mgrwt>
</event>
<event>
 6    1  0.3167183E-003  0.6543896E+03  0.7818608E-02  0.9798577E-01
          1   -1    0    0  502    0  0.00000000000E+00  0.00000000000E+00  0.10705766238E+03  0.10705766238E+03  0.00000000000E+00 0.  1.
         13   -1    0    0    0    0 -0.00000000000E+00 -0.00000000000E+00 -0.10000000000E+04  0.10000000000E+04  0.00000000000E+00 0.  1.
    9000005    2    1    2  501    0 -0.10159171566E-02  0.60313380664E-03 -0.89294325183E+03  0.11070561685E+04  0.65438956993E+03 0.  0.
         13    1    3    3    0    0 -0.29266562619E+03 -0.96622656497E+02 -0.26063048912E+03  0.40363022479E+03  0.00000000000E+00 0.  1.
          1    1    3    3  501    0  0.29266461028E+03  0.96623259631E+02 -0.63231276271E+03  0.70342594372E+03  0.00000000000E+00 0.  1.
         21    1    1    2  502  501  0.10159171565E-02 -0.60313380664E-03  0.91421413838E-03  0.14938693211E-02  0.00000000000E+00 0.  1.
<mgrwt>
<rscale>  1 0.65438957E+03</rscale>
<asrwt>0</asrwt>
<pdfrwt beam="1">  1        1 0.38930141E+00 0.65438957E+03</pdfrwt>
<pdfrwt beam="2">0</pdfrwt>
<totfact> 0.14914625E+00</totfact>
</mgrwt>
</event>
<event>
 6    1  0.3167183E-003  0.6571521E+03  0.7818608E-02  0.9793451E-01
          3   -1    0    0  502    0  0.00000000000E+00  0.00000000000E+00  0.10799437745E+03  0.10799437745E+03  0.00000000000E+00 0.  1.
         13   -1    0    0    0    0 -0.00000000000E+00 -0.00000000000E+00 -0.10000000000E+04  0.10000000000E+04  0.00000000000E+00 0.  1.
    9000005    2    1    2  501    0 -0.92518255085E-01  0.15004805356E-01 -0.89192016934E+03  0.11078675428E+04  0.65715210961E+03 0.  0.
         13    1    3    3    0    0 -0.10051607714E+03 -0.67968512684E+02 -0.96077898389E+03  0.96841078906E+03  0.00000000000E+00 0.  1.
          3    1    3    3  501    0  0.10042355888E+03  0.67983517489E+02  0.68858814548E+02  0.13945675376E+03  0.00000000000E+00 0.  1.
         21    1    1    2  502  501  0.92518255085E-01 -0.15004805356E-01 -0.85453213224E-01  0.12683462996E+00  0.00000000000E+00 0. -1.
<mgrwt>
<rscale>  1 0.65715212E+03</rscale>
<asrwt>0</asrwt>
<pdfrwt beam="1">  1        3 0.39270766E+00 0.65715212E+03</pdfrwt>
<pdfrwt beam="2">0</pdfrwt>
<totfact> 0.64617253E-02</totfact>
</mgrwt>
</event>
<event>
 6    1  0.3167183E-003  0.6321314E+03  0.7818608E-02  0.9840898E-01
          1   -1    0    0  502    0  0.00000000000E+00  0.00000000000E+00  0.99931511238E+02  0.99931511238E+02  0.00000000000E+00 0.  1.
         13   -1    0    0    0    0 -0.00000000000E+00 -0.00000000000E+00 -0.10000000000E+04  0.10000000000E+04  0.00000000000E+00 0.  1.
    9000005    2    1    2  501    0  0.69649289481E-01 -0.16584255769E-01 -0.90005500711E+03  0.10998586565E+04  0.63213134971E+03 0.  0.
         13    1    3    3    0    0  0.11047591495E+01 -0.29128825559E+03 -0.23657109098E+03  0.37525451286E+03  0.00000000000E+00 0.  1.
          3    1    3    3  501    0 -0.10351098600E+01  0.29127167134E+03 -0.66348391613E+03  0.72460414362E+03  0.00000000000E+00 0.  1.
         21    1    1    2  502  501 -0.69649289481E-01  0.16584255769E-01 -0.13481651775E-01  0.72854759620E-01  0.00000000000E+00 0. -1.
<mgrwt>
<rscale>  1 0.63213135E+03</rscale>
<asrwt>0</asrwt>
<pdfrwt beam="1">  1        1 0.36338808E+00 0.63213135E+03</pdfrwt>
<pdfrwt beam="2">0</pdfrwt>
<totfact> 0.19477565E+00</totfact>
</mgrwt>
</event>
<event>
 6    1  0.3167183E-003  0.6164816E+03  0.7818608E-02  0.9871790E-01
          1   -1    0    0  502    0  0.00000000000E+00  0.00000000000E+00  0.95012402034E+02  0.95012402034E+02  0.00000000000E+00 0.  1.
         13   -1    0    0    0    0 -0.00000000000E+00 -0.00000000000E+00 -0.10000000000E+04  0.10000000000E+04  0.00000000000E+00 0.  1.
    9000005    2    1    2  501    0  0.35457749412E-05  0.48944076241E-05 -0.90498761428E+03  0.10950123846E+04  0.61648158165E+03 0.  0.
         13    1    3    3    0    0 -0.24441068978E+02  0.26939580370E+02 -0.99617445177E+03  0.99683832450E+03  0.00000000000E+00 0.  1.
          1    1    3    3  501    0  0.24441072524E+02 -0.26939575476E+02  0.91186837488E+02  0.98174060138E+02  0.00000000000E+00 0.  1.
         21    1    1    2  502  501 -0.35457749445E-05 -0.48944076217E-05  0.16311579027E-04  0.17395268215E-04  0.00000000000E+00 0. -1.
<mgrwt>
<rscale>  1 0.61648158E+03</rscale>
<asrwt>0</asrwt>
<pdfrwt beam="1">  1        1 0.34550037E+00 0.61648158E+03</pdfrwt>
<pdfrwt beam="2">0</pdfrwt>
<totfact> 0.23379031E+00</totfact>
</mgrwt>
</event>
<event>
 6    1  0.3167183E-003  0.6400304E+03  0.7818608E-02  0.9825668E-01
          1   -1    0    0  502    0  0.00000000000E+00  0.00000000000E+00  0.10329552306E+03  0.10329552306E+03  0.00000000000E+00 0.  1.
         13   -1    0    0    0    0 -0.00000000000E+00 -0.00000000000E+00 -0.10000000000E+04  0.10000000000E+04  0.00000000000E+00 0.  1.
    9000005    2    1    2  501    0 -0.58549479969E-01  0.19848589360E+00 -0.89757692746E+03  0.11023988656E+04  0.64003037064E+03 0.  0.
         13    1    3    3    0    0  0.32741269838E+02 -0.25059206712E+03 -0.78659245164E+03  0.82619371811E+03  0.00000000000E+00 0.  1.
          3    1    3    3  501    0 -0.32799819318E+02  0.25079055302E+03 -0.11098447582E+03  0.27620514749E+03  0.00000000000E+00 0.  1.
         21    1    1    2  502  501  0.58549479969E-01 -0.19848589360E+00  0.87245052322E+00  0.89665746360E+00  0.00000000000E+00 0. -1.
<mgrwt>
<rscale>  1 0.64003040E+03</rscale>
<asrwt>0</asrwt>
<pdfrwt beam="1">  1        1 0.37562088E+00 0.64003040E+03</pdfrwt>
<pdfrwt beam="2">0</pdfrwt>
<totfact> 0.17186895E+00</totfact>
</mgrwt>
</event>
<event>
 6    1  0.3167183E-003  0.6433161E+03  0.7818608E-02  0.9819403E-01
          1   -1    0    0  502    0  0.00000000000E+00  0.00000000000E+00  0.10347077081E+03  0.10347077081E+03  0.00000000000E+00 0.  1.
         13   -1    0    0    0    0 -0.00000000000E+00 -0.00000000000E+00 -0.10000000000E+04  0.10000000000E+04  0.00000000000E+00 0.  1.
    9000005    2    1    2  501    0 -0.10812179380E-02 -0.77146324105E-03 -0.89653604341E+03  0.11034638283E+04  0.64331605245E+03 0.  0.
         13    1    3    3    0    0  0.27977154869E+03  0.13902771356E+03 -0.57960221688E+03  0.65843720612E+03  0.00000000000E+00 0.  1.
          3    1    3    3  501    0 -0.27977262991E+03 -0.13902848502E+03 -0.31693382653E+03  0.44502662223E+03  0.00000000000E+00 0.  1.
         21    1    1    2  502  501  0.10812179380E-02  0.77146324106E-03  0.68142142759E-02  0.69424566229E-02  0.00000000000E+00 0.  1.
<mgrwt>
<rscale>  1 0.64331605E+03</rscale>
<asrwt>0</asrwt>
<pdfrwt beam="1">  1        1 0.37625814E+00 0.64331605E+03</pdfrwt>
<pdfrwt beam="2">0</pdfrwt>
<totfact> 0.17065911E+00</totfact>
</mgrwt>
</event>
<event>
 6    1  0.3167183E-003  0.6498474E+03  0.7818608E-02  0.9807066E-01
          1   -1    0    0  502    0  0.00000000000E+00  0.00000000000E+00  0.14118862824E+03  0.14118862824E+03  0.00000000000E+00 0.  1.
         13   -1    0    0    0    0 -0.00000000000E+00 -0.00000000000E+00 -0.10000000000E+04  0.10000000000E+04  0.00000000000E+00 0.  1.
    9000005    2    1    2  501    0  0.16957455831E+01 -0.86567415127E+01 -0.89381965431E+03  0.11050860719E+04  0.64978753233E+03 0.  0.
         13    1    3    3    0    0 -0.19942969520E+03 -0.23006222722E+03 -0.65506459246E+03  0.72236448695E+03  0.00000000000E+00 0.  1.
          1    1    3    3  501    0  0.20112544078E+03  0.22140548571E+03 -0.23875506185E+03  0.38272158495E+03  0.00000000000E+00 0.  1.
         21    1    1    2  502  501 -0.16957455831E+01  0.86567415127E+01  0.35008282552E+02  0.36102556335E+02  0.00000000000E+00 0.  1.
<mgrwt>
<rscale>  1 0.64984741E+03</rscale>
<asrwt>0</asrwt>
<pdfrwt beam="1">  1        1 0.51341428E+00 0.64984741E+03</pdfrwt>
<pdfrwt beam="2">0</pdfrwt>
<totfact> 0.39815750E-01</totfact>
</mgrwt>
</event>
<event>
 6    1  0.3167183E-003  0.5737032E+03  0.7818608E-02  0.9961517E-01
          1   -1    0    0  502    0  0.00000000000E+00  0.00000000000E+00  0.82320939704E+02  0.82320939704E+02  0.00000000000E+00 0.  1.
         13   -1    0    0    0    0 -0.00000000000E+00 -0.00000000000E+00 -0.10000000000E+04  0.10000000000E+04  0.00000000000E+00 0.  1.
    9000005    2    1    2  501    0  0.19322113615E-01 -0.24558073179E-01 -0.91770893178E+03  0.10822777107E+04  0.57370319730E+03 0.  0.
         13    1    3    3    0    0 -0.17427331581E+03 -0.22719113982E+03 -0.42623773640E+03  0.51348379775E+03  0.00000000000E+00 0.  1.
          3    1    3    3  501    0  0.17429263793E+03  0.22716658175E+03 -0.49147119537E+03  0.56879391293E+03  0.00000000000E+00 0.  1.
         21    1    1    2  502  501 -0.19322113615E-01  0.24558073179E-01  0.29871482846E-01  0.43229024049E-01  0.00000000000E+00 0. -1.
<mgrwt>
<rscale>  1 0.57370320E+03</rscale>
<asrwt>0</asrwt>
<pdfrwt beam="1">  1        1 0.29934950E+00 0.57370320E+03</pdfrwt>
<pdfrwt beam="2">0</pdfrwt>
<totfact> 0.37310903E+00</totfact>
</mgrwt>
</event>
<event>
 6    1  0.3167183E-003  0.6385820E+03  0.7818608E-02  0.9828443E-01
          1   -1    0    0  502    0  0.00000000000E+00  0.00000000000E+00  0.10211063317E+03  0.10211063317E+03  0.00000000000E+00 0.  1.
         13   -1    0    0    0    0 -0.00000000000E+00 -0.00000000000E+00 -0.10000000000E+04  0.10000000000E+04  0.00000000000E+00 0.  1.
    9000005    2    1    2  501    0  0.78287055291E-02 -0.62677556039E-02 -0.89805307404E+03  0.11019466191E+04  0.63858204436E+03 0.  0.
         13    1    3    3    0    0  0.26343381182E+03  0.83112783563E+02 -0.17269875825E+03  0.32577594924E+03  0.00000000000E+00 0.  1.
          1    1    3    3  501    0 -0.26342598311E+03 -0.83119051318E+02 -0.72535431579E+03  0.77617066983E+03  0.00000000000E+00 0.  1.
         21    1    1    2  502  501 -0.78287055291E-02  0.62677556039E-02  0.16370721440E+00  0.16401410134E+00  0.00000000000E+00 0. -1.
<mgrwt>
<rscale>  1 0.63858204E+03</rscale>
<asrwt>0</asrwt>
<pdfrwt beam="1">  1        1 0.37131218E+00 0.63858204E+03</pdfrwt>
<pdfrwt beam="2">0</pdfrwt>
<totfact> 0.17958261E+00</totfact>
</mgrwt>
</event>
<event>
 6    1  0.3167183E-003  0.6623954E+03  0.7818608E-02  0.9783794E-01
          1   -1    0    0  502    0  0.00000000000E+00  0.00000000000E+00  0.10971082608E+03  0.10971082608E+03  0.00000000000E+00 0.  1.
         13   -1    0    0    0    0 -0.00000000000E+00 -0.00000000000E+00 -0.10000000000E+04  0.10000000000E+04  0.00000000000E+00 0.  1.
    9000005    2    1    2  501    0  0.60872872587E-02  0.13138047551E-01 -0.89030494032E+03  0.11096894195E+04  0.66239544135E+03 0.  0.
         13    1    3    3    0    0 -0.51934140153E+02 -0.91821136545E+02  0.80794194104E+02  0.13287579851E+03  0.00000000000E+00 0.  1.
          3    1    3    3  501    0  0.51940227440E+02  0.91834274592E+02 -0.97109913442E+03  0.97681362096E+03  0.00000000000E+00 0.  1.
         21    1    1    2  502  501 -0.60872872587E-02 -0.13138047551E-01  0.15766401566E-01  0.21406605942E-01  0.00000000000E+00 0.  1.
<mgrwt>
<rscale>  1 0.66239544E+03</rscale>
<asrwt>0</asrwt>
<pdfrwt beam="1">  1        1 0.39894930E+00 0.66239544E+03</pdfrwt>
<pdfrwt beam="2">0</pdfrwt>
<totfact> 0.13492201E+00</totfact>
</mgrwt>
</event>
<event>
 6    1  0.3167183E-003  0.5918623E+03  0.7818608E-02  0.9922435E-01
          1   -1    0    0  502    0  0.00000000000E+00  0.00000000000E+00  0.88868055219E+02  0.88868055219E+02  0.00000000000E+00 0.  1.
         13   -1    0    0    0    0 -0.00000000000E+00 -0.00000000000E+00 -0.10000000000E+04  0.10000000000E+04  0.00000000000E+00 0.  1.
    9000005    2    1    2  501    0  0.27971227892E+01 -0.15432667754E+01 -0.90987090458E+03  0.10854335552E+04  0.59185364247E+03 0.  0.
         13    1    3    3    0    0 -0.16096857335E+03 -0.10471155353E+03 -0.86591444658E+03  0.88695164459E+03  0.00000000000E+00 0.  1.
          1    1    3    3  501    0  0.16376569614E+03  0.10316828676E+03 -0.43956458002E+02  0.19848191057E+03  0.00000000000E+00 0.  1.
         21    1    1    2  502  501 -0.27971227892E+01  0.15432667754E+01 -0.12610401988E+01  0.34345000540E+01  0.00000000000E+00 0. -1.
<mgrwt>
<rscale>  1 0.59186226E+03</rscale>
<asrwt>0</asrwt>
<pdfrwt beam="1">  1        1 0.32315725E+00 0.59186226E+03</pdfrwt>
<pdfrwt beam="2">0</pdfrwt>
<totfact> 0.29351215E+00</totfact>
</mgrwt>
</event>
<event>
 6    1  0.3167183E-003  0.6319594E+03  0.7818608E-02  0.9841233E-01
          1   -1    0    0  502    0  0.00000000000E+00  0.00000000000E+00  0.99843885388E+02  0.99843885388E+02  0.00000000000E+00 0.  1.
         13   -1    0    0    0    0 -0.00000000000E+00 -0.00000000000E+00 -0.10000000000E+04  0.10000000000E+04  0.00000000000E+00 0.  1.
    9000005    2    1    2  501    0 -0.13962857011E-03  0.46192767184E-03 -0.90015672862E+03  0.10998431044E+04  0.63195942772E+03 0.  0.
         13    1    3    3    0    0 -0.14394990285E+03 -0.49928202715E+02  0.31689126976E+02  0.15562326537E+03  0.00000000000E+00 0.  1.
          3    1    3    3  501    0  0.14394976322E+03  0.49928664643E+02 -0.93184585560E+03  0.94421983906E+03  0.00000000000E+00 0.  1.
         21    1    1    2  502  501  0.13962857010E-03 -0.46192767184E-03  0.61401257377E-03  0.78095118435E-03  0.00000000000E+00 0. -1.
<mgrwt>
<rscale>  1 0.63195943E+03</rscale>
<asrwt>0</asrwt>
<pdfrwt beam="1">  1        1 0.36306944E+00 0.63195943E+03</pdfrwt>
<pdfrwt beam="2">0</pdfrwt>
<totfact> 0.19540854E+00</totfact>
</mgrwt>
</event>
<event>
 6    1  0.3167183E-003  0.5079897E+03  0.7818608E-02  0.1011714E+00
          1   -1    0    0  502    0  0.00000000000E+00  0.00000000000E+00  0.64513562367E+02  0.64513562367E+02  0.00000000000E+00 0.  1.
         13   -1    0    0    0    0 -0.00000000000E+00 -0.00000000000E+00 -0.10000000000E+04  0.10000000000E+04  0.00000000000E+00 0.  1.
    9000005    2    1    2  501    0  0.69090901746E-05 -0.39953872033E-06 -0.93548660540E+03  0.10645133945E+04  0.50798974212E+03 0.  0.
         13    1    3    3    0    0 -0.10901787970E+03  0.21508074983E+03 -0.30050957755E+03  0.38529291876E+03  0.00000000000E+00 0.  1.
          1    1    3    3  501    0  0.10901788661E+03 -0.21508075023E+03 -0.63497702785E+03  0.67922047570E+03  0.00000000000E+00 0.  1.
         21    1    1    2  502  501 -0.69090901625E-05  0.39953873441E-06  0.16776498117E-03  0.16790766530E-03  0.00000000000E+00 0.  1.
<mgrwt>
<rscale>  1 0.50798974E+03</rscale>
<asrwt>0</asrwt>
<pdfrwt beam="1">  1        1 0.23459527E+00 0.50798974E+03</pdfrwt>
<pdfrwt beam="2">0</pdfrwt>
<totfact> 0.72010813E+00</totfact>
</mgrwt>
</event>
<event>
 6    1  0.3167183E-003  0.6096115E+03  0.7818608E-02  0.9885663E-01
          1   -1    0    0  502    0  0.00000000000E+00  0.00000000000E+00  0.93340707752E+02  0.93340707752E+02  0.00000000000E+00 0.  1.
         13   -1    0    0    0    0 -0.00000000000E+00 -0.00000000000E+00 -0.10000000000E+04  0.10000000000E+04  0.00000000000E+00 0.  1.
    9000005    2    1    2  501    0  0.46752687613E-01  0.26711514316E-01 -0.90709162091E+03  0.10929050389E+04  0.60961152575E+03 0.  0.
         13    1    3    3    0    0  0.36058539355E+02  0.29970203149E+03 -0.37761953426E+03  0.48344393531E+03  0.00000000000E+00 0.  1.
          3    1    3    3  501    0 -0.36011786667E+02 -0.29967531998E+03 -0.52947208665E+03  0.60946110354E+03  0.00000000000E+00 0.  1.
         21    1    1    2  502  501 -0.46752687613E-01 -0.26711514316E-01  0.43232866192E+00  0.43566890033E+00  0.00000000000E+00 0. -1.
<mgrwt>
<rscale>  1 0.60961153E+03</rscale>
<asrwt>0</asrwt>
<pdfrwt beam="1">  1        1 0.33942147E+00 0.60961153E+03</pdfrwt>
<pdfrwt beam="2">0</pdfrwt>
<totfact> 0.24875897E+00</totfact>
</mgrwt>
</event>
<event>
 6    1  0.3167183E-003  0.6544567E+03  0.7818608E-02  0.9798452E-01
          1   -1    0    0  502    0  0.00000000000E+00  0.00000000000E+00  0.10708398701E+03  0.10708398701E+03  0.00000000000E+00 0.  1.
         13   -1    0    0    0    0 -0.00000000000E+00 -0.00000000000E+00 -0.10000000000E+04  0.10000000000E+04  0.00000000000E+00 0.  1.
    9000005    2    1    2  501    0  0.50222811953E-02 -0.11297186231E-02 -0.89292027596E+03  0.11070773033E+04  0.65445667247E+03 0.  0.
         13    1    3    3    0    0  0.15241645240E+03 -0.28762966737E+03 -0.50302033557E+03  0.59915862550E+03  0.00000000000E+00 0.  1.
          3    1    3    3  501    0 -0.15241143012E+03  0.28762853765E+03 -0.38989994039E+03  0.50791867776E+03  0.00000000000E+00 0.  1.
         21    1    1    2  502  501 -0.50222811953E-02  0.11297186231E-02  0.42629680942E-02  0.66837466696E-02  0.00000000000E+00 0. -1.
<mgrwt>
<rscale>  1 0.65445667E+03</rscale>
<asrwt>0</asrwt>
<pdfrwt beam="1">  1        1 0.38939714E+00 0.65445667E+03</pdfrwt>
<pdfrwt beam="2">0</pdfrwt>
<totfact> 0.14899873E+00</totfact>
</mgrwt>
</event>
