<event>
 6    1  0.2450233E-003  0.6605956E+03  0.7818608E-02  0.9787098E-01
          1   -1    0    0  502    0  0.00000000000E+00  0.00000000000E+00  0.10910484602E+03  0.10910484602E+03  0.00000000000E+00 0.  1.
         13   -1    0    0    0    0 -0.00000000000E+00 -0.00000000000E+00 -0.10000000000E+04  0.10000000000E+04  0.00000000000E+00 0.  1.
    9000005    2    1    2  501    0 -0.58941270618E-03  0.26583899216E-03 -0.89090333876E+03  0.11090966357E+04  0.66059563153E+03 0.  0.
         13    1    3    3    0    0 -0.27834338386E+03  0.51530033660E+02 -0.73119875678E+03  0.78408035661E+03  0.00000000000E+00 0.  1.
          1    1    3    3  501    0  0.27834279445E+03 -0.51529767821E+02 -0.15970458198E+03  0.32501627913E+03  0.00000000000E+00 0.  1.
         21    1    1    2  502  501  0.58941270615E-03 -0.26583899215E-03  0.81847794968E-02  0.82102797223E-02  0.00000000000E+00 0. -1.
<mgrwt>
<rscale>  1 0.66059563E+03</rscale>
<asrwt>0</asrwt>
<pdfrwt beam="1">  1        1 0.39674573E+00 0.66059563E+03</pdfrwt>
<pdfrwt beam="2">0</pdfrwt>
<totfact> 0.13805216E+00</totfact>
</mgrwt>
</event>
<event>
 6    1  0.2450233E-003  0.6539901E+03  0.7818608E-02  0.9799321E-01
          1   -1    0    0  502    0  0.00000000000E+00  0.00000000000E+00  0.10692578608E+03  0.10692578608E+03  0.00000000000E+00 0.  1.
         13   -1    0    0    0    0 -0.00000000000E+00 -0.00000000000E+00 -0.10000000000E+04  0.10000000000E+04  0.00000000000E+00 0.  1.
    9000005    2    1    2  501    0  0.15928505093E-06  0.75259067103E-05 -0.89307423645E+03  0.11069257623E+04  0.65399010046E+03 0.  0.
         13    1    3    3    0    0  0.23565700026E+02 -0.13139036800E+03  0.58709262905E+02  0.14582711878E+03  0.00000000000E+00 0.  1.
          3    1    3    3  501    0 -0.23565699867E+02  0.13139037553E+03 -0.95178349935E+03  0.96109864355E+03  0.00000000000E+00 0.  1.
         21    1    1    2  502  501 -0.15928504894E-06 -0.75259066951E-05  0.22524960995E-04  0.23749494966E-04  0.00000000000E+00 0. -1.
<mgrwt>
<rscale>  1 0.65399010E+03</rscale>
<asrwt>0</asrwt>
<pdfrwt beam="1">  1        1 0.38882186E+00 0.65399010E+03</pdfrwt>
<pdfrwt beam="2">0</pdfrwt>
<totfact> 0.14988913E+00</totfact>
</mgrwt>
</event>
<event>
 6    1  0.2450233E-003  0.6479651E+03  0.7818608E-02  0.9810605E-01
          1   -1    0    0  502    0  0.00000000000E+00  0.00000000000E+00  0.10496784221E+03  0.10496784221E+03  0.00000000000E+00 0.  1.
         13   -1    0    0    0    0 -0.00000000000E+00 -0.00000000000E+00 -0.10000000000E+04  0.10000000000E+04  0.00000000000E+00 0.  1.
    9000005    2    1    2  501    0 -0.94390939367E-04 -0.88083609569E-04 -0.89503531965E+03  0.11049646777E+04  0.64796505739E+03 0.  0.
         13    1    3    3    0    0  0.69206320708E+02 -0.28421148431E+03 -0.21000510382E+03  0.36009419083E+03  0.00000000000E+00 0.  1.
          1    1    3    3  501    0 -0.69206415099E+02  0.28421139623E+03 -0.68503021583E+03  0.74487048688E+03  0.00000000000E+00 0.  1.
         21    1    1    2  502  501  0.94390939356E-04  0.88083609567E-04  0.31618560300E-02  0.31644907846E-02  0.00000000000E+00 0. -1.
<mgrwt>
<rscale>  1 0.64796506E+03</rscale>
<asrwt>0</asrwt>
<pdfrwt beam="1">  1        1 0.38170205E+00 0.64796506E+03</pdfrwt>
<pdfrwt beam="2">0</pdfrwt>
<totfact> 0.16134318E+00</totfact>
</mgrwt>
</event>
<event>
 6    1  0.2450233E-003  0.6509334E+03  0.7818608E-02  0.9805029E-01
          1   -1    0    0  502    0  0.00000000000E+00  0.00000000000E+00  0.10759508351E+03  0.10759508351E+03  0.00000000000E+00 0.  1.
         13   -1    0    0    0    0 -0.00000000000E+00 -0.00000000000E+00 -0.10000000000E+04  0.10000000000E+04  0.00000000000E+00 0.  1.
    9000005    2    1    2  501    0 -0.20193285928E+00  0.73909279570E-02 -0.89406465453E+03  0.11059230901E+04  0.65093335601E+03 0.  0.
         13    1    3    3    0    0  0.22805154785E+03  0.11280635239E+03 -0.10228850823E+03  0.27421838110E+03  0.00000000000E+00 0.  1.
          1    1    3    3  501    0 -0.22825348071E+03 -0.11279896146E+03 -0.79177614630E+03  0.83170470903E+03  0.00000000000E+00 0.  1.
         21    1    1    2  502  501  0.20193285928E+00 -0.73909279570E-02  0.16597380368E+01  0.16719933781E+01  0.00000000000E+00 0. -1.
<mgrwt>
<rscale>  1 0.65093339E+03</rscale>
<asrwt>0</asrwt>
<pdfrwt beam="1">  1        1 0.39125567E+00 0.65093339E+03</pdfrwt>
<pdfrwt beam="2">0</pdfrwt>
<totfact> 0.14629325E+00</totfact>
</mgrwt>
</event>
<event>
 6    1  0.2450233E-003  0.6533638E+03  0.7818608E-02  0.9800488E-01
          1   -1    0    0  502    0  0.00000000000E+00  0.00000000000E+00  0.10672305818E+03  0.10672305818E+03  0.00000000000E+00 0.  1.
         13   -1    0    0    0    0 -0.00000000000E+00 -0.00000000000E+00 -0.10000000000E+04  0.10000000000E+04  0.00000000000E+00 0.  1.
    9000005    2    1    2  501    0  0.20322354430E-05  0.70207406942E-04 -0.89327894623E+03  0.11067210525E+04  0.65336376725E+03 0.  0.
         13    1    3    3    0    0  0.31473811897E+03  0.29798212737E+02 -0.30723558437E+03  0.44084205938E+03  0.00000000000E+00 0.  1.
          3    1    3    3  501    0 -0.31473811694E+03 -0.29798142530E+02 -0.58604336186E+03  0.66587899316E+03  0.00000000000E+00 0.  1.
         21    1    1    2  502  501 -0.20322354255E-05 -0.70207406941E-04  0.20044108144E-02  0.20056410254E-02  0.00000000000E+00 0. -1.
<mgrwt>
<rscale>  1 0.65336377E+03</rscale>
<asrwt>0</asrwt>
<pdfrwt beam="1">  1        1 0.38808467E+00 0.65336377E+03</pdfrwt>
<pdfrwt beam="2">0</pdfrwt>
<totfact> 0.15103832E+00</totfact>
</mgrwt>
</event>
<event>
 6    1  0.2450233E-003  0.6257973E+03  0.7818608E-02  0.9853285E-01
          1   -1    0    0  502    0  0.00000000000E+00  0.00000000000E+00  0.97917361187E+02  0.97917361187E+02  0.00000000000E+00 0.  1.
         13   -1    0    0    0    0 -0.00000000000E+00 -0.00000000000E+00 -0.10000000000E+04  0.10000000000E+04  0.00000000000E+00 0.  1.
    9000005    2    1    2  501    0  0.19512791786E-02 -0.17820246717E-02 -0.90209427326E+03  0.10979054304E+04  0.62579729645E+03 0.  0.
         13    1    3    3    0    0  0.36268557137E+02 -0.24006609164E+03 -0.79733412958E+03  0.83347996424E+03  0.00000000000E+00 0.  1.
          3    1    3    3  501    0 -0.36266605857E+02  0.24006430962E+03 -0.10476014368E+03  0.26442546616E+03  0.00000000000E+00 0.  1.
         21    1    1    2  502  501 -0.19512791786E-02  0.17820246717E-02  0.11634452329E-01  0.11930783015E-01  0.00000000000E+00 0.  1.
<mgrwt>
<rscale>  1 0.62579730E+03</rscale>
<asrwt>0</asrwt>
<pdfrwt beam="1">  1        1 0.35606388E+00 0.62579730E+03</pdfrwt>
<pdfrwt beam="2">0</pdfrwt>
<totfact> 0.20992296E+00</totfact>
</mgrwt>
</event>
<event>
 6    1  0.2450233E-003  0.6210301E+03  0.7818608E-02  0.9862711E-01
          1   -1    0    0  502    0  0.00000000000E+00  0.00000000000E+00  0.96557827494E+02  0.96557827494E+02  0.00000000000E+00 0.  1.
         13   -1    0    0    0    0 -0.00000000000E+00 -0.00000000000E+00 -0.10000000000E+04  0.10000000000E+04  0.00000000000E+00 0.  1.
    9000005    2    1    2  501    0 -0.18454149681E-01  0.10675893101E+00 -0.90355677336E+03  0.10964001209E+04  0.62103008832E+03 0.  0.
         13    1    3    3    0    0  0.19301418755E+03 -0.82885119585E+02 -0.85542785257E+03  0.88084120623E+03  0.00000000000E+00 0.  1.
          3    1    3    3  501    0 -0.19303264170E+03  0.82991878516E+02 -0.48128920794E+02  0.21555891463E+03  0.00000000000E+00 0.  1.
         21    1    1    2  502  501  0.18454149681E-01 -0.10675893101E+00  0.11460085760E+00  0.15770663130E+00  0.00000000000E+00 0.  1.
<mgrwt>
<rscale>  1 0.62103010E+03</rscale>
<asrwt>0</asrwt>
<pdfrwt beam="1">  1        1 0.35112011E+00 0.62103010E+03</pdfrwt>
<pdfrwt beam="2">0</pdfrwt>
<totfact> 0.22080086E+00</totfact>
</mgrwt>
</event>
<event>
 6    1  0.2450233E-003  0.5870392E+03  0.7818608E-02  0.9932666E-01
          3   -1    0    0  502    0  0.00000000000E+00  0.00000000000E+00  0.86153781920E+02  0.86153781920E+02  0.00000000000E+00 0.  1.
         13   -1    0    0    0    0 -0.00000000000E+00 -0.00000000000E+00 -0.10000000000E+04  0.10000000000E+04  0.00000000000E+00 0.  1.
    9000005    2    1    2  501    0 -0.71170158478E-05 -0.35352178429E-06 -0.91384623141E+03  0.10861537668E+04  0.58703924102E+03 0.  0.
         13    1    3    3    0    0 -0.39131192008E+02 -0.24603298636E+03 -0.74409715183E+03  0.78469360385E+03  0.00000000000E+00 0.  1.
          3    1    3    3  501    0  0.39131184891E+02  0.24603298600E+03 -0.16974907958E+03  0.30146016296E+03  0.00000000000E+00 0.  1.
         21    1    1    2  502  501  0.71170158530E-05  0.35352180058E-06  0.13327809266E-04  0.15113152952E-04  0.00000000000E+00 0.  1.
<mgrwt>
<rscale>  1 0.58703924E+03</rscale>
<asrwt>0</asrwt>
<pdfrwt beam="1">  1        3 0.31328714E+00 0.58703924E+03</pdfrwt>
<pdfrwt beam="2">0</pdfrwt>
<totfact> 0.17288163E-01</totfact>
</mgrwt>
</event>
<event>
 6    1  0.2450233E-003  0.6517466E+03  0.7818608E-02  0.9803507E-01
          1   -1    0    0  502    0  0.00000000000E+00  0.00000000000E+00  0.10626543619E+03  0.10626543619E+03  0.00000000000E+00 0.  1.
         13   -1    0    0    0    0 -0.00000000000E+00 -0.00000000000E+00 -0.10000000000E+04  0.10000000000E+04  0.00000000000E+00 0.  1.
    9000005    2    1    2  501    0 -0.30017373692E-01  0.49900667169E-01 -0.89379335138E+03  0.11061826890E+04  0.65174656352E+03 0.  0.
         13    1    3    3    0    0 -0.19273274428E+03 -0.20081800478E+03 -0.15927683944E+03  0.32069127419E+03  0.00000000000E+00 0.  1.
          1    1    3    3  501    0  0.19270272691E+03  0.20086790545E+03 -0.73451651195E+03  0.78549141480E+03  0.00000000000E+00 0.  1.
         21    1    1    2  502  501  0.30017373692E-01 -0.49900667169E-01  0.58787570362E-01  0.82747191713E-01  0.00000000000E+00 0. -1.
<mgrwt>
<rscale>  1 0.65174657E+03</rscale>
<asrwt>0</asrwt>
<pdfrwt beam="1">  1        1 0.38642058E+00 0.65174657E+03</pdfrwt>
<pdfrwt beam="2">0</pdfrwt>
<totfact> 0.15366900E+00</totfact>
</mgrwt>
</event>
<event>
 6    1  0.2450233E-003  0.6435576E+03  0.7818608E-02  0.9818943E-01
          1   -1    0    0  502    0  0.00000000000E+00  0.00000000000E+00  0.13398863877E+03  0.13398863877E+03  0.00000000000E+00 0.  1.
         13   -1    0    0    0    0 -0.00000000000E+00 -0.00000000000E+00 -0.10000000000E+04  0.10000000000E+04  0.00000000000E+00 0.  1.
    9000005    2    1    2  501    0  0.66875946746E+00  0.37407295571E-01 -0.89645433137E+03  0.11035383010E+04  0.64355727402E+03 0.  0.
         13    1    3    3    0    0  0.14431258449E+03  0.27439506698E+03 -0.59725005287E+03  0.67292377018E+03  0.00000000000E+00 0.  1.
          1    1    3    3  501    0 -0.14364382502E+03 -0.27435765968E+03 -0.29920427850E+03  0.43061453083E+03  0.00000000000E+00 0.  1.
         21    1    1    2  502  501 -0.66875946746E+00 -0.37407295571E-01  0.30442970143E+02  0.30450337759E+02  0.00000000000E+00 0.  1.
<mgrwt>
<rscale>  1 0.64355762E+03</rscale>
<asrwt>0</asrwt>
<pdfrwt beam="1">  1        1 0.48723244E+00 0.64355762E+03</pdfrwt>
<pdfrwt beam="2">0</pdfrwt>
<totfact> 0.53288982E-01</totfact>
</mgrwt>
</event>
<event>
 6    1  0.2450233E-003  0.6400404E+03  0.7818608E-02  0.9825649E-01
          1   -1    0    0  502    0  0.00000000000E+00  0.00000000000E+00  0.10243425684E+03  0.10243425684E+03  0.00000000000E+00 0.  1.
         13   -1    0    0    0    0 -0.00000000000E+00 -0.00000000000E+00 -0.10000000000E+04  0.10000000000E+04  0.00000000000E+00 0.  1.
    9000005    2    1    2  501    0  0.24664643466E-01 -0.13731416587E-02 -0.89757891312E+03  0.11024062626E+04  0.64004035959E+03 0.  0.
         13    1    3    3    0    0  0.13179360232E+03 -0.23687695639E+03 -0.74178904566E+03  0.78976656952E+03  0.00000000000E+00 0.  1.
          1    1    3    3  501    0 -0.13176893768E+03  0.23687558325E+03 -0.15578986746E+03  0.31263969307E+03  0.00000000000E+00 0.  1.
         21    1    1    2  502  501 -0.24664643466E-01  0.13731416587E-02  0.13169959742E-01  0.27994249318E-01  0.00000000000E+00 0. -1.
<mgrwt>
<rscale>  1 0.64004036E+03</rscale>
<asrwt>0</asrwt>
<pdfrwt beam="1">  1        1 0.37248899E+00 0.64004036E+03</pdfrwt>
<pdfrwt beam="2">0</pdfrwt>
<totfact> 0.17740912E+00</totfact>
</mgrwt>
</event>
<event>
 6    1  0.2450233E-003  0.6450979E+03  0.7818608E-02  0.9816021E-01
          1   -1    0    0  502    0  0.00000000000E+00  0.00000000000E+00  0.10741915857E+03  0.10741915857E+03  0.00000000000E+00 0.  1.
         13   -1    0    0    0    0 -0.00000000000E+00 -0.00000000000E+00 -0.10000000000E+04  0.10000000000E+04  0.00000000000E+00 0.  1.
    9000005    2    1    2  501    0  0.12142635105E+00 -0.48422824387E-01 -0.89596079521E+03  0.11040366777E+04  0.64509783919E+03 0.  0.
         13    1    3    3    0    0 -0.40565728780E+02 -0.30935154105E+03 -0.58812898672E+03  0.66576246464E+03  0.00000000000E+00 0.  1.
          3    1    3    3  501    0  0.40687155131E+02  0.30930311823E+03 -0.30783180848E+03  0.43827421308E+03  0.00000000000E+00 0.  1.
         21    1    1    2  502  501 -0.12142635105E+00  0.48422824387E-01  0.33799537824E+01  0.33824808499E+01  0.00000000000E+00 0. -1.
<mgrwt>
<rscale>  1 0.64509785E+03</rscale>
<asrwt>0</asrwt>
<pdfrwt beam="1">  1        1 0.39061595E+00 0.64509785E+03</pdfrwt>
<pdfrwt beam="2">0</pdfrwt>
<totfact> 0.14741344E+00</totfact>
</mgrwt>
</event>
<event>
 6    1  0.2450233E-003  0.6383618E+03  0.7818608E-02  0.9828866E-01
          1   -1    0    0  502    0  0.00000000000E+00  0.00000000000E+00  0.10188027770E+03  0.10188027770E+03  0.00000000000E+00 0.  1.
         13   -1    0    0    0    0 -0.00000000000E+00 -0.00000000000E+00 -0.10000000000E+04  0.10000000000E+04  0.00000000000E+00 0.  1.
    9000005    2    1    2  501    0 -0.65043677237E-02  0.20388016239E-02 -0.89811988158E+03  0.11018734594E+04  0.63836180873E+03 0.  0.
         13    1    3    3    0    0  0.84867003483E+02 -0.30767455204E+03 -0.44381269224E+03  0.54665870893E+03  0.00000000000E+00 0.  1.
          1    1    3    3  501    0 -0.84873507851E+02  0.30767659084E+03 -0.45430718934E+03  0.55521475050E+03  0.00000000000E+00 0.  1.
         21    1    1    2  502  501  0.65043677237E-02 -0.20388016239E-02  0.15928135143E-03  0.68182755954E-02  0.00000000000E+00 0. -1.
<mgrwt>
<rscale>  1 0.63836181E+03</rscale>
<asrwt>0</asrwt>
<pdfrwt beam="1">  1        1 0.37047452E+00 0.63836181E+03</pdfrwt>
<pdfrwt beam="2">0</pdfrwt>
<totfact> 0.18111817E+00</totfact>
</mgrwt>
</event>
<event>
 6    1  0.2450233E-003  0.6441834E+03  0.7818608E-02  0.9817755E-01
          1   -1    0    0  502    0  0.00000000000E+00  0.00000000000E+00  0.10374686158E+03  0.10374686158E+03  0.00000000000E+00 0.  1.
         13   -1    0    0    0    0 -0.00000000000E+00 -0.00000000000E+00 -0.10000000000E+04  0.10000000000E+04  0.00000000000E+00 0.  1.
    9000005    2    1    2  501    0  0.43789366955E-04  0.11508760156E-03 -0.89625692046E+03  0.11037430775E+04  0.64418344727E+03 0.  0.
         13    1    3    3    0    0 -0.77894240885E+00 -0.31762319498E+03 -0.35653057567E+03  0.47749256761E+03  0.00000000000E+00 0.  1.
          3    1    3    3  501    0  0.77898619822E+00  0.31762331007E+03 -0.53972634479E+03  0.62625050992E+03  0.00000000000E+00 0.  1.
         21    1    1    2  502  501 -0.43789366955E-04 -0.11508760158E-03  0.37820423560E-02  0.37840463855E-02  0.00000000000E+00 0.  1.
<mgrwt>
<rscale>  1 0.64418345E+03</rscale>
<asrwt>0</asrwt>
<pdfrwt beam="1">  1        1 0.37726211E+00 0.64418345E+03</pdfrwt>
<pdfrwt beam="2">0</pdfrwt>
<totfact> 0.16890309E+00</totfact>
</mgrwt>
</event>
<event>
 6    1  0.2450233E-003  0.6418389E+03  0.7818608E-02  0.9822215E-01
          3   -1    0    0  502    0  0.00000000000E+00  0.00000000000E+00  0.10299515093E+03  0.10299515093E+03  0.00000000000E+00 0.  1.
         13   -1    0    0    0    0 -0.00000000000E+00 -0.00000000000E+00 -0.10000000000E+04  0.10000000000E+04  0.00000000000E+00 0.  1.
    9000005    2    1    2  501    0 -0.18557795074E-02 -0.12165543029E-02 -0.89701047834E+03  0.11029891001E+04  0.64183888684E+03 0.  0.
         13    1    3    3    0    0 -0.48007497746E+02  0.16317763787E+03 -0.91616451306E+03  0.93182030259E+03  0.00000000000E+00 0.  1.
          1    1    3    3  501    0  0.48005641967E+02 -0.16317885442E+03  0.19154034713E+02  0.17116879750E+03  0.00000000000E+00 0.  1.
         21    1    1    2  502  501  0.18557795074E-02  0.12165543029E-02  0.56292762008E-02  0.60508406438E-02  0.00000000000E+00 0.  1.
<mgrwt>
<rscale>  1 0.64183889E+03</rscale>
<asrwt>0</asrwt>
<pdfrwt beam="1">  1        3 0.37452861E+00 0.64183889E+03</pdfrwt>
<pdfrwt beam="2">0</pdfrwt>
<totfact> 0.80786245E-02</totfact>
</mgrwt>
</event>
<event>
 6    1  0.2450233E-003  0.6489312E+03  0.7818608E-02  0.9808787E-01
          1   -1    0    0  502    0  0.00000000000E+00  0.00000000000E+00  0.10531027163E+03  0.10531027163E+03  0.00000000000E+00 0.  1.
         13   -1    0    0    0    0 -0.00000000000E+00 -0.00000000000E+00 -0.10000000000E+04  0.10000000000E+04  0.00000000000E+00 0.  1.
    9000005    2    1    2  501    0  0.38217471078E-03  0.27289478172E-03 -0.89472208827E+03  0.11052779083E+04  0.64893115149E+03 0.  0.
         13    1    3    3    0    0  0.16318600627E+03  0.98540313569E+02 -0.89456208957E+03  0.91464812805E+03  0.00000000000E+00 0.  1.
          1    1    3    3  501    0 -0.16318562409E+03 -0.98540040675E+02 -0.15999869743E+00  0.19062978027E+03  0.00000000000E+00 0.  1.
         21    1    1    2  502  501 -0.38217471077E-03 -0.27289478171E-03  0.32359906456E-01  0.32363313719E-01  0.00000000000E+00 0. -1.
<mgrwt>
<rscale>  1 0.64893115E+03</rscale>
<asrwt>0</asrwt>
<pdfrwt beam="1">  1        1 0.38294725E+00 0.64893115E+03</pdfrwt>
<pdfrwt beam="2">0</pdfrwt>
<totfact> 0.15928428E+00</totfact>
</mgrwt>
</event>
<event>
 6    1  0.4116141E-003  0.6533671E+03  0.7818608E-02  0.9800481E-01
          1   -1    0    0  502    0  0.00000000000E+00  0.00000000000E+00  0.10672215614E+03  0.10672215614E+03  0.00000000000E+00 0.  1.
         13   -1    0    0    0    0 -0.00000000000E+00 -0.00000000000E+00 -0.10000000000E+04  0.10000000000E+04  0.00000000000E+00 0.  1.
    9000005    2    1    2  501    0  0.20557401513E-04 -0.10071103191E-04 -0.89327782856E+03  0.11067221286E+04  0.65336711805E+03 0.  0.
         13    1    3    3    0    0 -0.23000249479E+03 -0.43760862753E+02 -0.60725354390E+02  0.24187544188E+03  0.00000000000E+00 0.  1.
          3    1    3    3  501    0  0.23000251535E+03  0.43760852682E+02 -0.83255247417E+03  0.86484668673E+03  0.00000000000E+00 0.  1.
         21    1    1    2  502  501 -0.20557401506E-04  0.10071103188E-04 -0.15300831777E-04  0.27534511602E-04  0.00000000000E+00 0.  1.
<mgrwt>
<rscale>  1 0.65336712E+03</rscale>
<asrwt>0</asrwt>
<pdfrwt beam="1">  1        1 0.38808139E+00 0.65336712E+03</pdfrwt>
<pdfrwt beam="2">0</pdfrwt>
<totfact> 0.15104328E+00</totfact>
</mgrwt>
</event>
<event>
 6    1  0.2450233E-003  0.6512728E+03  0.7818608E-02  0.9804394E-01
          1   -1    0    0  502    0  0.00000000000E+00  0.00000000000E+00  0.10603960559E+03  0.10603960559E+03  0.00000000000E+00 0.  1.
         13   -1    0    0    0    0 -0.00000000000E+00 -0.00000000000E+00 -0.10000000000E+04  0.10000000000E+04  0.00000000000E+00 0.  1.
    9000005    2    1    2  501    0  0.36461729411E-03 -0.14213610724E-02 -0.89395937114E+03  0.11060378167E+04  0.65127282656E+03 0.  0.
         13    1    3    3    0    0 -0.15979556547E+03 -0.11212841183E+03 -0.43472062332E+01  0.19525957514E+03  0.00000000000E+00 0.  1.
          3    1    3    3  501    0  0.15979593009E+03  0.11212699047E+03 -0.88961216491E+03  0.91077824151E+03  0.00000000000E+00 0.  1.
         21    1    1    2  502  501 -0.36461729410E-03  0.14213610724E-02 -0.10232715448E-02  0.17889375964E-02  0.00000000000E+00 0. -1.
<mgrwt>
<rscale>  1 0.65127283E+03</rscale>
<asrwt>0</asrwt>
<pdfrwt beam="1">  1        1 0.38559938E+00 0.65127283E+03</pdfrwt>
<pdfrwt beam="2">0</pdfrwt>
<totfact> 0.15497390E+00</totfact>
</mgrwt>
</event>
<event>
 6    1  0.2450233E-003  0.6505543E+03  0.7818608E-02  0.9805740E-01
          1   -1    0    0  502    0  0.00000000000E+00  0.00000000000E+00  0.10616551814E+03  0.10616551814E+03  0.00000000000E+00 0.  1.
         13   -1    0    0    0    0 -0.00000000000E+00 -0.00000000000E+00 -0.10000000000E+04  0.10000000000E+04  0.00000000000E+00 0.  1.
    9000005    2    1    2  501    0 -0.48832502203E+00 -0.55390886474E+00 -0.89371527194E+03  0.11054175293E+04  0.65055390355E+03 0.  0.
         13    1    3    3    0    0  0.10688669659E+03  0.12028656324E+03 -0.92658702599E+03  0.94045581498E+03  0.00000000000E+00 0.  1.
          3    1    3    3  501    0 -0.10737502161E+03 -0.12084047210E+03  0.32871754046E+02  0.16496171428E+03  0.00000000000E+00 0.  1.
         21    1    1    2  502  501  0.48832502203E+00  0.55390886474E+00 -0.11920991546E+00  0.74798887794E+00  0.00000000000E+00 0. -1.
<mgrwt>
<rscale>  1 0.65055432E+03</rscale>
<asrwt>0</asrwt>
<pdfrwt beam="1">  1        1 0.38605724E+00 0.65055432E+03</pdfrwt>
<pdfrwt beam="2">0</pdfrwt>
<totfact> 0.15427308E+00</totfact>
</mgrwt>
</event>
<event>
 6    1  0.2450233E-003  0.6443102E+03  0.7818608E-02  0.9817515E-01
          1   -1    0    0  502    0  0.00000000000E+00  0.00000000000E+00  0.10378404721E+03  0.10378404721E+03  0.00000000000E+00 0.  1.
         13   -1    0    0    0    0 -0.00000000000E+00 -0.00000000000E+00 -0.10000000000E+04  0.10000000000E+04  0.00000000000E+00 0.  1.
    9000005    2    1    2  501    0 -0.63436193130E-04 -0.57636332741E-04 -0.89621607877E+03  0.11037838948E+04  0.64431019443E+03 0.  0.
         13    1    3    3    0    0  0.32515945684E+02  0.19390144694E+03 -0.88530353472E+03  0.90687232091E+03  0.00000000000E+00 0.  1.
          3    1    3    3  501    0 -0.32516009120E+02 -0.19390150458E+03 -0.10912544056E+02  0.19691157392E+03  0.00000000000E+00 0.  1.
         21    1    1    2  502  501  0.63436193131E-04  0.57636332753E-04  0.12598309234E-03  0.15237400371E-03  0.00000000000E+00 0. -1.
<mgrwt>
<rscale>  1 0.64431019E+03</rscale>
<asrwt>0</asrwt>
<pdfrwt beam="1">  1        1 0.37739733E+00 0.64431019E+03</pdfrwt>
<pdfrwt beam="2">0</pdfrwt>
<totfact> 0.16866759E+00</totfact>
</mgrwt>
</event>
<event>
 6    1  0.2450233E-003  0.6491769E+03  0.7818608E-02  0.9808325E-01
          1   -1    0    0  502    0  0.00000000000E+00  0.00000000000E+00  0.10536047238E+03  0.10536047238E+03  0.00000000000E+00 0.  1.
         13   -1    0    0    0    0 -0.00000000000E+00 -0.00000000000E+00 -0.10000000000E+04  0.10000000000E+04  0.00000000000E+00 0.  1.
    9000005    2    1    2  501    0  0.15535398325E-03  0.32224984045E-03 -0.89464231560E+03  0.11053576615E+04  0.64917693048E+03 0.  0.
         13    1    3    3    0    0  0.16400039982E+02  0.29776233542E+03 -0.22909312583E+03  0.37605189802E+03  0.00000000000E+00 0.  1.
          1    1    3    3  501    0 -0.16399884628E+02 -0.29776201317E+03 -0.66554918977E+03  0.72930576352E+03  0.00000000000E+00 0.  1.
         21    1    1    2  502  501 -0.15535398325E-03 -0.32224984043E-03  0.27879760311E-02  0.28108344259E-02  0.00000000000E+00 0.  1.
<mgrwt>
<rscale>  1 0.64917693E+03</rscale>
<asrwt>0</asrwt>
<pdfrwt beam="1">  1        1 0.38312980E+00 0.64917693E+03</pdfrwt>
<pdfrwt beam="2">0</pdfrwt>
<totfact> 0.15898150E+00</totfact>
</mgrwt>
</event>
<event>
 6    1  0.2450233E-003  0.6450703E+03  0.7818608E-02  0.9816074E-01
          1   -1    0    0  502    0  0.00000000000E+00  0.00000000000E+00  0.10413835806E+03  0.10413835806E+03  0.00000000000E+00 0.  1.
         13   -1    0    0    0    0 -0.00000000000E+00 -0.00000000000E+00 -0.10000000000E+04  0.10000000000E+04  0.00000000000E+00 0.  1.
    9000005    2    1    2  501    0 -0.21697043505E-02 -0.29657788565E-03 -0.89597108043E+03  0.11040288977E+04  0.64507025190E+03 0.  0.
         13    1    3    3    0    0  0.30753150374E+03  0.92230538726E+02 -0.50062761611E+03  0.59473532607E+03  0.00000000000E+00 0.  1.
          3    1    3    3  501    0 -0.30753367344E+03 -0.92230835304E+02 -0.39534346433E+03  0.50929357159E+03  0.00000000000E+00 0.  1.
         21    1    1    2  502  501  0.21697043505E-02  0.29657788566E-03  0.10943848987E+00  0.10946039759E+00  0.00000000000E+00 0.  1.
<mgrwt>
<rscale>  1 0.64507025E+03</rscale>
<asrwt>0</asrwt>
<pdfrwt beam="1">  1        1 0.37868574E+00 0.64507025E+03</pdfrwt>
<pdfrwt beam="2">0</pdfrwt>
<totfact> 0.16645303E+00</totfact>
</mgrwt>
</event>
<event>
 6    1  0.2450233E-003  0.6513221E+03  0.7818608E-02  0.9804301E-01
          1   -1    0    0  502    0  0.00000000000E+00  0.00000000000E+00  0.10663216715E+03  0.10663216715E+03  0.00000000000E+00 0.  1.
         13   -1    0    0    0    0 -0.00000000000E+00 -0.00000000000E+00 -0.10000000000E+04  0.10000000000E+04  0.00000000000E+00 0.  1.
    9000005    2    1    2  501    0  0.91413908585E+00  0.11715785632E+01 -0.89257388955E+03  0.11049473548E+04  0.65132042834E+03 0.  0.
         13    1    3    3    0    0  0.21721383729E+03  0.13458651965E+03 -0.79102498971E+03  0.83127367138E+03  0.00000000000E+00 0.  1.
          1    1    3    3  501    0 -0.21629969820E+03 -0.13341494109E+03 -0.10154889984E+03  0.27367368344E+03  0.00000000000E+00 0.  1.
         21    1    1    2  502  501 -0.91413908585E+00 -0.11715785632E+01 -0.79394330481E+00  0.16848123246E+01  0.00000000000E+00 0.  1.
<mgrwt>
<rscale>  1 0.65132212E+03</rscale>
<asrwt>0</asrwt>
<pdfrwt beam="1">  1        1 0.38775415E+00 0.65132212E+03</pdfrwt>
<pdfrwt beam="2">0</pdfrwt>
<totfact> 0.15160569E+00</totfact>
</mgrwt>
</event>
<event>
 6    1  0.2450233E-003  0.5249987E+03  0.7818608E-02  0.1007452E+00
          1   -1    0    0  502    0  0.00000000000E+00  0.00000000000E+00  0.69269007786E+02  0.69269007786E+02  0.00000000000E+00 0.  1.
         13   -1    0    0    0    0 -0.00000000000E+00 -0.00000000000E+00 -0.10000000000E+04  0.10000000000E+04  0.00000000000E+00 0.  1.
    9000005    2    1    2  501    0 -0.43149671751E-02 -0.11703045955E-01 -0.93109397476E+03  0.10689058110E+04  0.52499870741E+03 0.  0.
         13    1    3    3    0    0 -0.23206648685E+03 -0.29375619716E+02 -0.70808091259E+03  0.74571868699E+03  0.00000000000E+00 0.  1.
          3    1    3    3  501    0  0.23206217188E+03  0.29363916670E+02 -0.22301306217E+03  0.32318712400E+03  0.00000000000E+00 0.  1.
         21    1    1    2  502  501  0.43149671751E-02  0.11703045955E-01  0.36298254787E+00  0.36319679278E+00  0.00000000000E+00 0. -1.
<mgrwt>
<rscale>  1 0.52499871E+03</rscale>
<asrwt>0</asrwt>
<pdfrwt beam="1">  1        1 0.25188783E+00 0.52499871E+03</pdfrwt>
<pdfrwt beam="2">0</pdfrwt>
<totfact> 0.60347995E+00</totfact>
</mgrwt>
</event>
<event>
 6    1  0.2450233E-003  0.6460893E+03  0.7818608E-02  0.9814145E-01
          1   -1    0    0  502    0  0.00000000000E+00  0.00000000000E+00  0.10435805815E+03  0.10435805815E+03  0.00000000000E+00 0.  1.
         13   -1    0    0    0    0 -0.00000000000E+00 -0.00000000000E+00 -0.10000000000E+04  0.10000000000E+04  0.00000000000E+00 0.  1.
    9000005    2    1    2  501    0 -0.22002317934E-04  0.52002653206E-06 -0.89564214265E+03  0.11043578561E+04  0.64608933341E+03 0.  0.
         13    1    3    3    0    0  0.58863991450E+02 -0.14002552208E+03 -0.93515251113E+03  0.94740822003E+03  0.00000000000E+00 0.  1.
          3    1    3    3  501    0 -0.58864013452E+02  0.14002552260E+03  0.39510368476E+02  0.15694963611E+03  0.00000000000E+00 0.  1.
         21    1    1    2  502  501  0.22002317929E-04 -0.52002653902E-06  0.20080227090E-03  0.20200476336E-03  0.00000000000E+00 0.  1.
<mgrwt>
<rscale>  1 0.64608933E+03</rscale>
<asrwt>0</asrwt>
<pdfrwt beam="1">  1        1 0.37948465E+00 0.64608933E+03</pdfrwt>
<pdfrwt beam="2">0</pdfrwt>
<totfact> 0.16507716E+00</totfact>
</mgrwt>
</event>
<event>
 6    1  0.2450233E-003  0.6578383E+03  0.7818608E-02  0.9792181E-01
          1   -1    0    0  502    0  0.00000000000E+00  0.00000000000E+00  0.10922441683E+03  0.10922441683E+03  0.00000000000E+00 0.  1.
         13   -1    0    0    0    0 -0.00000000000E+00 -0.00000000000E+00 -0.10000000000E+04  0.10000000000E+04  0.00000000000E+00 0.  1.
    9000005    2    1    2  501    0 -0.11295187859E+00 -0.10530596156E-01 -0.89180873619E+03  0.11081850544E+04  0.65783833886E+03 0.  0.
         13    1    3    3    0    0  0.19629802274E+03  0.24932406078E+03 -0.30027912615E+03  0.43687864977E+03  0.00000000000E+00 0.  1.
          3    1    3    3  501    0 -0.19641097462E+03 -0.24933459138E+03 -0.59152961003E+03  0.67130640467E+03  0.00000000000E+00 0.  1.
         21    1    1    2  502  501  0.11295187859E+00  0.10530596156E-01  0.10331530150E+01  0.10393623875E+01  0.00000000000E+00 0. -1.
<mgrwt>
<rscale>  1 0.65783835E+03</rscale>
<asrwt>0</asrwt>
<pdfrwt beam="1">  1        1 0.39718054E+00 0.65783835E+03</pdfrwt>
<pdfrwt beam="2">0</pdfrwt>
<totfact> 0.13750911E+00</totfact>
</mgrwt>
</event>
<event>
 6    1  0.2450233E-003  0.6563478E+03  0.7818608E-02  0.9794940E-01
          1   -1    0    0  502    0  0.00000000000E+00  0.00000000000E+00  0.10774217376E+03  0.10774217376E+03  0.00000000000E+00 0.  1.
         13   -1    0    0    0    0 -0.00000000000E+00 -0.00000000000E+00 -0.10000000000E+04  0.10000000000E+04  0.00000000000E+00 0.  1.
    9000005    2    1    2  501    0 -0.30882527722E-02 -0.15355010194E-01 -0.89230035145E+03  0.11076968559E+04  0.65634777911E+03 0.  0.
         13    1    3    3    0    0  0.12078598404E+02 -0.30896381331E+03 -0.26052970224E+03  0.40432691751E+03  0.00000000000E+00 0.  1.
          1    1    3    3  501    0 -0.12081686657E+02  0.30894845830E+03 -0.63177064921E+03  0.70336993840E+03  0.00000000000E+00 0.  1.
         21    1    1    2  502  501  0.30882527722E-02  0.15355010194E-01  0.42525210021E-01  0.45317845608E-01  0.00000000000E+00 0. -1.
<mgrwt>
<rscale>  1 0.65634778E+03</rscale>
<asrwt>0</asrwt>
<pdfrwt beam="1">  1        1 0.39179055E+00 0.65634778E+03</pdfrwt>
<pdfrwt beam="2">0</pdfrwt>
<totfact> 0.14534917E+00</totfact>
</mgrwt>
</event>
<event>
 6    1  0.2450233E-003  0.6553705E+03  0.7818608E-02  0.9796754E-01
          1   -1    0    0  502    0  0.00000000000E+00  0.00000000000E+00  0.10788216296E+03  0.10788216296E+03  0.00000000000E+00 0.  1.
         13   -1    0    0    0    0 -0.00000000000E+00 -0.00000000000E+00 -0.10000000000E+04  0.10000000000E+04  0.00000000000E+00 0.  1.
    9000005    2    1    2  501    0  0.50230816690E-01 -0.27788586235E+00 -0.89257826282E+03  0.11073420374E+04  0.65537039364E+03 0.  0.
         13    1    3    3    0    0  0.52516225247E+02 -0.12587222521E+03 -0.94990749987E+03  0.95964890940E+03  0.00000000000E+00 0.  1.
          1    1    3    3  501    0 -0.52465994430E+02  0.12559433935E+03  0.57329237050E+02  0.14769312803E+03  0.00000000000E+00 0.  1.
         21    1    1    2  502  501 -0.50230816690E-01  0.27788586235E+00  0.46042578403E+00  0.54012553174E+00  0.00000000000E+00 0.  1.
<mgrwt>
<rscale>  1 0.65537045E+03</rscale>
<asrwt>0</asrwt>
<pdfrwt beam="1">  1        1 0.39229960E+00 0.65537045E+03</pdfrwt>
<pdfrwt beam="2">0</pdfrwt>
<totfact> 0.14462104E+00</totfact>
</mgrwt>
</event>
<event>
 6    1  0.2450233E-003  0.6372826E+03  0.7818608E-02  0.9830939E-01
          1   -1    0    0  502    0  0.00000000000E+00  0.00000000000E+00  0.10153295878E+03  0.10153295878E+03  0.00000000000E+00 0.  1.
         13   -1    0    0    0    0 -0.00000000000E+00 -0.00000000000E+00 -0.10000000000E+04  0.10000000000E+04  0.00000000000E+00 0.  1.
    9000005    2    1    2  501    0  0.12307392126E-04  0.49993859591E-04 -0.89846770859E+03  0.11015322894E+04  0.63728263844E+03 0.  0.
         13    1    3    3    0    0 -0.66949409172E+02 -0.25302613079E+03 -0.76336075401E+03  0.80698456430E+03  0.00000000000E+00 0.  1.
          3    1    3    3  501    0  0.66949421479E+02  0.25302618079E+03 -0.13510695459E+03  0.29454772513E+03  0.00000000000E+00 0.  1.
         21    1    1    2  502  501 -0.12307392121E-04 -0.49993859593E-04  0.66737307865E-03  0.66935617126E-03  0.00000000000E+00 0. -1.
<mgrwt>
<rscale>  1 0.63728264E+03</rscale>
<asrwt>0</asrwt>
<pdfrwt beam="1">  1        1 0.36921154E+00 0.63728264E+03</pdfrwt>
<pdfrwt beam="2">0</pdfrwt>
<totfact> 0.18348214E+00</totfact>
</mgrwt>
</event>
<event>
 6    1  0.2450233E-003  0.6968908E+03  0.7818608E-02  0.9722564E-01
          1   -1    0    0  502    0  0.00000000000E+00  0.00000000000E+00  0.12851157347E+03  0.12851157347E+03  0.00000000000E+00 0.  1.
         13   -1    0    0    0    0 -0.00000000000E+00 -0.00000000000E+00 -0.10000000000E+04  0.10000000000E+04  0.00000000000E+00 0.  1.
    9000005    2    1    2  501    0 -0.37743631701E+01  0.12802228711E+02 -0.87055276263E+03  0.11151317998E+04  0.69676299806E+03 0.  0.
         13    1    3    3    0    0  0.14862131473E+03 -0.25064119234E+03 -0.71761451271E+03  0.77451913555E+03  0.00000000000E+00 0.  1.
          1    1    3    3  501    0 -0.15239567790E+03  0.26344342105E+03 -0.15293824992E+03  0.34061266421E+03  0.00000000000E+00 0.  1.
         21    1    1    2  502  501  0.37743631701E+01 -0.12802228711E+02 -0.93566390590E+00  0.13379773699E+02  0.00000000000E+00 0.  1.
<mgrwt>
<rscale>  1 0.69689082E+03</rscale>
<asrwt>0</asrwt>
<pdfrwt beam="1">  1        1 0.46731580E+00 0.69689082E+03</pdfrwt>
<pdfrwt beam="2">0</pdfrwt>
<totfact> 0.65396482E-01</totfact>
</mgrwt>
</event>
<event>
 6    1  0.2450233E-003  0.6153097E+03  0.7818608E-02  0.9874143E-01
          1   -1    0    0  502    0  0.00000000000E+00  0.00000000000E+00  0.95810442393E+02  0.95810442393E+02  0.00000000000E+00 0.  1.
         13   -1    0    0    0    0 -0.00000000000E+00 -0.00000000000E+00 -0.10000000000E+04  0.10000000000E+04  0.00000000000E+00 0.  1.
    9000005    2    1    2  501    0  0.16194682741E+00  0.14819448930E+00 -0.90533710847E+03  0.10946420840E+04  0.61530964878E+03 0.  0.
         13    1    3    3    0    0  0.25772228480E+03 -0.60308186619E+02 -0.73192358563E+03  0.77831226938E+03  0.00000000000E+00 0.  1.
          3    1    3    3  501    0 -0.25756033797E+03  0.60456381108E+02 -0.17341352283E+03  0.31632981461E+03  0.00000000000E+00 0.  1.
         21    1    1    2  502  501 -0.16194682741E+00 -0.14819448930E+00  0.11475508600E+01  0.11683584030E+01  0.00000000000E+00 0.  1.
<mgrwt>
<rscale>  1 0.61530969E+03</rscale>
<asrwt>0</asrwt>
<pdfrwt beam="1">  1        1 0.34840234E+00 0.61530969E+03</pdfrwt>
<pdfrwt beam="2">0</pdfrwt>
<totfact> 0.22713628E+00</totfact>
</mgrwt>
</event>
<event>
 6    1  0.2450233E-003  0.6440998E+03  0.7818608E-02  0.9817914E-01
          1   -1    0    0  502    0  0.00000000000E+00  0.00000000000E+00  0.10371829778E+03  0.10371829778E+03  0.00000000000E+00 0.  1.
         13   -1    0    0    0    0 -0.00000000000E+00 -0.00000000000E+00 -0.10000000000E+04  0.10000000000E+04  0.00000000000E+00 0.  1.
    9000005    2    1    2  501    0  0.29816887346E-03 -0.14307610166E-03 -0.89628384691E+03  0.11037161277E+04  0.64409980314E+03 0.  0.
         13    1    3    3    0    0  0.25311581356E+03  0.15937005636E+03 -0.24358801435E+03  0.38574804040E+03  0.00000000000E+00 0.  1.
          3    1    3    3  501    0 -0.25311551539E+03 -0.15937019943E+03 -0.65269583256E+03  0.71796808734E+03  0.00000000000E+00 0.  1.
         21    1    1    2  502  501 -0.29816887347E-03  0.14307610165E-03  0.21446873434E-02  0.21700366930E-02  0.00000000000E+00 0.  1.
<mgrwt>
<rscale>  1 0.64409980E+03</rscale>
<asrwt>0</asrwt>
<pdfrwt beam="1">  1        1 0.37715824E+00 0.64409980E+03</pdfrwt>
<pdfrwt beam="2">0</pdfrwt>
<totfact> 0.16908377E+00</totfact>
</mgrwt>
</event>
<event>
 6    1  0.2450233E-003  0.6366028E+03  0.7818608E-02  0.9832248E-01
          1   -1    0    0  502    0  0.00000000000E+00  0.00000000000E+00  0.11218643697E+03  0.11218643697E+03  0.00000000000E+00 0.  1.
         13   -1    0    0    0    0 -0.00000000000E+00 -0.00000000000E+00 -0.10000000000E+04  0.10000000000E+04  0.00000000000E+00 0.  1.
    9000005    2    1    2  501    0 -0.11861534011E+01  0.33377825408E+01 -0.89836553553E+03  0.11010557642E+04  0.63659297258E+03 0.  0.
         13    1    3    3    0    0  0.16823918727E+03 -0.22650915767E+03 -0.69616645199E+03  0.75117145281E+03  0.00000000000E+00 0.  1.
          1    1    3    3  501    0 -0.16942534067E+03  0.22984694021E+03 -0.20219908354E+03  0.34988431141E+03  0.00000000000E+00 0.  1.
         21    1    1    2  502  501  0.11861534011E+01 -0.33377825408E+01  0.10551972502E+02  0.11130672750E+02  0.00000000000E+00 0. -1.
<mgrwt>
<rscale>  1 0.63660283E+03</rscale>
<asrwt>0</asrwt>
<pdfrwt beam="1">  1        1 0.40795154E+00 0.63660283E+03</pdfrwt>
<pdfrwt beam="2">0</pdfrwt>
<totfact> 0.12360300E+00</totfact>
</mgrwt>
</event>
<event>
 6    1  0.2450233E-003  0.6890599E+03  0.7818608E-02  0.9736126E-01
          1   -1    0    0  502    0  0.00000000000E+00  0.00000000000E+00  0.11886592186E+03  0.11886592186E+03  0.00000000000E+00 0.  1.
         13   -1    0    0    0    0 -0.00000000000E+00 -0.00000000000E+00 -0.10000000000E+04  0.10000000000E+04  0.00000000000E+00 0.  1.
    9000005    2    1    2  501    0 -0.37356403526E-01 -0.88626530055E-01 -0.88128326167E+03  0.11186884229E+04  0.68905993275E+03 0.  0.
         13    1    3    3    0    0 -0.26632547266E+03  0.21829816772E+03 -0.45750780296E+03  0.57262268309E+03  0.00000000000E+00 0.  1.
          1    1    3    3  501    0  0.26628811626E+03 -0.21838679425E+03 -0.42377545871E+03  0.54606573978E+03  0.00000000000E+00 0.  1.
         21    1    1    2  502  501  0.37356403526E-01  0.88626530055E-01  0.14918353192E+00  0.17749898284E+00  0.00000000000E+00 0.  1.
<mgrwt>
<rscale>  1 0.68905994E+03</rscale>
<asrwt>0</asrwt>
<pdfrwt beam="1">  1        1 0.43224063E+00 0.68905994E+03</pdfrwt>
<pdfrwt beam="2">0</pdfrwt>
<totfact> 0.95058086E-01</totfact>
</mgrwt>
</event>
<event>
 6    1  0.2450233E-003  0.6360649E+03  0.7818608E-02  0.9833284E-01
          1   -1    0    0  502    0  0.00000000000E+00  0.00000000000E+00  0.11524246242E+03  0.11524246242E+03  0.00000000000E+00 0.  1.
         13   -1    0    0    0    0 -0.00000000000E+00 -0.00000000000E+00 -0.10000000000E+04  0.10000000000E+04  0.00000000000E+00 0.  1.
    9000005    2    1    2  501    0  0.63720525787E+00  0.24284470807E+01 -0.89873216361E+03  0.11010440978E+04  0.63605998142E+03 0.  0.
         13    1    3    3    0    0 -0.27593589140E+03  0.87998070786E+02 -0.22179472923E+03  0.36479744864E+03  0.00000000000E+00 0.  1.
          3    1    3    3  501    0  0.27657309666E+03 -0.85569623705E+02 -0.67693743438E+03  0.73624664913E+03  0.00000000000E+00 0.  1.
         21    1    1    2  502  501 -0.63720525787E+00 -0.24284470807E+01  0.13974626035E+02  0.14198364645E+02  0.00000000000E+00 0.  1.
<mgrwt>
<rscale>  1 0.63606494E+03</rscale>
<asrwt>0</asrwt>
<pdfrwt beam="1">  1        1 0.41906438E+00 0.63606494E+03</pdfrwt>
<pdfrwt beam="2">0</pdfrwt>
<totfact> 0.11019965E+00</totfact>
</mgrwt>
</event>
<event>
 6    1  0.2450233E-003  0.6549704E+03  0.7818608E-02  0.9797497E-01
          1   -1    0    0  502    0  0.00000000000E+00  0.00000000000E+00  0.10731764395E+03  0.10731764395E+03  0.00000000000E+00 0.  1.
         13   -1    0    0    0    0 -0.00000000000E+00 -0.00000000000E+00 -0.10000000000E+04  0.10000000000E+04  0.00000000000E+00 0.  1.
    9000005    2    1    2  501    0 -0.47543968278E-02 -0.29765131689E-01 -0.89274989525E+03  0.11072436838E+04  0.65497038012E+03 0.  0.
         13    1    3    3    0    0 -0.28412555526E+03  0.16058422775E+03 -0.40073944703E+03  0.51682369311E+03  0.00000000000E+00 0.  1.
          1    1    3    3  501    0  0.28412080086E+03 -0.16061399289E+03 -0.49201044822E+03  0.59041999065E+03  0.00000000000E+00 0.  1.
         21    1    1    2  502  501  0.47543968278E-02  0.29765131689E-01  0.67539196552E-01  0.73960194866E-01  0.00000000000E+00 0.  1.
<mgrwt>
<rscale>  1 0.65497038E+03</rscale>
<asrwt>0</asrwt>
<pdfrwt beam="1">  1        1 0.39024680E+00 0.65497038E+03</pdfrwt>
<pdfrwt beam="2">0</pdfrwt>
<totfact> 0.14769761E+00</totfact>
</mgrwt>
</event>
<event>
 6    1  0.2450233E-003  0.6478570E+03  0.7818608E-02  0.9810809E-01
          1   -1    0    0  502    0  0.00000000000E+00  0.00000000000E+00  0.10500779611E+03  0.10500779611E+03  0.00000000000E+00 0.  1.
         13   -1    0    0    0    0 -0.00000000000E+00 -0.00000000000E+00 -0.10000000000E+04  0.10000000000E+04  0.00000000000E+00 0.  1.
    9000005    2    1    2  501    0  0.16864218245E-02 -0.10187476568E-02 -0.89507032199E+03  0.11049296532E+04  0.64785697274E+03 0.  0.
         13    1    3    3    0    0  0.26628920945E+03  0.92581368673E+02 -0.71961105487E+03  0.77286565662E+03  0.00000000000E+00 0.  1.
          1    1    3    3  501    0 -0.26628752303E+03 -0.92582387421E+02 -0.17545926712E+03  0.33206399655E+03  0.00000000000E+00 0.  1.
         21    1    1    2  502  501 -0.16864218245E-02  0.10187476568E-02  0.78118101482E-01  0.78142943664E-01  0.00000000000E+00 0. -1.
<mgrwt>
<rscale>  1 0.64785697E+03</rscale>
<asrwt>0</asrwt>
<pdfrwt beam="1">  1        1 0.38184734E+00 0.64785697E+03</pdfrwt>
<pdfrwt beam="2">0</pdfrwt>
<totfact> 0.16110821E+00</totfact>
</mgrwt>
</event>
<event>
 6    1  0.2450233E-003  0.6538035E+03  0.7818608E-02  0.9799668E-01
          1   -1    0    0  502    0  0.00000000000E+00  0.00000000000E+00  0.10928559415E+03  0.10928559415E+03  0.00000000000E+00 0.  1.
         13   -1    0    0    0    0 -0.00000000000E+00 -0.00000000000E+00 -0.10000000000E+04  0.10000000000E+04  0.00000000000E+00 0.  1.
    9000005    2    1    2  501    0 -0.85056469900E-01  0.15107614540E+00 -0.89313181811E+03  0.11068619728E+04  0.65380345072E+03 0.  0.
         13    1    3    3    0    0 -0.19303099246E+03 -0.26335512912E+03 -0.42115229007E+03  0.53290349925E+03  0.00000000000E+00 0.  1.
          3    1    3    3  501    0  0.19294593599E+03  0.26350620526E+03 -0.47197952804E+03  0.57395847351E+03  0.00000000000E+00 0.  1.
         21    1    1    2  502  501  0.85056469900E-01 -0.15107614540E+00  0.24174122527E+01  0.24236213822E+01  0.00000000000E+00 0. -1.
<mgrwt>
<rscale>  1 0.65380347E+03</rscale>
<asrwt>0</asrwt>
<pdfrwt beam="1">  1        1 0.39740300E+00 0.65380347E+03</pdfrwt>
<pdfrwt beam="2">0</pdfrwt>
<totfact> 0.13729992E+00</totfact>
</mgrwt>
</event>
<event>
 6    1  0.2450233E-003  0.6385691E+03  0.7818608E-02  0.9828468E-01
          1   -1    0    0  502    0  0.00000000000E+00  0.00000000000E+00  0.10214419401E+03  0.10214419401E+03  0.00000000000E+00 0.  1.
         13   -1    0    0    0    0 -0.00000000000E+00 -0.00000000000E+00 -0.10000000000E+04  0.10000000000E+04  0.00000000000E+00 0.  1.
    9000005    2    1    2  501    0 -0.20298319020E-01 -0.43326184535E+00 -0.89775955607E+03  0.11016999059E+04  0.63856892665E+03 0.  0.
         13    1    3    3    0    0 -0.25909503944E+03  0.12311691050E+03 -0.20719719798E+03  0.35386253257E+03  0.00000000000E+00 0.  1.
          3    1    3    3  501    0  0.25907474112E+03 -0.12355017234E+03 -0.69056235809E+03  0.74783737335E+03  0.00000000000E+00 0.  1.
         21    1    1    2  502  501  0.20298319020E-01  0.43326184535E+00 -0.96249923648E-01  0.44428807794E+00  0.00000000000E+00 0. -1.
<mgrwt>
<rscale>  1 0.63856907E+03</rscale>
<asrwt>0</asrwt>
<pdfrwt beam="1">  1        1 0.37143422E+00 0.63856907E+03</pdfrwt>
<pdfrwt beam="2">0</pdfrwt>
<totfact> 0.17936141E+00</totfact>
</mgrwt>
</event>
<event>
 6    1  0.2450233E-003  0.6522113E+03  0.7818608E-02  0.9802639E-01
          1   -1    0    0  502    0  0.00000000000E+00  0.00000000000E+00  0.11363052060E+03  0.11363052060E+03  0.00000000000E+00 0.  1.
         13   -1    0    0    0    0 -0.00000000000E+00 -0.00000000000E+00 -0.10000000000E+04  0.10000000000E+04  0.00000000000E+00 0.  1.
    9000005    2    1    2  501    0  0.31607743759E-01  0.12439734790E+00 -0.89365446912E+03  0.11063444003E+04  0.65221131961E+03 0.  0.
         13    1    3    3    0    0  0.12116597568E+03 -0.62950232025E+02  0.55517182331E+02  0.14739770320E+03  0.00000000000E+00 0.  1.
          1    1    3    3  501    0 -0.12113436793E+03  0.63074629373E+02 -0.94917165145E+03  0.95894669710E+03  0.00000000000E+00 0.  1.
         21    1    1    2  502  501 -0.31607743759E-01 -0.12439734790E+00  0.72849897265E+01  0.72861203026E+01  0.00000000000E+00 0.  1.
<mgrwt>
<rscale>  1 0.65221133E+03</rscale>
<asrwt>0</asrwt>
<pdfrwt beam="1">  1        1 0.41320276E+00 0.65221133E+03</pdfrwt>
<pdfrwt beam="2">0</pdfrwt>
<totfact> 0.11672399E+00</totfact>
</mgrwt>
</event>
<event>
 6    1  0.2450233E-003  0.5888057E+03  0.7818608E-02  0.9928907E-01
          1   -1    0    0  502    0  0.00000000000E+00  0.00000000000E+00  0.86673347681E+02  0.86673347681E+02  0.00000000000E+00 0.  1.
         13   -1    0    0    0    0 -0.00000000000E+00 -0.00000000000E+00 -0.10000000000E+04  0.10000000000E+04  0.00000000000E+00 0.  1.
    9000005    2    1    2  501    0 -0.50917535077E-06  0.85099879755E-04 -0.91332696072E+03  0.10866730278E+04  0.58880568278E+03 0.  0.
         13    1    3    3    0    0  0.17317168444E+03 -0.15712205944E+03 -0.78679207734E+03  0.82080298904E+03  0.00000000000E+00 0.  1.
          1    1    3    3  501    0 -0.17317168495E+03  0.15712214454E+03 -0.12653488338E+03  0.26587003872E+03  0.00000000000E+00 0.  1.
         21    1    1    2  502  501  0.50917535971E-06 -0.85099879760E-04  0.30839910667E-03  0.31992539410E-03  0.00000000000E+00 0.  1.
<mgrwt>
<rscale>  1 0.58880568E+03</rscale>
<asrwt>0</asrwt>
<pdfrwt beam="1">  1        1 0.31517647E+00 0.58880568E+03</pdfrwt>
<pdfrwt beam="2">0</pdfrwt>
<totfact> 0.31795119E+00</totfact>
</mgrwt>
</event>
<event>
 6    1  0.2450233E-003  0.6552329E+03  0.7818608E-02  0.9797009E-01
          1   -1    0    0  502    0  0.00000000000E+00  0.00000000000E+00  0.10755405593E+03  0.10755405593E+03  0.00000000000E+00 0.  1.
         13   -1    0    0    0    0 -0.00000000000E+00 -0.00000000000E+00 -0.10000000000E+04  0.10000000000E+04  0.00000000000E+00 0.  1.
    9000005    2    1    2  501    0  0.42585668141E-01 -0.51463185771E-01 -0.89266187606E+03  0.11073280280E+04  0.65523288391E+03 0.  0.
         13    1    3    3    0    0  0.22335039262E+03  0.31817819358E+02 -0.44848512062E+02  0.23001991337E+03  0.00000000000E+00 0.  1.
          1    1    3    3  501    0 -0.22330780695E+03 -0.31869282544E+02 -0.84781336400E+03  0.87730811463E+03  0.00000000000E+00 0.  1.
         21    1    1    2  502  501 -0.42585668141E-01  0.51463185771E-01  0.21593199480E+00  0.22602792968E+00  0.00000000000E+00 0.  1.
<mgrwt>
<rscale>  1 0.65523289E+03</rscale>
<asrwt>0</asrwt>
<pdfrwt beam="1">  1        1 0.39110648E+00 0.65523289E+03</pdfrwt>
<pdfrwt beam="2">0</pdfrwt>
<totfact> 0.14639912E+00</totfact>
</mgrwt>
</event>
<event>
 6    1  0.2450233E-003  0.6460805E+03  0.7818608E-02  0.9814162E-01
          1   -1    0    0  502    0  0.00000000000E+00  0.00000000000E+00  0.10436793140E+03  0.10436793140E+03  0.00000000000E+00 0.  1.
         13   -1    0    0    0    0 -0.00000000000E+00 -0.00000000000E+00 -0.10000000000E+04  0.10000000000E+04  0.00000000000E+00 0.  1.
    9000005    2    1    2  501    0  0.32753916148E-02 -0.97601666781E-02 -0.89564270274E+03  0.11043531303E+04  0.64608047890E+03 0.  0.
         13    1    3    3    0    0 -0.16763327911E+03 -0.33861992306E+02  0.20628004237E+02  0.17225871632E+03  0.00000000000E+00 0.  1.
          3    1    3    3  501    0  0.16763655450E+03  0.33852232140E+02 -0.91627070698E+03  0.93209441394E+03  0.00000000000E+00 0.  1.
         21    1    1    2  502  501 -0.32753916148E-02  0.97601666781E-02  0.10634141823E-01  0.14801149149E-01  0.00000000000E+00 0. -1.
<mgrwt>
<rscale>  1 0.64608048E+03</rscale>
<asrwt>0</asrwt>
<pdfrwt beam="1">  1        1 0.37952055E+00 0.64608048E+03</pdfrwt>
<pdfrwt beam="2">0</pdfrwt>
<totfact> 0.16501724E+00</totfact>
</mgrwt>
</event>
<event>
 6    1  0.2450233E-003  0.6426101E+03  0.7818608E-02  0.9820746E-01
          1   -1    0    0  502    0  0.00000000000E+00  0.00000000000E+00  0.10738099689E+03  0.10738099689E+03  0.00000000000E+00 0.  1.
         13   -1    0    0    0    0 -0.00000000000E+00 -0.00000000000E+00 -0.10000000000E+04  0.10000000000E+04  0.00000000000E+00 0.  1.
    9000005    2    1    2  501    0 -0.25936221478E+01  0.11395090235E+01 -0.89622231493E+03  0.11027974161E+04  0.64260382652E+03 0.  0.
         13    1    3    3    0    0 -0.53032992119E+02  0.31714778606E+03 -0.48069987347E+03  0.57833172558E+03  0.00000000000E+00 0.  1.
          3    1    3    3  501    0  0.50439369971E+02 -0.31600827703E+03 -0.41552244146E+03  0.52446569054E+03  0.00000000000E+00 0.  1.
         21    1    1    2  502  501  0.25936221478E+01 -0.11395090235E+01  0.36033118201E+01  0.45835807763E+01  0.00000000000E+00 0. -1.
<mgrwt>
<rscale>  1 0.64261007E+03</rscale>
<asrwt>0</asrwt>
<pdfrwt beam="1">  1        1 0.39047718E+00 0.64261007E+03</pdfrwt>
<pdfrwt beam="2">0</pdfrwt>
<totfact> 0.14769165E+00</totfact>
</mgrwt>
</event>
<event>
 6    1  0.2450233E-003  0.6529269E+03  0.7818608E-02  0.9801303E-01
          1   -1    0    0  502    0  0.00000000000E+00  0.00000000000E+00  0.10659433372E+03  0.10659433372E+03  0.00000000000E+00 0.  1.
         13   -1    0    0    0    0 -0.00000000000E+00 -0.00000000000E+00 -0.10000000000E+04  0.10000000000E+04  0.00000000000E+00 0.  1.
    9000005    2    1    2  501    0 -0.25641743430E-02  0.58965198946E-03 -0.89342149977E+03  0.11065782831E+04  0.65292688747E+03 0.  0.
         13    1    3    3    0    0 -0.97795920406E+02  0.14617084676E+03  0.19430819955E+02  0.17693929822E+03  0.00000000000E+00 0.  1.
          1    1    3    3  501    0  0.97793356231E+02 -0.14617025711E+03 -0.91285231973E+03  0.92963898489E+03  0.00000000000E+00 0.  1.
         21    1    1    2  502  501  0.25641743430E-02 -0.58965198947E-03  0.15833497753E-01  0.16050617765E-01  0.00000000000E+00 0.  1.
<mgrwt>
<rscale>  1 0.65292689E+03</rscale>
<asrwt>0</asrwt>
<pdfrwt beam="1">  1        1 0.38761658E+00 0.65292689E+03</pdfrwt>
<pdfrwt beam="2">0</pdfrwt>
<totfact> 0.15177344E+00</totfact>
</mgrwt>
</event>
<event>
 6    1  0.2450233E-003  0.6533297E+03  0.7818608E-02  0.9800551E-01
          1   -1    0    0  502    0  0.00000000000E+00  0.00000000000E+00  0.10696243420E+03  0.10696243420E+03  0.00000000000E+00 0.  1.
         13   -1    0    0    0    0 -0.00000000000E+00 -0.00000000000E+00 -0.10000000000E+04  0.10000000000E+04  0.00000000000E+00 0.  1.
    9000005    2    1    2  501    0 -0.75584276163E-02 -0.16016627521E-01 -0.89328973002E+03  0.11067096488E+04  0.65332970595E+03 0.  0.
         13    1    3    3    0    0 -0.30140532818E+03 -0.90371603903E+02 -0.29799488688E+03  0.43337414697E+03  0.00000000000E+00 0.  1.
          1    1    3    3  501    0  0.30139776976E+03  0.90355587276E+02 -0.59529484314E+03  0.67333550184E+03  0.00000000000E+00 0.  1.
         21    1    1    2  502  501  0.75584276164E-02  0.16016627521E-01  0.25216421806E+00  0.25278539328E+00  0.00000000000E+00 0. -1.
<mgrwt>
<rscale>  1 0.65332971E+03</rscale>
<asrwt>0</asrwt>
<pdfrwt beam="1">  1        1 0.38895513E+00 0.65332971E+03</pdfrwt>
<pdfrwt beam="2">0</pdfrwt>
<totfact> 0.14970373E+00</totfact>
</mgrwt>
</event>
<event>
 6    1  0.2450233E-003  0.6362227E+03  0.7818608E-02  0.9832980E-01
          1   -1    0    0  502    0  0.00000000000E+00  0.00000000000E+00  0.10119678043E+03  0.10119678043E+03  0.00000000000E+00 0.  1.
         13   -1    0    0    0    0 -0.00000000000E+00 -0.00000000000E+00 -0.10000000000E+04  0.10000000000E+04  0.00000000000E+00 0.  1.
    9000005    2    1    2  501    0 -0.37975525435E-02 -0.69515412237E-03 -0.89880275949E+03  0.11011928925E+04  0.63622274867E+03 0.  0.
         13    1    3    3    0    0  0.15671084361E+03  0.67500981642E+02 -0.91408659719E+03  0.92987578643E+03  0.00000000000E+00 0.  1.
          3    1    3    3  501    0 -0.15671464116E+03 -0.67501676796E+02  0.15283837696E+02  0.17131710603E+03  0.00000000000E+00 0.  1.
         21    1    1    2  502  501  0.37975525435E-02  0.69515412237E-03 -0.46007733779E-03  0.38879706443E-02  0.00000000000E+00 0.  1.
<mgrwt>
<rscale>  1 0.63622275E+03</rscale>
<asrwt>0</asrwt>
<pdfrwt beam="1">  1        1 0.36798907E+00 0.63622275E+03</pdfrwt>
<pdfrwt beam="2">0</pdfrwt>
<totfact> 0.18579889E+00</totfact>
</mgrwt>
</event>
<event>
 6    1  0.4294585E-003  0.6534947E+03  0.7818608E-02  0.9800244E-01
          1   -1    0    0  502    0  0.00000000000E+00  0.00000000000E+00  0.10676384102E+03  0.10676384102E+03  0.00000000000E+00 0.  1.
         13   -1    0    0    0    0 -0.00000000000E+00 -0.00000000000E+00 -0.10000000000E+04  0.10000000000E+04  0.00000000000E+00 0.  1.
    9000005    2    1    2  501    0  0.71033258564E-06 -0.24225361699E-05 -0.89323615941E+03  0.11067638385E+04  0.65349472655E+03 0.  0.
         13    1    3    3    0    0 -0.67223417773E+02  0.12779054566E+03 -0.94303425409E+03  0.95402464111E+03  0.00000000000E+00 0.  1.
          3    1    3    3  501    0  0.67223418483E+02 -0.12779054808E+03  0.49798094681E+02  0.15273919734E+03  0.00000000000E+00 0.  1.
         21    1    1    2  502  501 -0.71033259272E-06  0.24225361719E-05  0.42756251719E-06  0.25604811272E-05  0.00000000000E+00 0. -1.
<mgrwt>
<rscale>  1 0.65349473E+03</rscale>
<asrwt>0</asrwt>
<pdfrwt beam="1">  1        1 0.38823297E+00 0.65349473E+03</pdfrwt>
<pdfrwt beam="2">0</pdfrwt>
<totfact> 0.15080633E+00</totfact>
</mgrwt>
</event>
<event>
 6    1  0.2450233E-003  0.6246336E+03  0.7818608E-02  0.9855577E-01
          1   -1    0    0  502    0  0.00000000000E+00  0.00000000000E+00  0.97541948009E+02  0.97541948009E+02  0.00000000000E+00 0.  1.
         13   -1    0    0    0    0 -0.00000000000E+00 -0.00000000000E+00 -0.10000000000E+04  0.10000000000E+04  0.00000000000E+00 0.  1.
    9000005    2    1    2  501    0  0.11779098955E-03  0.23329606563E-04 -0.90245818209E+03  0.10975417710E+04  0.62463362750E+03 0.  0.
         13    1    3    3    0    0  0.21222789317E+03  0.20016626537E+03 -0.64716404652E+03  0.70987922602E+03  0.00000000000E+00 0.  1.
          3    1    3    3  501    0 -0.21222777538E+03 -0.20016624204E+03 -0.25529413557E+03  0.38766254494E+03  0.00000000000E+00 0.  1.
         21    1    1    2  502  501 -0.11779098954E-03 -0.23329606575E-04  0.13009477066E-03  0.17704134295E-03  0.00000000000E+00 0. -1.
<mgrwt>
<rscale>  1 0.62463363E+03</rscale>
<asrwt>0</asrwt>
<pdfrwt beam="1">  1        1 0.35469874E+00 0.62463363E+03</pdfrwt>
<pdfrwt beam="2">0</pdfrwt>
<totfact> 0.21286817E+00</totfact>
</mgrwt>
</event>
<event>
 6    1  0.2450233E-003  0.6569709E+03  0.7818608E-02  0.9793786E-01
          1   -1    0    0  502    0  0.00000000000E+00  0.00000000000E+00  0.10901556804E+03  0.10901556804E+03  0.00000000000E+00 0.  1.
         13   -1    0    0    0    0 -0.00000000000E+00 -0.00000000000E+00 -0.10000000000E+04  0.10000000000E+04  0.00000000000E+00 0.  1.
    9000005    2    1    2  501    0  0.12414990801E+00  0.76038250318E-01 -0.89209204167E+03  0.11078984314E+04  0.65697085345E+03 0.  0.
         13    1    3    3    0    0  0.28966506089E+03 -0.11318201678E+03 -0.26752191910E+03  0.41022432110E+03  0.00000000000E+00 0.  1.
          1    1    3    3  501    0 -0.28954091098E+03  0.11325805503E+03 -0.62457012257E+03  0.69767411029E+03  0.00000000000E+00 0.  1.
         21    1    1    2  502  501 -0.12414990801E+00 -0.76038250318E-01  0.11076097091E+01  0.11171366446E+01  0.00000000000E+00 0. -1.
<mgrwt>
<rscale>  1 0.65697087E+03</rscale>
<asrwt>0</asrwt>
<pdfrwt beam="1">  1        1 0.39642108E+00 0.65697087E+03</pdfrwt>
<pdfrwt beam="2">0</pdfrwt>
<totfact> 0.13860604E+00</totfact>
</mgrwt>
</event>
<event>
 6    1  0.2450233E-003  0.6233542E+03  0.7818608E-02  0.9858104E-01
          1   -1    0    0  502    0  0.00000000000E+00  0.00000000000E+00  0.97143510303E+02  0.97143510303E+02  0.00000000000E+00 0.  1.
         13   -1    0    0    0    0 -0.00000000000E+00 -0.00000000000E+00 -0.10000000000E+04  0.10000000000E+04  0.00000000000E+00 0.  1.
    9000005    2    1    2  501    0  0.29007021567E-03  0.12733375429E-03 -0.90285734124E+03  0.10971426017E+04  0.62335424112E+03 0.  0.
         13    1    3    3    0    0  0.30431568667E+03 -0.52278164258E+01 -0.56959383060E+03  0.64581150429E+03  0.00000000000E+00 0.  1.
          1    1    3    3  501    0 -0.30431539660E+03  0.52279437596E+01 -0.33326351064E+03  0.45133109745E+03  0.00000000000E+00 0.  1.
         21    1    1    2  502  501 -0.29007021569E-03 -0.12733375429E-03  0.85154401965E-03  0.90856030753E-03  0.00000000000E+00 0.  1.
<mgrwt>
<rscale>  1 0.62335424E+03</rscale>
<asrwt>0</asrwt>
<pdfrwt beam="1">  1        1 0.35324987E+00 0.62335424E+03</pdfrwt>
<pdfrwt beam="2">0</pdfrwt>
<totfact> 0.21603925E+00</totfact>
</mgrwt>
</event>
<event>
 6    1  0.2450233E-003  0.6531910E+03  0.7818608E-02  0.9800810E-01
          1   -1    0    0  502    0  0.00000000000E+00  0.00000000000E+00  0.10763167226E+03  0.10763167226E+03  0.00000000000E+00 0.  1.
         13   -1    0    0    0    0 -0.00000000000E+00 -0.00000000000E+00 -0.10000000000E+04  0.10000000000E+04  0.00000000000E+00 0.  1.
    9000005    2    1    2  501    0 -0.23788856500E+00 -0.26180882295E-01 -0.89331895822E+03  0.11066513791E+04  0.65319098005E+03 0.  0.
         13    1    3    3    0    0  0.13262752300E+03 -0.21412484281E+03 -0.94470890513E+02  0.26900605443E+03  0.00000000000E+00 0.  1.
          3    1    3    3  501    0 -0.13286541156E+03  0.21409866193E+03 -0.79884806771E+03  0.83764532465E+03  0.00000000000E+00 0.  1.
         21    1    1    2  502  501  0.23788856500E+00  0.26180882295E-01  0.95063048314E+00  0.98029318238E+00  0.00000000000E+00 0.  1.
<mgrwt>
<rscale>  1 0.65319102E+03</rscale>
<asrwt>0</asrwt>
<pdfrwt beam="1">  1        1 0.39138872E+00 0.65319102E+03</pdfrwt>
<pdfrwt beam="2">0</pdfrwt>
<totfact> 0.14603299E+00</totfact>
</mgrwt>
</event>
<event>
 6    1  0.2450233E-003  0.6452471E+03  0.7818608E-02  0.9815739E-01
          1   -1    0    0  502    0  0.00000000000E+00  0.00000000000E+00  0.10412672708E+03  0.10412672708E+03  0.00000000000E+00 0.  1.
         13   -1    0    0    0    0 -0.00000000000E+00 -0.00000000000E+00 -0.10000000000E+04  0.10000000000E+04  0.00000000000E+00 0.  1.
    9000005    2    1    2  501    0 -0.28126575990E-03 -0.80387345974E-03 -0.89591404923E+03  0.11040859419E+04  0.64524707163E+03 0.  0.
         13    1    3    3    0    0  0.20976824041E+03  0.24193709669E+03 -0.38060280871E+03  0.49738794863E+03  0.00000000000E+00 0.  1.
          3    1    3    3  501    0 -0.20976852167E+03 -0.24193790056E+03 -0.51531124052E+03  0.60669799325E+03  0.00000000000E+00 0.  1.
         21    1    1    2  502  501  0.28126575992E-03  0.80387345974E-03  0.40776311059E-01  0.40785204015E-01  0.00000000000E+00 0.  1.
<mgrwt>
<rscale>  1 0.64524707E+03</rscale>
<asrwt>0</asrwt>
<pdfrwt beam="1">  1        1 0.37864344E+00 0.64524707E+03</pdfrwt>
<pdfrwt beam="2">0</pdfrwt>
<totfact> 0.16651911E+00</totfact>
</mgrwt>
</event>
<event>
 6    1  0.2450233E-003  0.6441444E+03  0.7818608E-02  0.9817829E-01
          1   -1    0    0  502    0  0.00000000000E+00  0.00000000000E+00  0.10625754427E+03  0.10625754427E+03  0.00000000000E+00 0.  1.
         13   -1    0    0    0    0 -0.00000000000E+00 -0.00000000000E+00 -0.10000000000E+04  0.10000000000E+04  0.00000000000E+00 0.  1.
    9000005    2    1    2  501    0  0.41630614583E+00  0.27303883024E+01 -0.89540891787E+03  0.11030317998E+04  0.64413848892E+03 0.  0.
         13    1    3    3    0    0 -0.24942543060E+03 -0.15044867543E+03 -0.21452651238E+03  0.36175886151E+03  0.00000000000E+00 0.  1.
          1    1    3    3  501    0  0.24984173674E+03  0.15317906373E+03 -0.68088240550E+03  0.74127293833E+03  0.00000000000E+00 0.  1.
         21    1    1    2  502  501 -0.41630614583E+00 -0.27303883024E+01  0.16664621411E+01  0.32257444345E+01  0.00000000000E+00 0.  1.
<mgrwt>
<rscale>  1 0.64414441E+03</rscale>
<asrwt>0</asrwt>
<pdfrwt beam="1">  1        1 0.38639188E+00 0.64414441E+03</pdfrwt>
<pdfrwt beam="2">0</pdfrwt>
<totfact> 0.15393120E+00</totfact>
</mgrwt>
</event>
<event>
 6    1  0.2450233E-003  0.6447945E+03  0.7818608E-02  0.9816596E-01
          1   -1    0    0  502    0  0.00000000000E+00  0.00000000000E+00  0.10394007979E+03  0.10394007979E+03  0.00000000000E+00 0.  1.
         13   -1    0    0    0    0 -0.00000000000E+00 -0.00000000000E+00 -0.10000000000E+04  0.10000000000E+04  0.00000000000E+00 0.  1.
    9000005    2    1    2  501    0 -0.57152074589E-04  0.96266827754E-04 -0.89605997984E+03  0.11039399529E+04  0.64479448837E+03 0.  0.
         13    1    3    3    0    0  0.29362365000E+03  0.65667900538E+02 -0.64631260827E+03  0.71291451704E+03  0.00000000000E+00 0.  1.
          1    1    3    3  501    0 -0.29362370715E+03 -0.65667804271E+02 -0.24974737157E+03  0.39102543591E+03  0.00000000000E+00 0.  1.
         21    1    1    2  502  501  0.57152074596E-04 -0.96266827753E-04  0.59627306113E-04  0.12684272699E-03  0.00000000000E+00 0.  1.
<mgrwt>
<rscale>  1 0.64479449E+03</rscale>
<asrwt>0</asrwt>
<pdfrwt beam="1">  1        1 0.37796472E+00 0.64479449E+03</pdfrwt>
<pdfrwt beam="2">0</pdfrwt>
<totfact> 0.16768429E+00</totfact>
</mgrwt>
</event>
<event>
 6    1  0.2450233E-003  0.6405512E+03  0.7818608E-02  0.9824673E-01
          1   -1    0    0  502    0  0.00000000000E+00  0.00000000000E+00  0.10588933801E+03  0.10588933801E+03  0.00000000000E+00 0.  1.
         13   -1    0    0    0    0 -0.00000000000E+00 -0.00000000000E+00 -0.10000000000E+04  0.10000000000E+04  0.00000000000E+00 0.  1.
    9000005    2    1    2  501    0 -0.10506835054E+01 -0.22262742198E+01 -0.89691194275E+03  0.11021600745E+04  0.64054643584E+03 0.  0.
         13    1    3    3    0    0  0.24222513040E+00 -0.29819871418E+03 -0.65577097594E+03  0.72038746844E+03  0.00000000000E+00 0.  1.
          1    1    3    3  501    0 -0.12929086358E+01  0.29597243996E+03 -0.24114096681E+03  0.38177260602E+03  0.00000000000E+00 0.  1.
         21    1    1    2  502  501  0.10506835054E+01  0.22262742198E+01  0.28012807619E+01  0.37292635516E+01  0.00000000000E+00 0. -1.
<mgrwt>
<rscale>  1 0.64055117E+03</rscale>
<asrwt>0</asrwt>
<pdfrwt beam="1">  1        1 0.38505295E+00 0.64055117E+03</pdfrwt>
<pdfrwt beam="2">0</pdfrwt>
<totfact> 0.15614969E+00</totfact>
</mgrwt>
</event>
<event>
 6    1  0.2450233E-003  0.6534263E+03  0.7818608E-02  0.9800371E-01
          1   -1    0    0  502    0  0.00000000000E+00  0.00000000000E+00  0.10694766420E+03  0.10694766420E+03  0.00000000000E+00 0.  1.
         13   -1    0    0    0    0 -0.00000000000E+00 -0.00000000000E+00 -0.10000000000E+04  0.10000000000E+04  0.00000000000E+00 0.  1.
    9000005    2    1    2  501    0 -0.43588745581E-01  0.11252724348E-01 -0.89325579120E+03  0.11067392879E+04  0.65342630858E+03 0.  0.
         13    1    3    3    0    0 -0.21809616569E+02  0.32453692770E+03 -0.39453693882E+03  0.51133088398E+03  0.00000000000E+00 0.  1.
          3    1    3    3  501    0  0.21766027823E+02 -0.32452567498E+03 -0.49871885238E+03  0.59540840388E+03  0.00000000000E+00 0.  1.
         21    1    1    2  502  501  0.43588745581E-01 -0.11252724348E-01  0.20345540277E+00  0.20837635054E+00  0.00000000000E+00 0. -1.
<mgrwt>
<rscale>  1 0.65342631E+03</rscale>
<asrwt>0</asrwt>
<pdfrwt beam="1">  1        1 0.38890142E+00 0.65342631E+03</pdfrwt>
<pdfrwt beam="2">0</pdfrwt>
<totfact> 0.14978312E+00</totfact>
</mgrwt>
</event>
<event>
 6    1  0.2450233E-003  0.6522911E+03  0.7818608E-02  0.9802490E-01
          1   -1    0    0  502    0  0.00000000000E+00  0.00000000000E+00  0.10637263962E+03  0.10637263962E+03  0.00000000000E+00 0.  1.
         13   -1    0    0    0    0 -0.00000000000E+00 -0.00000000000E+00 -0.10000000000E+04  0.10000000000E+04  0.00000000000E+00 0.  1.
    9000005    2    1    2  501    0  0.42868783460E-04 -0.36524923991E-03 -0.89362905843E+03  0.11063709022E+04  0.65229110003E+03 0.  0.
         13    1    3    3    0    0  0.53120603003E+02  0.28924523599E+03 -0.68600007108E+03  0.74637839099E+03  0.00000000000E+00 0.  1.
          1    1    3    3  501    0 -0.53120560134E+02 -0.28924560124E+03 -0.20762898734E+03  0.35999251122E+03  0.00000000000E+00 0.  1.
         21    1    1    2  502  501 -0.42868783461E-04  0.36524923992E-03  0.16980463418E-02  0.17374136292E-02  0.00000000000E+00 0. -1.
<mgrwt>
<rscale>  1 0.65229110E+03</rscale>
<asrwt>0</asrwt>
<pdfrwt beam="1">  1        1 0.38681041E+00 0.65229110E+03</pdfrwt>
<pdfrwt beam="2">0</pdfrwt>
<totfact> 0.15304417E+00</totfact>
</mgrwt>
</event>
<event>
 6    1  0.2450233E-003  0.6508941E+03  0.7818608E-02  0.9805103E-01
          1   -1    0    0  502    0  0.00000000000E+00  0.00000000000E+00  0.10591577410E+03  0.10591577410E+03  0.00000000000E+00 0.  1.
         13   -1    0    0    0    0 -0.00000000000E+00 -0.00000000000E+00 -0.10000000000E+04  0.10000000000E+04  0.00000000000E+00 0.  1.
    9000005    2    1    2  501    0 -0.11759072386E-04 -0.15136869536E-05 -0.89408422332E+03  0.11059157620E+04  0.65089405756E+03 0.  0.
         13    1    3    3    0    0  0.32949979743E+02  0.20942999072E+03 -0.86657575579E+03  0.89213236838E+03  0.00000000000E+00 0.  1.
          3    1    3    3  501    0 -0.32949991502E+02 -0.20942999224E+03 -0.27508467533E+02  0.21378339359E+03  0.00000000000E+00 0.  1.
         21    1    1    2  502  501  0.11759072388E-04  0.15136869584E-05 -0.25766464634E-05  0.12132853688E-04  0.00000000000E+00 0. -1.
<mgrwt>
<rscale>  1 0.65089406E+03</rscale>
<asrwt>0</asrwt>
<pdfrwt beam="1">  1        1 0.38514908E+00 0.65089406E+03</pdfrwt>
<pdfrwt beam="2">0</pdfrwt>
<totfact> 0.15569731E+00</totfact>
</mgrwt>
</event>
<event>
 6    1  0.2450233E-003  0.6511557E+03  0.7818608E-02  0.9804613E-01
          1   -1    0    0  502    0  0.00000000000E+00  0.00000000000E+00  0.10603567132E+03  0.10603567132E+03  0.00000000000E+00 0.  1.
         13   -1    0    0    0    0 -0.00000000000E+00 -0.00000000000E+00 -0.10000000000E+04  0.10000000000E+04  0.00000000000E+00 0.  1.
    9000005    2    1    2  501    0  0.33250879609E-01 -0.20668951258E-01 -0.89398644123E+03  0.11059907070E+04  0.65115565368E+03 0.  0.
         13    1    3    3    0    0  0.16917492882E+03  0.22124606600E+03 -0.16059720859E+03  0.32149874287E+03  0.00000000000E+00 0.  1.
          3    1    3    3  501    0 -0.16914167794E+03 -0.22126673495E+03 -0.73338923264E+03  0.78449196411E+03  0.00000000000E+00 0.  1.
         21    1    1    2  502  501 -0.33250879609E-01  0.20668951258E-01  0.22112550603E-01  0.44964335145E-01  0.00000000000E+00 0. -1.
<mgrwt>
<rscale>  1 0.65115565E+03</rscale>
<asrwt>0</asrwt>
<pdfrwt beam="1">  1        1 0.38558507E+00 0.65115565E+03</pdfrwt>
<pdfrwt beam="2">0</pdfrwt>
<totfact> 0.15499984E+00</totfact>
</mgrwt>
</event>
<event>
 6    1  0.2450233E-003  0.6438707E+03  0.7818608E-02  0.9818349E-01
          1   -1    0    0  502    0  0.00000000000E+00  0.00000000000E+00  0.10365940118E+03  0.10365940118E+03  0.00000000000E+00 0.  1.
         13   -1    0    0    0    0 -0.00000000000E+00 -0.00000000000E+00 -0.10000000000E+04  0.10000000000E+04  0.00000000000E+00 0.  1.
    9000005    2    1    2  501    0 -0.14982159131E-01 -0.15499591723E-01 -0.89634974334E+03  0.11036359848E+04  0.64387073563E+03 0.  0.
         13    1    3    3    0    0  0.67970132530E+02  0.13927044545E+03 -0.93183500119E+03  0.94463361433E+03  0.00000000000E+00 0.  1.
          3    1    3    3  501    0 -0.67985114689E+02 -0.13928594504E+03  0.35485257844E+02  0.15900237052E+03  0.00000000000E+00 0.  1.
         21    1    1    2  502  501  0.14982159131E-01  0.15499591723E-01  0.91445252594E-02  0.23416335709E-01  0.00000000000E+00 0. -1.
<mgrwt>
<rscale>  1 0.64387074E+03</rscale>
<asrwt>0</asrwt>
<pdfrwt beam="1">  1        1 0.37694407E+00 0.64387074E+03</pdfrwt>
<pdfrwt beam="2">0</pdfrwt>
<totfact> 0.16945867E+00</totfact>
</mgrwt>
</event>
<event>
 6    1  0.2450233E-003  0.6488538E+03  0.7818608E-02  0.9808932E-01
          1   -1    0    0  502    0  0.00000000000E+00  0.00000000000E+00  0.10534335572E+03  0.10534335572E+03  0.00000000000E+00 0.  1.
         13   -1    0    0    0    0 -0.00000000000E+00 -0.00000000000E+00 -0.10000000000E+04  0.10000000000E+04  0.00000000000E+00 0.  1.
    9000005    2    1    2  501    0  0.26387850643E-01  0.14395114857E-01 -0.89474440550E+03  0.11052505895E+04  0.64885384605E+03 0.  0.
         13    1    3    3    0    0  0.13321521225E+03  0.19162348923E+03 -0.83128442984E+03  0.86342322050E+03  0.00000000000E+00 0.  1.
          1    1    3    3  501    0 -0.13318882440E+03 -0.19160909412E+03 -0.63459975660E+02  0.24182736901E+03  0.00000000000E+00 0.  1.
         21    1    1    2  502  501 -0.26387850643E-01 -0.14395114857E-01  0.87761220636E-01  0.92766210663E-01  0.00000000000E+00 0.  1.
<mgrwt>
<rscale>  1 0.64885385E+03</rscale>
<asrwt>0</asrwt>
<pdfrwt beam="1">  1        1 0.38306756E+00 0.64885385E+03</pdfrwt>
<pdfrwt beam="2">0</pdfrwt>
<totfact> 0.15909169E+00</totfact>
</mgrwt>
</event>
<event>
 6    1  0.2450233E-003  0.6022083E+03  0.7818608E-02  0.9900835E-01
          1   -1    0    0  502    0  0.00000000000E+00  0.00000000000E+00  0.90674009944E+02  0.90674009944E+02  0.00000000000E+00 0.  1.
         13   -1    0    0    0    0 -0.00000000000E+00 -0.00000000000E+00 -0.10000000000E+04  0.10000000000E+04  0.00000000000E+00 0.  1.
    9000005    2    1    2  501    0  0.75665264802E-03 -0.55493887776E-03 -0.90933626777E+03  0.10906636895E+04  0.60220829923E+03 0.  0.
         13    1    3    3    0    0  0.27331282975E+03  0.10315240205E+03 -0.58681154415E+03  0.65550599486E+03  0.00000000000E+00 0.  1.
          3    1    3    3  501    0 -0.27331207309E+03 -0.10315295699E+03 -0.32252472362E+03  0.43515769462E+03  0.00000000000E+00 0.  1.
         21    1    1    2  502  501 -0.75665264803E-03  0.55493887776E-03  0.10277717926E-01  0.10320463466E-01  0.00000000000E+00 0. -1.
<mgrwt>
<rscale>  1 0.60220830E+03</rscale>
<asrwt>0</asrwt>
<pdfrwt beam="1">  1        1 0.32972437E+00 0.60220830E+03</pdfrwt>
<pdfrwt beam="2">0</pdfrwt>
<totfact> 0.27441116E+00</totfact>
</mgrwt>
</event>
<event>
 6    1  0.2450233E-003  0.6442236E+03  0.7818608E-02  0.9817679E-01
          1   -1    0    0  502    0  0.00000000000E+00  0.00000000000E+00  0.10375610603E+03  0.10375610603E+03  0.00000000000E+00 0.  1.
         13   -1    0    0    0    0 -0.00000000000E+00 -0.00000000000E+00 -0.10000000000E+04  0.10000000000E+04  0.00000000000E+00 0.  1.
    9000005    2    1    2  501    0 -0.48709254727E-04 -0.26836166454E-03 -0.89624363357E+03  0.11037557289E+04  0.64422360905E+03 0.  0.
         13    1    3    3    0    0 -0.47941511539E+02  0.54285698767E+02 -0.98586877722E+03  0.98852545315E+03  0.00000000000E+00 0.  1.
          3    1    3    3  501    0  0.47941462830E+02 -0.54285967128E+02  0.89625143652E+02  0.11523027580E+03  0.00000000000E+00 0.  1.
         21    1    1    2  502  501  0.48709254727E-04  0.26836166453E-03 -0.26039828157E-03  0.37709128806E-03  0.00000000000E+00 0.  1.
<mgrwt>
<rscale>  1 0.64422361E+03</rscale>
<asrwt>0</asrwt>
<pdfrwt beam="1">  1        1 0.37729573E+00 0.64422361E+03</pdfrwt>
<pdfrwt beam="2">0</pdfrwt>
<totfact> 0.16884424E+00</totfact>
</mgrwt>
</event>
<event>
 6    1  0.2450233E-003  0.6239142E+03  0.7818608E-02  0.9856997E-01
          1   -1    0    0  502    0  0.00000000000E+00  0.00000000000E+00  0.97317288708E+02  0.97317288708E+02  0.00000000000E+00 0.  1.
         13   -1    0    0    0    0 -0.00000000000E+00 -0.00000000000E+00 -0.10000000000E+04  0.10000000000E+04  0.00000000000E+00 0.  1.
    9000005    2    1    2  501    0  0.70416173131E-04  0.33538624491E-04 -0.90268275505E+03  0.10973171993E+04  0.62391416041E+03 0.  0.
         13    1    3    3    0    0  0.12760586207E+03  0.88922748651E+01 -0.95175478186E+03  0.96031218537E+03  0.00000000000E+00 0.  1.
          1    1    3    3  501    0 -0.12760579166E+03 -0.88922413264E+01  0.49072026805E+02  0.13700501390E+03  0.00000000000E+00 0.  1.
         21    1    1    2  502  501 -0.70416173127E-04 -0.33538624492E-04  0.43758717841E-04  0.89432109210E-04  0.00000000000E+00 0.  1.
<mgrwt>
<rscale>  1 0.62391416E+03</rscale>
<asrwt>0</asrwt>
<pdfrwt beam="1">  1        1 0.35388180E+00 0.62391416E+03</pdfrwt>
<pdfrwt beam="2">0</pdfrwt>
<totfact> 0.21465056E+00</totfact>
</mgrwt>
</event>
<event>
 6    1  0.2450233E-003  0.6539422E+03  0.7818608E-02  0.9799410E-01
          1   -1    0    0  502    0  0.00000000000E+00  0.00000000000E+00  0.11036847545E+03  0.11036847545E+03  0.00000000000E+00 0.  1.
         13   -1    0    0    0    0 -0.00000000000E+00 -0.00000000000E+00 -0.10000000000E+04  0.10000000000E+04  0.00000000000E+00 0.  1.
    9000005    2    1    2  501    0  0.49024971427E+01 -0.63488102644E+01 -0.88684334431E+03  0.11018763721E+04  0.65389301893E+03 0.  0.
         13    1    3    3    0    0 -0.25786669013E+03  0.93563983249E+02 -0.73026888765E+03  0.78009108257E+03  0.00000000000E+00 0.  1.
          3    1    3    3  501    0  0.26276918727E+03 -0.99912793514E+02 -0.15657445666E+03  0.32178528954E+03  0.00000000000E+00 0.  1.
         21    1    1    2  502  501 -0.49024971427E+01  0.63488102644E+01 -0.27881802381E+01  0.84921033347E+01  0.00000000000E+00 0. -1.
<mgrwt>
<rscale>  1 0.65394222E+03</rscale>
<asrwt>0</asrwt>
<pdfrwt beam="1">  1        1 0.40134076E+00 0.65394222E+03</pdfrwt>
<pdfrwt beam="2">0</pdfrwt>
<totfact> 0.13185930E+00</totfact>
</mgrwt>
</event>
<event>
 6    1  0.2450233E-003  0.6520484E+03  0.7818608E-02  0.9802943E-01
          1   -1    0    0  502    0  0.00000000000E+00  0.00000000000E+00  0.11167840792E+03  0.11167840792E+03  0.00000000000E+00 0.  1.
         13   -1    0    0    0    0 -0.00000000000E+00 -0.00000000000E+00 -0.10000000000E+04  0.10000000000E+04  0.00000000000E+00 0.  1.
    9000005    2    1    2  501    0 -0.28915933666E+00 -0.30891357619E+00 -0.89369901461E+03  0.11062843636E+04  0.65204829995E+03 0.  0.
         13    1    3    3    0    0  0.62263636473E+02 -0.31455755103E+03 -0.34596056131E+03  0.47171169512E+03  0.00000000000E+00 0.  1.
          1    1    3    3  501    0 -0.62552795810E+02  0.31424863745E+03 -0.54773845330E+03  0.63457266851E+03  0.00000000000E+00 0.  1.
         21    1    1    2  502  501  0.28915933666E+00  0.30891357619E+00  0.53774225315E+01  0.53940442899E+01  0.00000000000E+00 0.  1.
<mgrwt>
<rscale>  1 0.65204844E+03</rscale>
<asrwt>0</asrwt>
<pdfrwt beam="1">  1        1 0.40610416E+00 0.65204844E+03</pdfrwt>
<pdfrwt beam="2">0</pdfrwt>
<totfact> 0.12560010E+00</totfact>
</mgrwt>
</event>
<event>
 6    1  0.2450233E-003  0.6680553E+03  0.7818608E-02  0.9773477E-01
          1   -1    0    0  502    0  0.00000000000E+00  0.00000000000E+00  0.11158124798E+03  0.11158124798E+03  0.00000000000E+00 0.  1.
         13   -1    0    0    0    0 -0.00000000000E+00 -0.00000000000E+00 -0.10000000000E+04  0.10000000000E+04  0.00000000000E+00 0.  1.
    9000005    2    1    2  501    0  0.20262207340E-01  0.15586116588E-02 -0.88839043139E+03  0.11115463905E+04  0.66805525161E+03 0.  0.
         13    1    3    3    0    0 -0.27469922246E+03 -0.17330974776E+03 -0.31452370345E+03  0.45212950747E+03  0.00000000000E+00 0.  1.
          3    1    3    3  501    0  0.27471948467E+03  0.17331130638E+03 -0.57386672794E+03  0.65941688302E+03  0.00000000000E+00 0.  1.
         21    1    1    2  502  501 -0.20262207340E-01 -0.15586116588E-02 -0.28320631011E-01  0.34857487824E-01  0.00000000000E+00 0.  1.
<mgrwt>
<rscale>  1 0.66805525E+03</rscale>
<asrwt>0</asrwt>
<pdfrwt beam="1">  1        1 0.40575085E+00 0.66805525E+03</pdfrwt>
<pdfrwt beam="2">0</pdfrwt>
<totfact> 0.12567536E+00</totfact>
</mgrwt>
</event>
<event>
 6    1  0.2450233E-003  0.6530101E+03  0.7818608E-02  0.9801147E-01
          1   -1    0    0  502    0  0.00000000000E+00  0.00000000000E+00  0.10727935085E+03  0.10727935085E+03  0.00000000000E+00 0.  1.
         13   -1    0    0    0    0 -0.00000000000E+00 -0.00000000000E+00 -0.10000000000E+04  0.10000000000E+04  0.00000000000E+00 0.  1.
    9000005    2    1    2  501    0  0.20361854820E-01  0.97837111474E+00 -0.89297623711E+03  0.11062679410E+04  0.65300937179E+03 0.  0.
         13    1    3    3    0    0  0.32633578274E+03 -0.98733552265E+01 -0.44125117617E+03  0.54890356777E+03  0.00000000000E+00 0.  1.
          3    1    3    3  501    0 -0.32631542089E+03  0.10851726341E+02 -0.45172506094E+03  0.55736437324E+03  0.00000000000E+00 0.  1.
         21    1    1    2  502  501 -0.20361854820E-01 -0.97837111474E+00  0.25558796042E+00  0.10114098323E+01  0.00000000000E+00 0.  1.
<mgrwt>
<rscale>  1 0.65301011E+03</rscale>
<asrwt>0</asrwt>
<pdfrwt beam="1">  1        1 0.39010755E+00 0.65301011E+03</pdfrwt>
<pdfrwt beam="2">0</pdfrwt>
<totfact> 0.14796163E+00</totfact>
</mgrwt>
</event>
<event>
 6    1  0.2450233E-003  0.5236706E+03  0.7818608E-02  0.1007779E+00
          1   -1    0    0  502    0  0.00000000000E+00  0.00000000000E+00  0.68557788878E+02  0.68557788878E+02  0.00000000000E+00 0.  1.
         13   -1    0    0    0    0 -0.00000000000E+00 -0.00000000000E+00 -0.10000000000E+04  0.10000000000E+04  0.00000000000E+00 0.  1.
    9000005    2    1    2  501    0  0.34351086811E-05  0.21856189420E-04 -0.93144227521E+03  0.10685577211E+04  0.52367059419E+03 0.  0.
         13    1    3    3    0    0  0.16215807069E+03  0.14230874333E+03 -0.76845208831E+03  0.79816391195E+03  0.00000000000E+00 0.  1.
          1    1    3    3  501    0 -0.16215806726E+03 -0.14230872147E+03 -0.16299018690E+03  0.27039380912E+03  0.00000000000E+00 0.  1.
         21    1    1    2  502  501 -0.34351087039E-05 -0.21856189412E-04  0.64090614131E-04  0.67801915954E-04  0.00000000000E+00 0. -1.
<mgrwt>
<rscale>  1 0.52367059E+03</rscale>
<asrwt>0</asrwt>
<pdfrwt beam="1">  1        1 0.24930158E+00 0.52367059E+03</pdfrwt>
<pdfrwt beam="2">0</pdfrwt>
<totfact> 0.61945889E+00</totfact>
</mgrwt>
</event>
<event>
 6    1  0.2450233E-003  0.6546151E+03  0.7818608E-02  0.9798158E-01
          1   -1    0    0  502    0  0.00000000000E+00  0.00000000000E+00  0.10713025135E+03  0.10713025135E+03  0.00000000000E+00 0.  1.
         13   -1    0    0    0    0 -0.00000000000E+00 -0.00000000000E+00 -0.10000000000E+04  0.10000000000E+04  0.00000000000E+00 0.  1.
    9000005    2    1    2  501    0 -0.36167506209E-04  0.59689330101E-06 -0.89286976797E+03  0.11071302103E+04  0.65461506253E+03 0.  0.
         13    1    3    3    0    0  0.24544104060E+03 -0.20926421151E+03 -0.54056118993E+03  0.62947534876E+03  0.00000000000E+00 0.  1.
          3    1    3    3  501    0 -0.24544107677E+03  0.20926421211E+03 -0.35230857803E+03  0.47765486158E+03  0.00000000000E+00 0.  1.
         21    1    1    2  502  501  0.36167506189E-04 -0.59689329975E-06  0.19316898388E-04  0.41007162166E-04  0.00000000000E+00 0. -1.
<mgrwt>
<rscale>  1 0.65461506E+03</rscale>
<asrwt>0</asrwt>
<pdfrwt beam="1">  1        1 0.38956537E+00 0.65461506E+03</pdfrwt>
<pdfrwt beam="2">0</pdfrwt>
<totfact> 0.14873868E+00</totfact>
</mgrwt>
</event>
<event>
 6    1  0.2450233E-003  0.6770837E+03  0.7818608E-02  0.9757245E-01
          1   -1    0    0  502    0  0.00000000000E+00  0.00000000000E+00  0.11462776460E+03  0.11462776460E+03  0.00000000000E+00 0.  1.
         13   -1    0    0    0    0 -0.00000000000E+00 -0.00000000000E+00 -0.10000000000E+04  0.10000000000E+04  0.00000000000E+00 0.  1.
    9000005    2    1    2  501    0  0.95607508187E-02  0.67564434637E-02 -0.88538718009E+03  0.11146087804E+04  0.67708365396E+03 0.  0.
         13    1    3    3    0    0 -0.32330353766E+03 -0.83240572107E+02 -0.53511900097E+03  0.63071904641E+03  0.00000000000E+00 0.  1.
          3    1    3    3  501    0  0.32331309841E+03  0.83247328551E+02 -0.35026817913E+03  0.48388973395E+03  0.00000000000E+00 0.  1.
         21    1    1    2  502  501 -0.95607508187E-02 -0.67564434637E-02  0.14944693092E-01  0.18984239150E-01  0.00000000000E+00 0. -1.
<mgrwt>
<rscale>  1 0.67708365E+03</rscale>
<asrwt>0</asrwt>
<pdfrwt beam="1">  1        1 0.41682911E+00 0.67708365E+03</pdfrwt>
<pdfrwt beam="2">0</pdfrwt>
<totfact> 0.11188512E+00</totfact>
</mgrwt>
</event>
<event>
 6    1  0.2450233E-003  0.6638179E+03  0.7818608E-02  0.9781191E-01
          1   -1    0    0  502    0  0.00000000000E+00  0.00000000000E+00  0.11017876873E+03  0.11017876873E+03  0.00000000000E+00 0.  1.
         13   -1    0    0    0    0 -0.00000000000E+00 -0.00000000000E+00 -0.10000000000E+04  0.10000000000E+04  0.00000000000E+00 0.  1.
    9000005    2    1    2  501    0 -0.20225240064E-03 -0.41006832646E-04 -0.88983646282E+03  0.11101635358E+04  0.66381785576E+03 0.  0.
         13    1    3    3    0    0 -0.29113539742E+03  0.10345176846E+03 -0.24214124674E+03  0.39254868666E+03  0.00000000000E+00 0.  1.
          1    1    3    3  501    0  0.29113519517E+03 -0.10345180947E+03 -0.64769521608E+03  0.71761484912E+03  0.00000000000E+00 0.  1.
         21    1    1    2  502  501  0.20225240063E-03  0.41006832651E-04  0.15231547938E-01  0.15232945880E-01  0.00000000000E+00 0.  1.
<mgrwt>
<rscale>  1 0.66381786E+03</rscale>
<asrwt>0</asrwt>
<pdfrwt beam="1">  1        1 0.40065091E+00 0.66381786E+03</pdfrwt>
<pdfrwt beam="2">0</pdfrwt>
<totfact> 0.13255010E+00</totfact>
</mgrwt>
</event>
<event>
 6    1  0.2450233E-003  0.6528772E+03  0.7818608E-02  0.9801395E-01
          1   -1    0    0  502    0  0.00000000000E+00  0.00000000000E+00  0.10658668755E+03  0.10658668755E+03  0.00000000000E+00 0.  1.
         13   -1    0    0    0    0 -0.00000000000E+00 -0.00000000000E+00 -0.10000000000E+04  0.10000000000E+04  0.00000000000E+00 0.  1.
    9000005    2    1    2  501    0 -0.12420873359E-01  0.13363343858E-01 -0.89343401245E+03  0.11065590950E+04  0.65287724409E+03 0.  0.
         13    1    3    3    0    0 -0.99564344066E+02  0.22651075359E+03 -0.80764831626E+03  0.84469875273E+03  0.00000000000E+00 0.  1.
          3    1    3    3  501    0  0.99551923193E+02 -0.22649739024E+03 -0.85785696189E+02  0.26186034230E+03  0.00000000000E+00 0.  1.
         21    1    1    2  502  501  0.12420873359E-01 -0.13363343858E-01  0.20700006975E-01  0.27592523314E-01  0.00000000000E+00 0. -1.
<mgrwt>
<rscale>  1 0.65287724E+03</rscale>
<asrwt>0</asrwt>
<pdfrwt beam="1">  1        1 0.38758877E+00 0.65287724E+03</pdfrwt>
<pdfrwt beam="2">0</pdfrwt>
<totfact> 0.15181788E+00</totfact>
</mgrwt>
</event>
<event>
 6    1  0.2450233E-003  0.6327612E+03  0.7818608E-02  0.9839675E-01
          1   -1    0    0  502    0  0.00000000000E+00  0.00000000000E+00  0.10018580933E+03  0.10018580933E+03  0.00000000000E+00 0.  1.
         13   -1    0    0    0    0 -0.00000000000E+00 -0.00000000000E+00 -0.10000000000E+04  0.10000000000E+04  0.00000000000E+00 0.  1.
    9000005    2    1    2  501    0 -0.14248590526E-02  0.19546585016E-02 -0.89990329343E+03  0.11000966737E+04  0.63276121408E+03 0.  0.
         13    1    3    3    0    0  0.18324390299E+03  0.23758060794E+03 -0.62445087521E+03  0.69279273148E+03  0.00000000000E+00 0.  1.
          3    1    3    3  501    0 -0.18324532785E+03 -0.23757865328E+03 -0.27545241823E+03  0.40730394226E+03  0.00000000000E+00 0.  1.
         21    1    1    2  502  501  0.14248590526E-02 -0.19546585016E-02  0.89102764714E-01  0.89135591056E-01  0.00000000000E+00 0.  1.
<mgrwt>
<rscale>  1 0.63276121E+03</rscale>
<asrwt>0</asrwt>
<pdfrwt beam="1">  1        1 0.36431280E+00 0.63276121E+03</pdfrwt>
<pdfrwt beam="2">0</pdfrwt>
<totfact> 0.19294548E+00</totfact>
</mgrwt>
</event>
<event>
 6    1  0.2450233E-003  0.6485676E+03  0.7818608E-02  0.9809471E-01
          1   -1    0    0  502    0  0.00000000000E+00  0.00000000000E+00  0.10516046911E+03  0.10516046911E+03  0.00000000000E+00 0.  1.
         13   -1    0    0    0    0 -0.00000000000E+00 -0.00000000000E+00 -0.10000000000E+04  0.10000000000E+04  0.00000000000E+00 0.  1.
    9000005    2    1    2  501    0 -0.36350811314E-04 -0.16486678959E-04 -0.89484000033E+03  0.11051599980E+04  0.64856764869E+03 0.  0.
         13    1    3    3    0    0  0.14105605102E+03 -0.10326851221E+03  0.17990099160E+02  0.17574082853E+03  0.00000000000E+00 0.  1.
          1    1    3    3  501    0 -0.14105608737E+03  0.10326849572E+03 -0.91283009949E+03  0.92941916945E+03  0.00000000000E+00 0.  1.
         21    1    1    2  502  501  0.36350811324E-04  0.16486678961E-04  0.46944775190E-03  0.47114157515E-03  0.00000000000E+00 0. -1.
<mgrwt>
<rscale>  1 0.64856765E+03</rscale>
<asrwt>0</asrwt>
<pdfrwt beam="1">  1        1 0.38240251E+00 0.64856765E+03</pdfrwt>
<pdfrwt beam="2">0</pdfrwt>
<totfact> 0.16018015E+00</totfact>
</mgrwt>
</event>
<event>
 6    1  0.2450233E-003  0.6551826E+03  0.7818608E-02  0.9797103E-01
          1   -1    0    0  502    0  0.00000000000E+00  0.00000000000E+00  0.11093587364E+03  0.11093587364E+03  0.00000000000E+00 0.  1.
         13   -1    0    0    0    0 -0.00000000000E+00 -0.00000000000E+00 -0.10000000000E+04  0.10000000000E+04  0.00000000000E+00 0.  1.
    9000005    2    1    2  501    0 -0.83266149716E-01  0.64761117675E+00 -0.89265129783E+03  0.11072897616E+04  0.65518230317E+03 0.  0.
         13    1    3    3    0    0  0.22526331654E+03  0.22631554482E+03 -0.32146565726E+03  0.45310314102E+03  0.00000000000E+00 0.  1.
          3    1    3    3  501    0 -0.22534658269E+03 -0.22566793364E+03 -0.57118564057E+03  0.65418662062E+03  0.00000000000E+00 0.  1.
         21    1    1    2  502  501  0.83266149716E-01 -0.64761117675E+00  0.35871714775E+01  0.36461119973E+01  0.00000000000E+00 0. -1.
<mgrwt>
<rscale>  1 0.65518263E+03</rscale>
<asrwt>0</asrwt>
<pdfrwt beam="1">  1        1 0.40340403E+00 0.65518263E+03</pdfrwt>
<pdfrwt beam="2">0</pdfrwt>
<totfact> 0.12906199E+00</totfact>
</mgrwt>
</event>
<event>
 6    1  0.2450233E-003  0.6426298E+03  0.7818608E-02  0.9820708E-01
          1   -1    0    0  502    0  0.00000000000E+00  0.00000000000E+00  0.11710703596E+03  0.11710703596E+03  0.00000000000E+00 0.  1.
         13   -1    0    0    0    0 -0.00000000000E+00 -0.00000000000E+00 -0.10000000000E+04  0.10000000000E+04  0.00000000000E+00 0.  1.
    9000005    2    1    2  501    0 -0.94429569918E+01  0.11765471137E+02 -0.89207877294E+03  0.10994442266E+04  0.64245270225E+03 0.  0.
         13    1    3    3    0    0 -0.31696916299E+03 -0.52629734737E+02 -0.53254928777E+03  0.62197112728E+03  0.00000000000E+00 0.  1.
          1    1    3    3  501    0  0.30752620599E+03  0.64395205874E+02 -0.35952948517E+03  0.47747309937E+03  0.00000000000E+00 0.  1.
         21    1    1    2  502  501  0.94429569918E+01 -0.11765471137E+02  0.91858088942E+01  0.17662809314E+02  0.00000000000E+00 0.  1.
<mgrwt>
<rscale>  1 0.64262981E+03</rscale>
<asrwt>0</asrwt>
<pdfrwt beam="1">  1        1 0.42584467E+00 0.64262981E+03</pdfrwt>
<pdfrwt beam="2">0</pdfrwt>
<totfact> 0.10256296E+00</totfact>
</mgrwt>
</event>
<event>
 6    1  0.2450233E-003  0.6507003E+03  0.7818608E-02  0.9805466E-01
          1   -1    0    0  502    0  0.00000000000E+00  0.00000000000E+00  0.10612539539E+03  0.10612539539E+03  0.00000000000E+00 0.  1.
         13   -1    0    0    0    0 -0.00000000000E+00 -0.00000000000E+00 -0.10000000000E+04  0.10000000000E+04  0.00000000000E+00 0.  1.
    9000005    2    1    2  501    0 -0.72266352847E-02  0.29327480831E-04 -0.89414724185E+03  0.11058526624E+04  0.65070025415E+03 0.  0.
         13    1    3    3    0    0 -0.29584974566E+03  0.13483356960E+03 -0.42642517584E+03  0.53623277976E+03  0.00000000000E+00 0.  1.
          3    1    3    3  501    0  0.29584251903E+03 -0.13483354028E+03 -0.46772206601E+03  0.56961988263E+03  0.00000000000E+00 0.  1.
         21    1    1    2  502  501  0.72266352847E-02 -0.29327480816E-04  0.27263723883E+00  0.27273299968E+00  0.00000000000E+00 0.  1.
<mgrwt>
<rscale>  1 0.65070025E+03</rscale>
<asrwt>0</asrwt>
<pdfrwt beam="1">  1        1 0.38591134E+00 0.65070025E+03</pdfrwt>
<pdfrwt beam="2">0</pdfrwt>
<totfact> 0.15449844E+00</totfact>
</mgrwt>
</event>
<event>
 6    1  0.2450233E-003  0.6504640E+03  0.7818608E-02  0.9805909E-01
          1   -1    0    0  502    0  0.00000000000E+00  0.00000000000E+00  0.10577743518E+03  0.10577743518E+03  0.00000000000E+00 0.  1.
         13   -1    0    0    0    0 -0.00000000000E+00 -0.00000000000E+00 -0.10000000000E+04  0.10000000000E+04  0.00000000000E+00 0.  1.
    9000005    2    1    2  501    0  0.64721109737E-04 -0.20805779855E-06 -0.89422413686E+03  0.11057758618E+04  0.65046402639E+03 0.  0.
         13    1    3    3    0    0 -0.21334310901E+03  0.24288646521E+03 -0.38660775995E+03  0.50395900348E+03  0.00000000000E+00 0.  1.
          1    1    3    3  501    0  0.21334317373E+03 -0.24288646541E+03 -0.50761637691E+03  0.60181685833E+03  0.00000000000E+00 0.  1.
         21    1    1    2  502  501 -0.64721109748E-04  0.20805780730E-06  0.15720379013E-02  0.15733696414E-02  0.00000000000E+00 0.  1.
<mgrwt>
<rscale>  1 0.65046403E+03</rscale>
<asrwt>0</asrwt>
<pdfrwt beam="1">  1        1 0.38464603E+00 0.65046403E+03</pdfrwt>
<pdfrwt beam="2">0</pdfrwt>
<totfact> 0.15650946E+00</totfact>
</mgrwt>
</event>
<event>
 6    1  0.2450233E-003  0.6457440E+03  0.7818608E-02  0.9814798E-01
          1   -1    0    0  502    0  0.00000000000E+00  0.00000000000E+00  0.10466534684E+03  0.10466534684E+03  0.00000000000E+00 0.  1.
         13   -1    0    0    0    0 -0.00000000000E+00 -0.00000000000E+00 -0.10000000000E+04  0.10000000000E+04  0.00000000000E+00 0.  1.
    9000005    2    1    2  501    0 -0.16073040617E+00 -0.58974011098E-01 -0.89573428976E+03  0.11042305807E+04  0.64574393388E+03 0.  0.
         13    1    3    3    0    0  0.18754706190E+03  0.22146437043E+03 -0.68950223941E+03  0.74808669681E+03  0.00000000000E+00 0.  1.
          3    1    3    3  501    0 -0.18770779231E+03 -0.22152334444E+03 -0.20623205036E+03  0.35614388387E+03  0.00000000000E+00 0.  1.
         21    1    1    2  502  501  0.16073040617E+00  0.58974011098E-01  0.39963660584E+00  0.43476616034E+00  0.00000000000E+00 0.  1.
<mgrwt>
<rscale>  1 0.64574396E+03</rscale>
<asrwt>0</asrwt>
<pdfrwt beam="1">  1        1 0.38060206E+00 0.64574396E+03</pdfrwt>
<pdfrwt beam="2">0</pdfrwt>
<totfact> 0.16322409E+00</totfact>
</mgrwt>
</event>
<event>
 6    1  0.2450233E-003  0.6577736E+03  0.7818608E-02  0.9792301E-01
          1   -1    0    0  502    0  0.00000000000E+00  0.00000000000E+00  0.10816653112E+03  0.10816653112E+03  0.00000000000E+00 0.  1.
         13   -1    0    0    0    0 -0.00000000000E+00 -0.00000000000E+00 -0.10000000000E+04  0.10000000000E+04  0.00000000000E+00 0.  1.
    9000005    2    1    2  501    0  0.43769688247E-05  0.13135492054E-05 -0.89183347286E+03  0.11081665251E+04  0.65777359626E+03 0.  0.
         13    1    3    3    0    0 -0.45555056043E+02 -0.28300554195E+03 -0.17426782894E+03  0.33546486568E+03  0.00000000000E+00 0.  1.
          1    1    3    3  501    0  0.45555060420E+02  0.28300554327E+03 -0.71756564393E+03  0.77270165937E+03  0.00000000000E+00 0.  1.
         21    1    1    2  502  501 -0.43769688241E-05 -0.13135492008E-05  0.39833579789E-05  0.60622115088E-05  0.00000000000E+00 0.  1.
<mgrwt>
<rscale>  1 0.65777360E+03</rscale>
<asrwt>0</asrwt>
<pdfrwt beam="1">  1        1 0.39333367E+00 0.65777360E+03</pdfrwt>
<pdfrwt beam="2">0</pdfrwt>
<totfact> 0.14303577E+00</totfact>
</mgrwt>
</event>
<event>
 6    1  0.2450233E-003  0.7125609E+03  0.7818608E-02  0.9695989E-01
          1   -1    0    0  502    0  0.00000000000E+00  0.00000000000E+00  0.12731665813E+03  0.12731665813E+03  0.00000000000E+00 0.  1.
         13   -1    0    0    0    0 -0.00000000000E+00 -0.00000000000E+00 -0.10000000000E+04  0.10000000000E+04  0.00000000000E+00 0.  1.
    9000005    2    1    2  501    0 -0.78127638702E-02 -0.58200392518E-02 -0.87306418638E+03  0.11269356890E+04  0.71256085607E+03 0.  0.
         13    1    3    3    0    0  0.29551057399E+03  0.88779237875E+02 -0.15483446651E+03  0.34522740974E+03  0.00000000000E+00 0.  1.
          3    1    3    3  501    0 -0.29551838676E+03 -0.88785057914E+02 -0.71822971986E+03  0.78170827929E+03  0.00000000000E+00 0.  1.
         21    1    1    2  502  501  0.78127638702E-02  0.58200392518E-02  0.38084450341E+00  0.38096909050E+00  0.00000000000E+00 0. -1.
<mgrwt>
<rscale>  1 0.71256086E+03</rscale>
<asrwt>0</asrwt>
<pdfrwt beam="1">  1        1 0.46297064E+00 0.71256086E+03</pdfrwt>
<pdfrwt beam="2">0</pdfrwt>
<totfact> 0.68309434E-01</totfact>
</mgrwt>
</event>
<event>
 6    1  0.2450233E-003  0.6571542E+03  0.7818608E-02  0.9793447E-01
          1   -1    0    0  502    0  0.00000000000E+00  0.00000000000E+00  0.10803384522E+03  0.10803384522E+03  0.00000000000E+00 0.  1.
         13   -1    0    0    0    0 -0.00000000000E+00 -0.00000000000E+00 -0.10000000000E+04  0.10000000000E+04  0.00000000000E+00 0.  1.
    9000005    2    1    2  501    0 -0.86858833343E-03 -0.19593556357E-02 -0.89203706611E+03  0.11079629015E+04  0.65715421614E+03 0.  0.
         13    1    3    3    0    0 -0.94447103706E+02 -0.18555629076E+03 -0.87458219226E+03  0.89902469568E+03  0.00000000000E+00 0.  1.
          3    1    3    3  501    0  0.94446235118E+02  0.18555433141E+03 -0.17454873856E+02  0.20893820582E+03  0.00000000000E+00 0.  1.
         21    1    1    2  502  501  0.86858833343E-03  0.19593556357E-02  0.70911328560E-01  0.70943710351E-01  0.00000000000E+00 0.  1.
<mgrwt>
<rscale>  1 0.65715422E+03</rscale>
<asrwt>0</asrwt>
<pdfrwt beam="1">  1        1 0.39285117E+00 0.65715422E+03</pdfrwt>
<pdfrwt beam="2">0</pdfrwt>
<totfact> 0.14375997E+00</totfact>
</mgrwt>
</event>
<event>
 6    1  0.2450233E-003  0.6359512E+03  0.7818608E-02  0.9833504E-01
          1   -1    0    0  502    0  0.00000000000E+00  0.00000000000E+00  0.10449368869E+03  0.10449368869E+03  0.00000000000E+00 0.  1.
         13   -1    0    0    0    0 -0.00000000000E+00 -0.00000000000E+00 -0.10000000000E+04  0.10000000000E+04  0.00000000000E+00 0.  1.
    9000005    2    1    2  501    0  0.16030071196E+01 -0.41350294708E+01 -0.89721565970E+03  0.10997407977E+04  0.63593569965E+03 0.  0.
         13    1    3    3    0    0  0.57009019328E+01  0.21667176637E+03 -0.84561035233E+03  0.87294674671E+03  0.00000000000E+00 0.  1.
          3    1    3    3  501    0 -0.40978948132E+01 -0.22080679584E+03 -0.51605307372E+02  0.22679405102E+03  0.00000000000E+00 0.  1.
         21    1    1    2  502  501 -0.16030071196E+01  0.41350294708E+01  0.17093483920E+01  0.47528909597E+01  0.00000000000E+00 0. -1.
<mgrwt>
<rscale>  1 0.63595116E+03</rscale>
<asrwt>0</asrwt>
<pdfrwt beam="1">  1        1 0.37997785E+00 0.63595116E+03</pdfrwt>
<pdfrwt beam="2">0</pdfrwt>
<totfact> 0.16456076E+00</totfact>
</mgrwt>
</event>
<event>
 6    1  0.2450233E-003  0.6487540E+03  0.7818608E-02  0.9809120E-01
          1   -1    0    0  502    0  0.00000000000E+00  0.00000000000E+00  0.10522044154E+03  0.10522044154E+03  0.00000000000E+00 0.  1.
         13   -1    0    0    0    0 -0.00000000000E+00 -0.00000000000E+00 -0.10000000000E+04  0.10000000000E+04  0.00000000000E+00 0.  1.
    9000005    2    1    2  501    0  0.24341289304E-05  0.34178140169E-04 -0.89477955463E+03  0.11052204071E+04  0.64875395707E+03 0.  0.
         13    1    3    3    0    0 -0.22821306236E+03 -0.21854397908E+03 -0.32245913328E+03  0.45146712534E+03  0.00000000000E+00 0.  1.
          1    1    3    3  501    0  0.22821306480E+03  0.21854401326E+03 -0.57232042135E+03  0.65375328173E+03  0.00000000000E+00 0.  1.
         21    1    1    2  502  501 -0.24341289191E-05 -0.34178140147E-04 -0.38245157718E-05  0.34477487849E-04  0.00000000000E+00 0. -1.
<mgrwt>
<rscale>  1 0.64875396E+03</rscale>
<asrwt>0</asrwt>
<pdfrwt beam="1">  1        1 0.38262059E+00 0.64875396E+03</pdfrwt>
<pdfrwt beam="2">0</pdfrwt>
<totfact> 0.15981972E+00</totfact>
</mgrwt>
</event>
<event>
 6    1  0.2450233E-003  0.6312385E+03  0.7818608E-02  0.9842635E-01
          1   -1    0    0  502    0  0.00000000000E+00  0.00000000000E+00  0.99616006569E+02  0.99616006569E+02  0.00000000000E+00 0.  1.
         13   -1    0    0    0    0 -0.00000000000E+00 -0.00000000000E+00 -0.10000000000E+04  0.10000000000E+04  0.00000000000E+00 0.  1.
    9000005    2    1    2  501    0 -0.43981346181E-04 -0.36871547962E-04 -0.90038447841E+03  0.10996155182E+04  0.63123852776E+03 0.  0.
         13    1    3    3    0    0  0.21283592337E+03 -0.14944884486E+03 -0.76171965898E+03  0.80489187248E+03  0.00000000000E+00 0.  1.
          3    1    3    3  501    0 -0.21283596735E+03  0.14944880799E+03 -0.13866481943E+03  0.29472364573E+03  0.00000000000E+00 0.  1.
         21    1    1    2  502  501  0.43981346173E-04  0.36871547960E-04  0.48497552225E-03  0.48835962880E-03  0.00000000000E+00 0.  1.
<mgrwt>
<rscale>  1 0.63123853E+03</rscale>
<asrwt>0</asrwt>
<pdfrwt beam="1">  1        1 0.36224079E+00 0.63123853E+03</pdfrwt>
<pdfrwt beam="2">0</pdfrwt>
<totfact> 0.19707345E+00</totfact>
</mgrwt>
</event>
<event>
 6    1  0.2450233E-003  0.6471973E+03  0.7818608E-02  0.9812053E-01
          1   -1    0    0  502    0  0.00000000000E+00  0.00000000000E+00  0.11026395599E+03  0.11026395599E+03  0.00000000000E+00 0.  1.
         13   -1    0    0    0    0 -0.00000000000E+00 -0.00000000000E+00 -0.10000000000E+04  0.10000000000E+04  0.00000000000E+00 0.  1.
    9000005    2    1    2  501    0  0.22029306830E+01 -0.25422214057E+01 -0.89471505230E+03  0.11042551028E+04  0.64718852849E+03 0.  0.
         13    1    3    3    0    0  0.14276096576E+03 -0.22474773254E+03 -0.76709649678E+03  0.81199093099E+03  0.00000000000E+00 0.  1.
          1    1    3    3  501    0 -0.14055803508E+03  0.22220551113E+03 -0.12761855552E+03  0.29226417180E+03  0.00000000000E+00 0.  1.
         21    1    1    2  502  501 -0.22029306830E+01  0.25422214057E+01  0.49790082915E+01  0.60088532048E+01  0.00000000000E+00 0. -1.
<mgrwt>
<rscale>  1 0.64719727E+03</rscale>
<asrwt>0</asrwt>
<pdfrwt beam="1">  1        1 0.40096069E+00 0.64719727E+03</pdfrwt>
<pdfrwt beam="2">0</pdfrwt>
<totfact> 0.13254527E+00</totfact>
</mgrwt>
</event>
<event>
 6    1  0.2450233E-003  0.5992720E+03  0.7818608E-02  0.9906917E-01
          1   -1    0    0  502    0  0.00000000000E+00  0.00000000000E+00  0.89782977844E+02  0.89782977844E+02  0.00000000000E+00 0.  1.
         13   -1    0    0    0    0 -0.00000000000E+00 -0.00000000000E+00 -0.10000000000E+04  0.10000000000E+04  0.00000000000E+00 0.  1.
    9000005    2    1    2  501    0  0.12746818831E-02  0.38670780319E-02 -0.91020980414E+03  0.10897746906E+04  0.59927204894E+03 0.  0.
         13    1    3    3    0    0  0.21026352019E+03 -0.75915029244E+02 -0.81792986010E+03  0.84792870905E+03  0.00000000000E+00 0.  1.
          3    1    3    3  501    0 -0.21026224551E+03  0.75918896322E+02 -0.92279944040E+02  0.24184598152E+03  0.00000000000E+00 0.  1.
         21    1    1    2  502  501 -0.12746818831E-02 -0.38670780319E-02 -0.72180190110E-02  0.82872736682E-02  0.00000000000E+00 0. -1.
<mgrwt>
<rscale>  1 0.59927205E+03</rscale>
<asrwt>0</asrwt>
<pdfrwt beam="1">  1        1 0.32648424E+00 0.59927205E+03</pdfrwt>
<pdfrwt beam="2">0</pdfrwt>
<totfact> 0.28356664E+00</totfact>
</mgrwt>
</event>
<event>
 6    1  0.2450233E-003  0.6414391E+03  0.7818608E-02  0.9822977E-01
          1   -1    0    0  502    0  0.00000000000E+00  0.00000000000E+00  0.10286335019E+03  0.10286335019E+03  0.00000000000E+00 0.  1.
         13   -1    0    0    0    0 -0.00000000000E+00 -0.00000000000E+00 -0.10000000000E+04  0.10000000000E+04  0.00000000000E+00 0.  1.
    9000005    2    1    2  501    0 -0.34699356888E-03 -0.10629006338E-03 -0.89713895778E+03  0.11028610139E+04  0.64143909011E+03 0.  0.
         13    1    3    3    0    0 -0.31561924487E+03  0.11730758841E+02 -0.54442300273E+03  0.62940410258E+03  0.00000000000E+00 0.  1.
          3    1    3    3  501    0  0.31561889788E+03 -0.11730865131E+02 -0.35271595505E+03  0.47345691128E+03  0.00000000000E+00 0.  1.
         21    1    1    2  502  501  0.34699356889E-03  0.10629006338E-03  0.23079762032E-02  0.23363339378E-02  0.00000000000E+00 0. -1.
<mgrwt>
<rscale>  1 0.64143909E+03</rscale>
<asrwt>0</asrwt>
<pdfrwt beam="1">  1        1 0.37404933E+00 0.64143909E+03</pdfrwt>
<pdfrwt beam="2">0</pdfrwt>
<totfact> 0.17458306E+00</totfact>
</mgrwt>
</event>
<event>
 6    1  0.2450233E-003  0.6519378E+03  0.7818608E-02  0.9803150E-01
          1   -1    0    0  502    0  0.00000000000E+00  0.00000000000E+00  0.10717474383E+03  0.10717474383E+03  0.00000000000E+00 0.  1.
         13   -1    0    0    0    0 -0.00000000000E+00 -0.00000000000E+00 -0.10000000000E+04  0.10000000000E+04  0.00000000000E+00 0.  1.
    9000005    2    1    2  501    0  0.12884146607E-01  0.30880721620E-02 -0.89374422508E+03  0.11062556794E+04  0.65193779474E+03 0.  0.
         13    1    3    3    0    0 -0.11498744654E+02 -0.13129597200E+03 -0.95276773282E+03  0.96184053049E+03  0.00000000000E+00 0.  1.
          1    1    3    3  501    0  0.11511628801E+02  0.13129906008E+03  0.59023507739E+02  0.14441514893E+03  0.00000000000E+00 0.  1.
         21    1    1    2  502  501 -0.12884146607E-01 -0.30880721620E-02  0.91896891202E+00  0.91906441487E+00  0.00000000000E+00 0. -1.
<mgrwt>
<rscale>  1 0.65193779E+03</rscale>
<asrwt>0</asrwt>
<pdfrwt beam="1">  1        1 0.38972716E+00 0.65193779E+03</pdfrwt>
<pdfrwt beam="2">0</pdfrwt>
<totfact> 0.14856703E+00</totfact>
</mgrwt>
</event>
<event>
 6    1  0.2450233E-003  0.6461657E+03  0.7818608E-02  0.9814001E-01
          1   -1    0    0  502    0  0.00000000000E+00  0.00000000000E+00  0.10449411390E+03  0.10449411390E+03  0.00000000000E+00 0.  1.
         13   -1    0    0    0    0 -0.00000000000E+00 -0.00000000000E+00 -0.10000000000E+04  0.10000000000E+04  0.00000000000E+00 0.  1.
    9000005    2    1    2  501    0  0.34147732502E+00 -0.47130831232E-01 -0.89499455590E+03  0.11038774400E+04  0.64616563566E+03 0.  0.
         13    1    3    3    0    0 -0.92749084193E+02  0.20540748889E+03 -0.52094248294E+02  0.23131891365E+03  0.00000000000E+00 0.  1.
          1    1    3    3  501    0  0.93090561518E+02 -0.20545461972E+03 -0.84290030761E+03  0.87255852639E+03  0.00000000000E+00 0.  1.
         21    1    1    2  502  501 -0.34147732502E+00  0.47130831232E-01 -0.51133019598E+00  0.61667385876E+00  0.00000000000E+00 0.  1.
<mgrwt>
<rscale>  1 0.64616573E+03</rscale>
<asrwt>0</asrwt>
<pdfrwt beam="1">  1        1 0.37997940E+00 0.64616573E+03</pdfrwt>
<pdfrwt beam="2">0</pdfrwt>
<totfact> 0.16424730E+00</totfact>
</mgrwt>
</event>
<event>
 6    1  0.2450233E-003  0.6453502E+03  0.7818608E-02  0.9815544E-01
          1   -1    0    0  502    0  0.00000000000E+00  0.00000000000E+00  0.10436147840E+03  0.10436147840E+03  0.00000000000E+00 0.  1.
         13   -1    0    0    0    0 -0.00000000000E+00 -0.00000000000E+00 -0.10000000000E+04  0.10000000000E+04  0.00000000000E+00 0.  1.
    9000005    2    1    2  501    0  0.15994176930E-01 -0.69447952934E-02 -0.89588044694E+03  0.11041189255E+04  0.64535015777E+03 0.  0.
         13    1    3    3    0    0  0.22091241082E+03  0.12384925359E+03 -0.10585077265E+03  0.27449101431E+03  0.00000000000E+00 0.  1.
          1    1    3    3  501    0 -0.22089641664E+03 -0.12385619839E+03 -0.79002967429E+03  0.82962791118E+03  0.00000000000E+00 0.  1.
         21    1    1    2  502  501 -0.15994176930E-01  0.69447952935E-02  0.24192533446E+00  0.24255290418E+00  0.00000000000E+00 0. -1.
<mgrwt>
<rscale>  1 0.64535016E+03</rscale>
<asrwt>0</asrwt>
<pdfrwt beam="1">  1        1 0.37949709E+00 0.64535016E+03</pdfrwt>
<pdfrwt beam="2">0</pdfrwt>
<totfact> 0.16507873E+00</totfact>
</mgrwt>
</event>
<event>
 6    1  0.2450233E-003  0.6242375E+03  0.7818608E-02  0.9856359E-01
          1   -1    0    0  502    0  0.00000000000E+00  0.00000000000E+00  0.97418911243E+02  0.97418911243E+02  0.00000000000E+00 0.  1.
         13   -1    0    0    0    0 -0.00000000000E+00 -0.00000000000E+00 -0.10000000000E+04  0.10000000000E+04  0.00000000000E+00 0.  1.
    9000005    2    1    2  501    0  0.46741786775E-04 -0.42382047610E-04 -0.90258188744E+03  0.10974181101E+04  0.62423749069E+03 0.  0.
         13    1    3    3    0    0  0.13300522513E+03  0.19333591390E+03 -0.89511762640E+02  0.25116034951E+03  0.00000000000E+00 0.  1.
          1    1    3    3  501    0 -0.13300517839E+03 -0.19333595628E+03 -0.81307012480E+03  0.84625776056E+03  0.00000000000E+00 0.  1.
         21    1    1    2  502  501 -0.46741786759E-04  0.42382047603E-04  0.79868095359E-03  0.80116933179E-03  0.00000000000E+00 0.  1.
<mgrwt>
<rscale>  1 0.62423749E+03</rscale>
<asrwt>0</asrwt>
<pdfrwt beam="1">  1        1 0.35425133E+00 0.62423749E+03</pdfrwt>
<pdfrwt beam="2">0</pdfrwt>
<totfact> 0.21384262E+00</totfact>
</mgrwt>
</event>
<event>
 6    1  0.2450233E-003  0.6719350E+03  0.7818608E-02  0.9766469E-01
          1   -1    0    0  502    0  0.00000000000E+00  0.00000000000E+00  0.12668173501E+03  0.12668173501E+03  0.00000000000E+00 0.  1.
         13   -1    0    0    0    0 -0.00000000000E+00 -0.00000000000E+00 -0.10000000000E+04  0.10000000000E+04  0.00000000000E+00 0.  1.
    9000005    2    1    2  501    0 -0.71617913131E+00 -0.34633592839E+00 -0.88711308371E+03  0.11128639970E+04  0.67193453520E+03 0.  0.
         13    1    3    3    0    0 -0.31037327119E+03  0.11627919142E+03 -0.35017286449E+03  0.48215500916E+03  0.00000000000E+00 0.  1.
          3    1    3    3  501    0  0.30965709206E+03 -0.11662552735E+03 -0.53694021922E+03  0.63070898781E+03  0.00000000000E+00 0.  1.
         21    1    1    2  502  501  0.71617913131E+00  0.34633592839E+00  0.13794818723E+02  0.13817738047E+02  0.00000000000E+00 0. -1.
<mgrwt>
<rscale>  1 0.67193501E+03</rscale>
<asrwt>0</asrwt>
<pdfrwt beam="1">  1        1 0.46066183E+00 0.67193501E+03</pdfrwt>
<pdfrwt beam="2">0</pdfrwt>
<totfact> 0.70596955E-01</totfact>
</mgrwt>
</event>
<event>
 6    1  0.2450233E-003  0.6571473E+03  0.7818608E-02  0.9793459E-01
          1   -1    0    0  502    0  0.00000000000E+00  0.00000000000E+00  0.11611303735E+03  0.11611303735E+03  0.00000000000E+00 0.  1.
         13   -1    0    0    0    0 -0.00000000000E+00 -0.00000000000E+00 -0.10000000000E+04  0.10000000000E+04  0.00000000000E+00 0.  1.
    9000005    2    1    2  501    0  0.15324807606E+02  0.37452041401E+00 -0.88308302930E+03  0.11007625878E+04  0.65696852892E+03 0.  0.
         13    1    3    3    0    0 -0.20760662778E+03 -0.81300112953E+02 -0.42086765247E+02  0.22689538575E+03  0.00000000000E+00 0.  1.
          1    1    3    3  501    0  0.22293143538E+03  0.81674633367E+02 -0.84099626405E+03  0.87386720202E+03  0.00000000000E+00 0.  1.
         21    1    1    2  502  501 -0.15324807606E+02 -0.37452041401E+00 -0.80393335396E+00  0.15350449587E+02  0.00000000000E+00 0.  1.
<mgrwt>
<rscale>  1 0.65714735E+03</rscale>
<asrwt>0</asrwt>
<pdfrwt beam="1">  1        1 0.42223012E+00 0.65714735E+03</pdfrwt>
<pdfrwt beam="2">0</pdfrwt>
<totfact> 0.10618868E+00</totfact>
</mgrwt>
</event>
<event>
 6    1  0.2450233E-003  0.6467474E+03  0.7818608E-02  0.9812902E-01
          1   -1    0    0  502    0  0.00000000000E+00  0.00000000000E+00  0.10478207784E+03  0.10478207784E+03  0.00000000000E+00 0.  1.
         13   -1    0    0    0    0 -0.00000000000E+00 -0.00000000000E+00 -0.10000000000E+04  0.10000000000E+04  0.00000000000E+00 0.  1.
    9000005    2    1    2  501    0 -0.15205622460E-01  0.47860346578E-02 -0.89542911276E+03  0.11045702865E+04  0.64674741708E+03 0.  0.
         13    1    3    3    0    0  0.27247502608E+03  0.57517877498E+02 -0.72842223188E+03  0.77983965914E+03  0.00000000000E+00 0.  1.
          3    1    3    3  501    0 -0.27249023170E+03 -0.57513091463E+02 -0.16700688088E+03  0.32473062732E+03  0.00000000000E+00 0.  1.
         21    1    1    2  502  501  0.15205622460E-01 -0.47860346578E-02  0.21119060466E+00  0.21179137985E+00  0.00000000000E+00 0. -1.
<mgrwt>
<rscale>  1 0.64674742E+03</rscale>
<asrwt>0</asrwt>
<pdfrwt beam="1">  1        1 0.38102654E+00 0.64674742E+03</pdfrwt>
<pdfrwt beam="2">0</pdfrwt>
<totfact> 0.16249142E+00</totfact>
</mgrwt>
</event>
<event>
 6    1  0.2450233E-003  0.6513241E+03  0.7818608E-02  0.9804298E-01
          1   -1    0    0  502    0  0.00000000000E+00  0.00000000000E+00  0.10606133131E+03  0.10606133131E+03  0.00000000000E+00 0.  1.
         13   -1    0    0    0    0 -0.00000000000E+00 -0.00000000000E+00 -0.10000000000E+04  0.10000000000E+04  0.00000000000E+00 0.  1.
    9000005    2    1    2  501    0  0.34329052903E-03 -0.19340192350E-03 -0.89394422473E+03  0.11060557613E+04  0.65132409000E+03 0.  0.
         13    1    3    3    0    0 -0.30356398350E+03 -0.10766113438E+03 -0.52865477078E+03  0.61904594224E+03  0.00000000000E+00 0.  1.
          1    1    3    3  501    0  0.30356432679E+03  0.10766094097E+03 -0.36528945395E+03  0.48700981908E+03  0.00000000000E+00 0.  1.
         21    1    1    2  502  501 -0.34329052902E-03  0.19340192349E-03  0.55560450100E-02  0.55699989986E-02  0.00000000000E+00 0. -1.
<mgrwt>
<rscale>  1 0.65132409E+03</rscale>
<asrwt>0</asrwt>
<pdfrwt beam="1">  1        1 0.38567838E+00 0.65132409E+03</pdfrwt>
<pdfrwt beam="2">0</pdfrwt>
<totfact> 0.15484774E+00</totfact>
</mgrwt>
</event>
<event>
 6    1  0.2450233E-003  0.6419677E+03  0.7818608E-02  0.9821969E-01
          1   -1    0    0  502    0  0.00000000000E+00  0.00000000000E+00  0.10371909058E+03  0.10371909058E+03  0.00000000000E+00 0.  1.
         13   -1    0    0    0    0 -0.00000000000E+00 -0.00000000000E+00 -0.10000000000E+04  0.10000000000E+04  0.00000000000E+00 0.  1.
    9000005    2    1    2  501    0 -0.98528906793E+00 -0.97894139340E+00 -0.89609215917E+03  0.11023173961E+04  0.64196616334E+03 0.  0.
         13    1    3    3    0    0 -0.45659952824E+02  0.17791383185E+03 -0.89933654939E+03  0.91790216904E+03  0.00000000000E+00 0.  1.
          3    1    3    3  501    0  0.44674663756E+02 -0.17889277324E+03  0.32443902198E+01  0.18441522705E+03  0.00000000000E+00 0.  1.
         21    1    1    2  502  501  0.98528906793E+00  0.97894139340E+00 -0.18875024431E+00  0.14016944938E+01  0.00000000000E+00 0.  1.
<mgrwt>
<rscale>  1 0.64196767E+03</rscale>
<asrwt>0</asrwt>
<pdfrwt beam="1">  1        1 0.37716112E+00 0.64196767E+03</pdfrwt>
<pdfrwt beam="2">0</pdfrwt>
<totfact> 0.16914501E+00</totfact>
</mgrwt>
</event>
<event>
 6    1  0.2450233E-003  0.6481239E+03  0.7818608E-02  0.9810306E-01
          1   -1    0    0  502    0  0.00000000000E+00  0.00000000000E+00  0.11235461001E+03  0.11235461001E+03  0.00000000000E+00 0.  1.
         13   -1    0    0    0    0 -0.00000000000E+00 -0.00000000000E+00 -0.10000000000E+04  0.10000000000E+04  0.00000000000E+00 0.  1.
    9000005    2    1    2  501    0  0.23227408990E+00  0.10961280520E+01 -0.89493655243E+03  0.11049778561E+04  0.64812296227E+03 0.  0.
         13    1    3    3    0    0 -0.22420640724E+03  0.40150019875E+02 -0.84041383327E+03  0.87073299483E+03  0.00000000000E+00 0.  1.
          3    1    3    3  501    0  0.22443868133E+03 -0.39053891823E+02 -0.54522719165E+02  0.23424486131E+03  0.00000000000E+00 0.  1.
         21    1    1    2  502  501 -0.23227408990E+00 -0.10961280520E+01  0.72911624443E+01  0.73767538761E+01  0.00000000000E+00 0.  1.
<mgrwt>
<rscale>  1 0.64812393E+03</rscale>
<asrwt>0</asrwt>
<pdfrwt beam="1">  1        1 0.40856308E+00 0.64812393E+03</pdfrwt>
<pdfrwt beam="2">0</pdfrwt>
<totfact> 0.12255012E+00</totfact>
</mgrwt>
</event>
<event>
 6    1  0.2450233E-003  0.6591147E+03  0.7818608E-02  0.9789825E-01
          1   -1    0    0  502    0  0.00000000000E+00  0.00000000000E+00  0.10860823872E+03  0.10860823872E+03  0.00000000000E+00 0.  1.
         13   -1    0    0    0    0 -0.00000000000E+00 -0.00000000000E+00 -0.10000000000E+04  0.10000000000E+04  0.00000000000E+00 0.  1.
    9000005    2    1    2  501    0 -0.22408544692E-03  0.10941763514E-03 -0.89139187179E+03  0.11086079660E+04  0.65911467369E+03 0.  0.
         13    1    3    3    0    0 -0.27421639553E+03  0.96955003744E+02 -0.18505547108E+03  0.34473240594E+03  0.00000000000E+00 0.  1.
          3    1    3    3  501    0  0.27421617144E+03 -0.96954894326E+02 -0.70633640071E+03  0.76387556001E+03  0.00000000000E+00 0.  1.
         21    1    1    2  502  501  0.22408544692E-03 -0.10941763514E-03  0.11051348510E-03  0.27276315145E-03  0.00000000000E+00 0.  1.
<mgrwt>
<rscale>  1 0.65911467E+03</rscale>
<asrwt>0</asrwt>
<pdfrwt beam="1">  1        1 0.39493988E+00 0.65911467E+03</pdfrwt>
<pdfrwt beam="2">0</pdfrwt>
<totfact> 0.14066858E+00</totfact>
</mgrwt>
</event>
<event>
 6    1  0.2450233E-003  0.6281293E+03  0.7818608E-02  0.9848706E-01
          1   -1    0    0  502    0  0.00000000000E+00  0.00000000000E+00  0.98660711688E+02  0.98660711688E+02  0.00000000000E+00 0.  1.
         13   -1    0    0    0    0 -0.00000000000E+00 -0.00000000000E+00 -0.10000000000E+04  0.10000000000E+04  0.00000000000E+00 0.  1.
    9000005    2    1    2  501    0 -0.34846767008E-03  0.12782755046E-02 -0.90136338907E+03  0.10986365745E+04  0.62812925720E+03 0.  0.
         13    1    3    3    0    0  0.15070497487E+03 -0.19858438623E+03 -0.78478620907E+03  0.82343010745E+03  0.00000000000E+00 0.  1.
          3    1    3    3  501    0 -0.15070532334E+03  0.19858566450E+03 -0.11657718000E+03  0.27520646709E+03  0.00000000000E+00 0.  1.
         21    1    1    2  502  501  0.34846767009E-03 -0.12782755046E-02  0.24100760443E-01  0.24137151280E-01  0.00000000000E+00 0. -1.
<mgrwt>
<rscale>  1 0.62812926E+03</rscale>
<asrwt>0</asrwt>
<pdfrwt beam="1">  1        1 0.35876698E+00 0.62812926E+03</pdfrwt>
<pdfrwt beam="2">0</pdfrwt>
<totfact> 0.20420553E+00</totfact>
</mgrwt>
</event>
<event>
 6    1  0.2450233E-003  0.6443714E+03  0.7818608E-02  0.9817399E-01
          1   -1    0    0  502    0  0.00000000000E+00  0.00000000000E+00  0.10393093108E+03  0.10393093108E+03  0.00000000000E+00 0.  1.
         13   -1    0    0    0    0 -0.00000000000E+00 -0.00000000000E+00 -0.10000000000E+04  0.10000000000E+04  0.00000000000E+00 0.  1.
    9000005    2    1    2  501    0  0.15670383154E-01 -0.32042997819E-02 -0.89619583525E+03  0.11038031597E+04  0.64437135250E+03 0.  0.
         13    1    3    3    0    0 -0.20694981188E+03 -0.24652530004E+03 -0.42397598525E+03  0.53231436602E+03  0.00000000000E+00 0.  1.
          3    1    3    3  501    0  0.20696548226E+03  0.24652209574E+03 -0.47221985000E+03  0.57148879365E+03  0.00000000000E+00 0.  1.
         21    1    1    2  502  501 -0.15670383154E-01  0.32042997819E-02  0.12676633771E+00  0.12777140847E+00  0.00000000000E+00 0. -1.
<mgrwt>
<rscale>  1 0.64437135E+03</rscale>
<asrwt>0</asrwt>
<pdfrwt beam="1">  1        1 0.37793146E+00 0.64437135E+03</pdfrwt>
<pdfrwt beam="2">0</pdfrwt>
<totfact> 0.16775394E+00</totfact>
</mgrwt>
</event>
<event>
 6    1  0.2450233E-003  0.6636635E+03  0.7818608E-02  0.9781473E-01
          1   -1    0    0  502    0  0.00000000000E+00  0.00000000000E+00  0.11011314640E+03  0.11011314640E+03  0.00000000000E+00 0.  1.
         13   -1    0    0    0    0 -0.00000000000E+00 -0.00000000000E+00 -0.10000000000E+04  0.10000000000E+04  0.00000000000E+00 0.  1.
    9000005    2    1    2  501    0 -0.40195235670E-04  0.30682914573E-03 -0.88988764355E+03  0.11101122980E+04  0.66366354127E+03 0.  0.
         13    1    3    3    0    0  0.21084676551E+03 -0.18131664855E+03 -0.74779160388E+03  0.79782477299E+03  0.00000000000E+00 0.  1.
          1    1    3    3  501    0 -0.21084680570E+03  0.18131695538E+03 -0.14209603967E+03  0.31228752500E+03  0.00000000000E+00 0.  1.
         21    1    1    2  502  501  0.40195235675E-04 -0.30682914571E-03  0.78995062871E-03  0.84839953879E-03  0.00000000000E+00 0. -1.
<mgrwt>
<rscale>  1 0.66366354E+03</rscale>
<asrwt>0</asrwt>
<pdfrwt beam="1">  1        1 0.40041229E+00 0.66366354E+03</pdfrwt>
<pdfrwt beam="2">0</pdfrwt>
<totfact> 0.13287921E+00</totfact>
</mgrwt>
</event>
<event>
 6    1  0.2450233E-003  0.6461878E+03  0.7818608E-02  0.9813959E-01
          1   -1    0    0  502    0  0.00000000000E+00  0.00000000000E+00  0.10439137390E+03  0.10439137390E+03  0.00000000000E+00 0.  1.
         13   -1    0    0    0    0 -0.00000000000E+00 -0.00000000000E+00 -0.10000000000E+04  0.10000000000E+04  0.00000000000E+00 0.  1.
    9000005    2    1    2  501    0  0.12915200882E-03 -0.13391011885E-03 -0.89561033703E+03  0.11043896529E+04  0.64618776653E+03 0.  0.
         13    1    3    3    0    0 -0.11205809309E+03  0.15244476634E+03 -0.19061319209E+00  0.18919952258E+03  0.00000000000E+00 0.  1.
          3    1    3    3  501    0  0.11205822224E+03 -0.15244490025E+03 -0.89541972383E+03  0.91519013031E+03  0.00000000000E+00 0.  1.
         21    1    1    2  502  501 -0.12915200881E-03  0.13391011885E-03  0.17109267548E-02  0.17210120632E-02  0.00000000000E+00 0.  1.
<mgrwt>
<rscale>  1 0.64618777E+03</rscale>
<asrwt>0</asrwt>
<pdfrwt beam="1">  1        1 0.37960580E+00 0.64618777E+03</pdfrwt>
<pdfrwt beam="2">0</pdfrwt>
<totfact> 0.16487117E+00</totfact>
</mgrwt>
</event>
<event>
 6    1  0.2450233E-003  0.6356839E+03  0.7818608E-02  0.9834019E-01
          1   -1    0    0  502    0  0.00000000000E+00  0.00000000000E+00  0.10224929254E+03  0.10224929254E+03  0.00000000000E+00 0.  1.
         13   -1    0    0    0    0 -0.00000000000E+00 -0.00000000000E+00 -0.10000000000E+04  0.10000000000E+04  0.00000000000E+00 0.  1.
    9000005    2    1    2  501    0 -0.19995444179E-01 -0.73694748009E-02 -0.89897639495E+03  0.11010234198E+04  0.63568389300E+03 0.  0.
         13    1    3    3    0    0  0.17352113783E+03 -0.75942157704E+02 -0.74108706468E+01  0.18955663427E+03  0.00000000000E+00 0.  1.
          3    1    3    3  501    0 -0.17354113328E+03  0.75934788229E+02 -0.89156552431E+03  0.91146678554E+03  0.00000000000E+00 0.  1.
         21    1    1    2  502  501  0.19995444179E-01  0.73694748009E-02  0.12256874973E+01  0.12258727373E+01  0.00000000000E+00 0. -1.
<mgrwt>
<rscale>  1 0.63568389E+03</rscale>
<asrwt>0</asrwt>
<pdfrwt beam="1">  1        1 0.37181639E+00 0.63568389E+03</pdfrwt>
<pdfrwt beam="2">0</pdfrwt>
<totfact> 0.17876344E+00</totfact>
</mgrwt>
</event>
<event>
 6    1  0.2450233E-003  0.6328728E+03  0.7818608E-02  0.9839459E-01
          1   -1    0    0  502    0  0.00000000000E+00  0.00000000000E+00  0.10013305259E+03  0.10013305259E+03  0.00000000000E+00 0.  1.
         13   -1    0    0    0    0 -0.00000000000E+00 -0.00000000000E+00 -0.10000000000E+04  0.10000000000E+04  0.00000000000E+00 0.  1.
    9000005    2    1    2  501    0 -0.31988473594E-04  0.12314484128E-03 -0.89986799878E+03  0.11001319936E+04  0.63287280556E+03 0.  0.
         13    1    3    3    0    0 -0.12445444612E+03  0.14680527381E+02  0.55158022465E+02  0.13691908006E+03  0.00000000000E+00 0.  1.
          1    1    3    3  501    0  0.12445441413E+03 -0.14680404237E+02 -0.95502602124E+03  0.96321291349E+03  0.00000000000E+00 0.  1.
         21    1    1    2  502  501  0.31988473595E-04 -0.12314484128E-03  0.10513708096E-02  0.10590413087E-02  0.00000000000E+00 0. -1.
<mgrwt>
<rscale>  1 0.63287281E+03</rscale>
<asrwt>0</asrwt>
<pdfrwt beam="1">  1        1 0.36412096E+00 0.63287281E+03</pdfrwt>
<pdfrwt beam="2">0</pdfrwt>
<totfact> 0.19331532E+00</totfact>
</mgrwt>
</event>
<event>
 6    1  0.2450233E-003  0.6423052E+03  0.7818608E-02  0.9821326E-01
          1   -1    0    0  502    0  0.00000000000E+00  0.00000000000E+00  0.10313911210E+03  0.10313911210E+03  0.00000000000E+00 0.  1.
         13   -1    0    0    0    0 -0.00000000000E+00 -0.00000000000E+00 -0.10000000000E+04  0.10000000000E+04  0.00000000000E+00 0.  1.
    9000005    2    1    2  501    0 -0.10943796127E-03 -0.31223036054E-04 -0.89686097479E+03  0.11031389689E+04  0.64230520522E+03 0.  0.
         13    1    3    3    0    0 -0.29413308312E+03 -0.46587083702E+02 -0.24194540636E+03  0.38369546076E+03  0.00000000000E+00 0.  1.
          1    1    3    3  501    0  0.29413297368E+03  0.46587052479E+02 -0.65491556843E+03  0.71944350816E+03  0.00000000000E+00 0.  1.
         21    1    1    2  502  501  0.10943796131E-03  0.31223036052E-04  0.86886033540E-04  0.14318075352E-03  0.00000000000E+00 0. -1.
<mgrwt>
<rscale>  1 0.64230521E+03</rscale>
<asrwt>0</asrwt>
<pdfrwt beam="1">  1        1 0.37505211E+00 0.64230521E+03</pdfrwt>
<pdfrwt beam="2">0</pdfrwt>
<totfact> 0.17279063E+00</totfact>
</mgrwt>
</event>
<event>
 6    1  0.2450233E-003  0.6527308E+03  0.7818608E-02  0.9801668E-01
          1   -1    0    0  502    0  0.00000000000E+00  0.00000000000E+00  0.10652006573E+03  0.10652006573E+03  0.00000000000E+00 0.  1.
         13   -1    0    0    0    0 -0.00000000000E+00 -0.00000000000E+00 -0.10000000000E+04  0.10000000000E+04  0.00000000000E+00 0.  1.
    9000005    2    1    2  501    0  0.80446306578E-02  0.22882127144E-02 -0.89348198415E+03  0.11065114545E+04  0.65273083485E+03 0.  0.
         13    1    3    3    0    0  0.46704683087E+02  0.71812625030E+02 -0.98060076068E+03  0.98433542677E+03  0.00000000000E+00 0.  1.
          1    1    3    3  501    0 -0.46696638456E+02 -0.71810336817E+02  0.87118776533E+02  0.12217602769E+03  0.00000000000E+00 0.  1.
         21    1    1    2  502  501 -0.80446306578E-02 -0.22882127144E-02  0.20498751863E-02  0.86112709937E-02  0.00000000000E+00 0. -1.
<mgrwt>
<rscale>  1 0.65273083E+03</rscale>
<asrwt>0</asrwt>
<pdfrwt beam="1">  1        1 0.38734651E+00 0.65273083E+03</pdfrwt>
<pdfrwt beam="2">0</pdfrwt>
<totfact> 0.15219754E+00</totfact>
</mgrwt>
</event>
<event>
 6    1  0.2450233E-003  0.6541592E+03  0.7818608E-02  0.9799006E-01
          1   -1    0    0  502    0  0.00000000000E+00  0.00000000000E+00  0.10698293830E+03  0.10698293830E+03  0.00000000000E+00 0.  1.
         13   -1    0    0    0    0 -0.00000000000E+00 -0.00000000000E+00 -0.10000000000E+04  0.10000000000E+04  0.00000000000E+00 0.  1.
    9000005    2    1    2  501    0 -0.82879485475E-04  0.51514511483E-04 -0.89301894098E+03  0.11069810565E+04  0.65415917825E+03 0.  0.
         13    1    3    3    0    0 -0.11330091830E+03  0.29043341729E+03 -0.61396587603E+03  0.68858025305E+03  0.00000000000E+00 0.  1.
          1    1    3    3  501    0  0.11330083542E+03 -0.29043336578E+03 -0.27905306495E+03  0.41840080344E+03  0.00000000000E+00 0.  1.
         21    1    1    2  502  501  0.82879485475E-04 -0.51514511511E-04  0.18792765425E-02  0.18818084592E-02  0.00000000000E+00 0.  1.
<mgrwt>
<rscale>  1 0.65415918E+03</rscale>
<asrwt>0</asrwt>
<pdfrwt beam="1">  1        1 0.38902969E+00 0.65415918E+03</pdfrwt>
<pdfrwt beam="2">0</pdfrwt>
<totfact> 0.14956686E+00</totfact>
</mgrwt>
</event>
<event>
 6    1  0.2450233E-003  0.6508199E+03  0.7818608E-02  0.9805242E-01
          1   -1    0    0  502    0  0.00000000000E+00  0.00000000000E+00  0.10589168708E+03  0.10589168708E+03  0.00000000000E+00 0.  1.
         13   -1    0    0    0    0 -0.00000000000E+00 -0.00000000000E+00 -0.10000000000E+04  0.10000000000E+04  0.00000000000E+00 0.  1.
    9000005    2    1    2  501    0  0.14360902583E-04  0.67814254123E-04 -0.89410835203E+03  0.11058916075E+04  0.65081986936E+03 0.  0.
         13    1    3    3    0    0  0.23404287884E+03  0.20126059025E+03 -0.27202751420E+03  0.41143755639E+03  0.00000000000E+00 0.  1.
          3    1    3    3  501    0 -0.23404286448E+03 -0.20126052243E+03 -0.62208083783E+03  0.69445405110E+03  0.00000000000E+00 0.  1.
         21    1    1    2  502  501 -0.14360902582E-04 -0.67814254144E-04  0.39107896404E-04  0.79589171055E-04  0.00000000000E+00 0.  1.
<mgrwt>
<rscale>  1 0.65081987E+03</rscale>
<asrwt>0</asrwt>
<pdfrwt beam="1">  1        1 0.38506149E+00 0.65081987E+03</pdfrwt>
<pdfrwt beam="2">0</pdfrwt>
<totfact> 0.15583841E+00</totfact>
</mgrwt>
</event>
<event>
 6    1  0.2450233E-003  0.5651675E+03  0.7818608E-02  0.9980430E-01
          3   -1    0    0  502    0  0.00000000000E+00  0.00000000000E+00  0.80015432828E+02  0.80015432828E+02  0.00000000000E+00 0.  1.
         13   -1    0    0    0    0 -0.00000000000E+00 -0.00000000000E+00 -0.10000000000E+04  0.10000000000E+04  0.00000000000E+00 0.  1.
    9000005    2    1    2  501    0  0.11128394884E-02  0.29147710163E-02 -0.92014641756E+03  0.10798535524E+04  0.56516746617E+03 0.  0.
         13    1    3    3    0    0  0.71414964781E+02  0.14883740718E+03 -0.89828883488E+03  0.91333208738E+03  0.00000000000E+00 0.  1.
          3    1    3    3  501    0 -0.71413851941E+02 -0.14883449241E+03 -0.21857582677E+02  0.16652146499E+03  0.00000000000E+00 0.  1.
         21    1    1    2  502  501 -0.11128394884E-02 -0.29147710163E-02  0.16185038710E+00  0.16188045622E+00  0.00000000000E+00 0.  1.
<mgrwt>
<rscale>  1 0.56516747E+03</rscale>
<asrwt>0</asrwt>
<pdfrwt beam="1">  1        3 0.29096582E+00 0.56516747E+03</pdfrwt>
<pdfrwt beam="2">0</pdfrwt>
<totfact> 0.22900011E-01</totfact>
</mgrwt>
</event>
<event>
 6    1  0.2450233E-003  0.6492889E+03  0.7818608E-02  0.9808114E-01
          1   -1    0    0  502    0  0.00000000000E+00  0.00000000000E+00  0.10544215455E+03  0.10544215455E+03  0.00000000000E+00 0.  1.
         13   -1    0    0    0    0 -0.00000000000E+00 -0.00000000000E+00 -0.10000000000E+04  0.10000000000E+04  0.00000000000E+00 0.  1.
    9000005    2    1    2  501    0 -0.83137723383E-02 -0.67163996752E-03 -0.89460558365E+03  0.11053936932E+04  0.64928889298E+03 0.  0.
         13    1    3    3    0    0  0.93834210541E+02 -0.28909797112E+02  0.79509225875E+02  0.12634220370E+03  0.00000000000E+00 0.  1.
          3    1    3    3  501    0 -0.93842524313E+02  0.28909125472E+02 -0.97411480952E+03  0.97905148947E+03  0.00000000000E+00 0.  1.
         21    1    1    2  502  501  0.83137723383E-02  0.67163996752E-03  0.47738193538E-01  0.48461376714E-01  0.00000000000E+00 0.  1.
<mgrwt>
<rscale>  1 0.64928889E+03</rscale>
<asrwt>0</asrwt>
<pdfrwt beam="1">  1        1 0.38342683E+00 0.64928889E+03</pdfrwt>
<pdfrwt beam="2">0</pdfrwt>
<totfact> 0.15849842E+00</totfact>
</mgrwt>
</event>
<event>
 6    1  0.2450233E-003  0.6541928E+03  0.7818608E-02  0.9798943E-01
          3   -1    0    0  502    0  0.00000000000E+00  0.00000000000E+00  0.10699319156E+03  0.10699319156E+03  0.00000000000E+00 0.  1.
         13   -1    0    0    0    0 -0.00000000000E+00 -0.00000000000E+00 -0.10000000000E+04  0.10000000000E+04  0.00000000000E+00 0.  1.
    9000005    2    1    2  501    0  0.11843748019E-02 -0.94538683427E-03 -0.89300733620E+03  0.11069915869E+04  0.65419283922E+03 0.  0.
         13    1    3    3    0    0  0.24160853368E+03  0.14276229686E+03 -0.16216024224E+03  0.32411680166E+03  0.00000000000E+00 0.  1.
          1    1    3    3  501    0 -0.24160734931E+03 -0.14276324225E+03 -0.73084709396E+03  0.78287478521E+03  0.00000000000E+00 0.  1.
         21    1    1    2  502  501 -0.11843748019E-02  0.94538683429E-03  0.52775878033E-03  0.16046897731E-02  0.00000000000E+00 0.  1.
<mgrwt>
<rscale>  1 0.65419284E+03</rscale>
<asrwt>0</asrwt>
<pdfrwt beam="1">  1        3 0.38906697E+00 0.65419284E+03</pdfrwt>
<pdfrwt beam="2">0</pdfrwt>
<totfact> 0.67563544E-02</totfact>
</mgrwt>
</event>
<event>
 6    1  0.2450233E-003  0.6417750E+03  0.7818608E-02  0.9822336E-01
          1   -1    0    0  502    0  0.00000000000E+00  0.00000000000E+00  0.10298168567E+03  0.10298168567E+03  0.00000000000E+00 0.  1.
         13   -1    0    0    0    0 -0.00000000000E+00 -0.00000000000E+00 -0.10000000000E+04  0.10000000000E+04  0.00000000000E+00 0.  1.
    9000005    2    1    2  501    0  0.23643695373E-02 -0.25462051620E-02 -0.89703095422E+03  0.11029685769E+04  0.64177499855E+03 0.  0.
         13    1    3    3    0    0  0.10090502903E+03  0.20190423356E+03 -0.56528272022E+02  0.23268560323E+03  0.00000000000E+00 0.  1.
          1    1    3    3  501    0 -0.10090266466E+03 -0.20190677977E+03 -0.84050268220E+03  0.87028297365E+03  0.00000000000E+00 0.  1.
         21    1    1    2  502  501 -0.23643695373E-02  0.25462051620E-02  0.12639884386E-01  0.13108778789E-01  0.00000000000E+00 0.  1.
<mgrwt>
<rscale>  1 0.64177500E+03</rscale>
<asrwt>0</asrwt>
<pdfrwt beam="1">  1        1 0.37447965E+00 0.64177500E+03</pdfrwt>
<pdfrwt beam="2">0</pdfrwt>
<totfact> 0.17381286E+00</totfact>
</mgrwt>
</event>
<event>
 6    1  0.2450233E-003  0.6418514E+03  0.7818608E-02  0.9822191E-01
          1   -1    0    0  502    0  0.00000000000E+00  0.00000000000E+00  0.10304467245E+03  0.10304467245E+03  0.00000000000E+00 0.  1.
         13   -1    0    0    0    0 -0.00000000000E+00 -0.00000000000E+00 -0.10000000000E+04  0.10000000000E+04  0.00000000000E+00 0.  1.
    9000005    2    1    2  501    0  0.18308085200E-02 -0.25728762899E-01 -0.89700309182E+03  0.11029903885E+04  0.64185142341E+03 0.  0.
         13    1    3    3    0    0 -0.15062315620E+03  0.27951133933E+03 -0.36839879887E+03  0.48634514392E+03  0.00000000000E+00 0.  1.
          1    1    3    3  501    0  0.15062498701E+03 -0.27953706810E+03 -0.52860429295E+03  0.61664524459E+03  0.00000000000E+00 0.  1.
         21    1    1    2  502  501 -0.18308085200E-02  0.25728762899E-01  0.47764270770E-01  0.54283944793E-01  0.00000000000E+00 0.  1.
<mgrwt>
<rscale>  1 0.64185142E+03</rscale>
<asrwt>0</asrwt>
<pdfrwt beam="1">  1        1 0.37470869E+00 0.64185142E+03</pdfrwt>
<pdfrwt beam="2">0</pdfrwt>
<totfact> 0.17340748E+00</totfact>
</mgrwt>
</event>
<event>
 6    1  0.2450233E-003  0.6509736E+03  0.7818608E-02  0.9804954E-01
          1   -1    0    0  502    0  0.00000000000E+00  0.00000000000E+00  0.10594364536E+03  0.10594364536E+03  0.00000000000E+00 0.  1.
         13   -1    0    0    0    0 -0.00000000000E+00 -0.00000000000E+00 -0.10000000000E+04  0.10000000000E+04  0.00000000000E+00 0.  1.
    9000005    2    1    2  501    0 -0.29978073195E-02 -0.73686720179E-03 -0.89405690531E+03  0.11059405096E+04  0.65097362527E+03 0.  0.
         13    1    3    3    0    0  0.16564354580E+03  0.67835619262E+02 -0.90887148375E+03  0.92632976282E+03  0.00000000000E+00 0.  1.
          1    1    3    3  501    0 -0.16564654360E+03 -0.67836356130E+02  0.14814578440E+02  0.17961074677E+03  0.00000000000E+00 0.  1.
         21    1    1    2  502  501  0.29978073195E-02  0.73686720180E-03  0.55067439740E-03  0.31357717216E-02  0.00000000000E+00 0.  1.
<mgrwt>
<rscale>  1 0.65097363E+03</rscale>
<asrwt>0</asrwt>
<pdfrwt beam="1">  1        1 0.38525043E+00 0.65097363E+03</pdfrwt>
<pdfrwt beam="2">0</pdfrwt>
<totfact> 0.15553437E+00</totfact>
</mgrwt>
</event>
<event>
 6    1  0.2450233E-003  0.6339693E+03  0.7818608E-02  0.9837333E-01
          1   -1    0    0  502    0  0.00000000000E+00  0.00000000000E+00  0.10048035077E+03  0.10048035077E+03  0.00000000000E+00 0.  1.
         13   -1    0    0    0    0 -0.00000000000E+00 -0.00000000000E+00 -0.10000000000E+04  0.10000000000E+04  0.00000000000E+00 0.  1.
    9000005    2    1    2  501    0 -0.97182434331E-04 -0.29739127257E-04 -0.89952073101E+03  0.11004792642E+04  0.63396929381E+03 0.  0.
         13    1    3    3    0    0 -0.26925376404E+03 -0.14709620097E+03 -0.58802453550E+03  0.66325540792E+03  0.00000000000E+00 0.  1.
          3    1    3    3  501    0  0.26925366686E+03  0.14709617123E+03 -0.31149619551E+03  0.43722385631E+03  0.00000000000E+00 0.  1.
         21    1    1    2  502  501  0.97182434343E-04  0.29739127259E-04  0.10817712522E-02  0.10865348053E-02  0.00000000000E+00 0.  1.
<mgrwt>
<rscale>  1 0.63396929E+03</rscale>
<asrwt>0</asrwt>
<pdfrwt beam="1">  1        1 0.36538386E+00 0.63396929E+03</pdfrwt>
<pdfrwt beam="2">0</pdfrwt>
<totfact> 0.19082971E+00</totfact>
</mgrwt>
</event>
<event>
 6    1  0.2450233E-003  0.6219620E+03  0.7818608E-02  0.9860861E-01
          1   -1    0    0  502    0  0.00000000000E+00  0.00000000000E+00  0.97496449543E+02  0.97496449543E+02  0.00000000000E+00 0.  1.
         13   -1    0    0    0    0 -0.00000000000E+00 -0.00000000000E+00 -0.10000000000E+04  0.10000000000E+04  0.00000000000E+00 0.  1.
    9000005    2    1    2  501    0 -0.89125829486E+00  0.66480328971E+00 -0.90283717697E+03  0.10963355829E+04  0.62196101636E+03 0.  0.
         13    1    3    3    0    0 -0.11715702829E+03  0.28367859518E+03 -0.54541590083E+03  0.62584168887E+03  0.00000000000E+00 0.  1.
          1    1    3    3  501    0  0.11626577000E+03 -0.28301379189E+03 -0.35742127613E+03  0.47049389401E+03  0.00000000000E+00 0.  1.
         21    1    1    2  502  501  0.89125829486E+00 -0.66480328971E+00  0.33362651109E+00  0.11608666638E+01  0.00000000000E+00 0. -1.
<mgrwt>
<rscale>  1 0.62196201E+03</rscale>
<asrwt>0</asrwt>
<pdfrwt beam="1">  1        1 0.35453329E+00 0.62196201E+03</pdfrwt>
<pdfrwt beam="2">0</pdfrwt>
<totfact> 0.21332489E+00</totfact>
</mgrwt>
</event>
<event>
 6    1  0.2450233E-003  0.6475006E+03  0.7818608E-02  0.9811480E-01
          1   -1    0    0  502    0  0.00000000000E+00  0.00000000000E+00  0.10481432079E+03  0.10481432079E+03  0.00000000000E+00 0.  1.
         13   -1    0    0    0    0 -0.00000000000E+00 -0.00000000000E+00 -0.10000000000E+04  0.10000000000E+04  0.00000000000E+00 0.  1.
    9000005    2    1    2  501    0  0.90048539505E-05  0.13138783579E-04 -0.89518572886E+03  0.11048142686E+04  0.64750064020E+03 0.  0.
         13    1    3    3    0    0  0.31763994487E+03 -0.26274777293E+02 -0.35063838987E+03  0.47384889886E+03  0.00000000000E+00 0.  1.
          3    1    3    3  501    0 -0.31763993587E+03  0.26274790432E+02 -0.54454733899E+03  0.63096536979E+03  0.00000000000E+00 0.  1.
         21    1    1    2  502  501 -0.90048539248E-05 -0.13138783580E-04  0.49649603202E-04  0.52142095531E-04  0.00000000000E+00 0.  1.
<mgrwt>
<rscale>  1 0.64750064E+03</rscale>
<asrwt>0</asrwt>
<pdfrwt beam="1">  1        1 0.38114379E+00 0.64750064E+03</pdfrwt>
<pdfrwt beam="2">0</pdfrwt>
<totfact> 0.16227539E+00</totfact>
</mgrwt>
</event>
<event>
 6    1  0.2450233E-003  0.6557747E+03  0.7818608E-02  0.9796003E-01
          1   -1    0    0  502    0  0.00000000000E+00  0.00000000000E+00  0.10753066368E+03  0.10753066368E+03  0.00000000000E+00 0.  1.
         13   -1    0    0    0    0 -0.00000000000E+00 -0.00000000000E+00 -0.10000000000E+04  0.10000000000E+04  0.00000000000E+00 0.  1.
    9000005    2    1    2  501    0 -0.11946619717E-01 -0.44790272197E-03 -0.89248795739E+03  0.11075085353E+04  0.65577465754E+03 0.  0.
         13    1    3    3    0    0  0.12723078761E+02  0.11490583151E+03 -0.96443509972E+03  0.97133943008E+03  0.00000000000E+00 0.  1.
          3    1    3    3  501    0 -0.12735025380E+02 -0.11490627941E+03  0.71947142331E+02  0.13616910519E+03  0.00000000000E+00 0.  1.
         21    1    1    2  502  501  0.11946619717E-01  0.44790272197E-03  0.18621064960E-01  0.22128407077E-01  0.00000000000E+00 0. -1.
<mgrwt>
<rscale>  1 0.65577466E+03</rscale>
<asrwt>0</asrwt>
<pdfrwt beam="1">  1        1 0.39102142E+00 0.65577466E+03</pdfrwt>
<pdfrwt beam="2">0</pdfrwt>
<totfact> 0.14651168E+00</totfact>
</mgrwt>
</event>
<event>
 6    1  0.2450233E-003  0.6467008E+03  0.7818608E-02  0.9812990E-01
          1   -1    0    0  502    0  0.00000000000E+00  0.00000000000E+00  0.10927449046E+03  0.10927449046E+03  0.00000000000E+00 0.  1.
         13   -1    0    0    0    0 -0.00000000000E+00 -0.00000000000E+00 -0.10000000000E+04  0.10000000000E+04  0.00000000000E+00 0.  1.
    9000005    2    1    2  501    0  0.17707070223E-01  0.62434784245E-01 -0.89544428304E+03  0.11045552707E+04  0.64670076374E+03 0.  0.
         13    1    3    3    0    0 -0.19428775692E+03 -0.11711855783E+03 -0.84120430286E+03  0.87125723425E+03  0.00000000000E+00 0.  1.
          3    1    3    3  501    0  0.19430546400E+03  0.11718099262E+03 -0.54239980183E+02  0.23329803647E+03  0.00000000000E+00 0.  1.
         21    1    1    2  502  501 -0.17707070223E-01 -0.62434784245E-01  0.47187735003E+01  0.47192197438E+01  0.00000000000E+00 0. -1.
<mgrwt>
<rscale>  1 0.64670077E+03</rscale>
<asrwt>0</asrwt>
<pdfrwt beam="1">  1        1 0.39736262E+00 0.64670077E+03</pdfrwt>
<pdfrwt beam="2">0</pdfrwt>
<totfact> 0.13754153E+00</totfact>
</mgrwt>
</event>
<event>
 6    1  0.2450233E-003  0.6487980E+03  0.7818608E-02  0.9809037E-01
          1   -1    0    0  502    0  0.00000000000E+00  0.00000000000E+00  0.10555164553E+03  0.10555164553E+03  0.00000000000E+00 0.  1.
         13   -1    0    0    0    0 -0.00000000000E+00 -0.00000000000E+00 -0.10000000000E+04  0.10000000000E+04  0.00000000000E+00 0.  1.
    9000005    2    1    2  501    0  0.14742357830E-02  0.64259643051E-02 -0.89476525579E+03  0.11052346756E+04  0.64879798491E+03 0.  0.
         13    1    3    3    0    0  0.15078097488E+03  0.27003115445E+03 -0.61416512688E+03  0.68764127991E+03  0.00000000000E+00 0.  1.
          1    1    3    3  501    0 -0.15077950065E+03 -0.27002472849E+03 -0.28060012891E+03  0.41759339572E+03  0.00000000000E+00 0.  1.
         21    1    1    2  502  501 -0.14742357830E-02 -0.64259643051E-02  0.31690132073E+00  0.31696989363E+00  0.00000000000E+00 0. -1.
<mgrwt>
<rscale>  1 0.64879798E+03</rscale>
<asrwt>0</asrwt>
<pdfrwt beam="1">  1        1 0.38382497E+00 0.64879798E+03</pdfrwt>
<pdfrwt beam="2">0</pdfrwt>
<totfact> 0.15787174E+00</totfact>
</mgrwt>
</event>
<event>
 6    1  0.2450233E-003  0.6502956E+03  0.7818608E-02  0.9806225E-01
          1   -1    0    0  502    0  0.00000000000E+00  0.00000000000E+00  0.10572134411E+03  0.10572134411E+03  0.00000000000E+00 0.  1.
         13   -1    0    0    0    0 -0.00000000000E+00 -0.00000000000E+00 -0.10000000000E+04  0.10000000000E+04  0.00000000000E+00 0.  1.
    9000005    2    1    2  501    0 -0.20308590160E-03  0.12458204054E-04 -0.89427884811E+03  0.11057210642E+04  0.65029563558E+03 0.  0.
         13    1    3    3    0    0  0.98986538979E+02  0.24789709852E+03 -0.76282442681E+03  0.80817845337E+03  0.00000000000E+00 0.  1.
          1    1    3    3  501    0 -0.98986742064E+02 -0.24789708607E+03 -0.13145442130E+03  0.29754261084E+03  0.00000000000E+00 0.  1.
         21    1    1    2  502  501  0.20308590160E-03 -0.12458204042E-04  0.19221362140E-03  0.27990206596E-03  0.00000000000E+00 0. -1.
<mgrwt>
<rscale>  1 0.65029564E+03</rscale>
<asrwt>0</asrwt>
<pdfrwt beam="1">  1        1 0.38444206E+00 0.65029564E+03</pdfrwt>
<pdfrwt beam="2">0</pdfrwt>
<totfact> 0.15683973E+00</totfact>
</mgrwt>
</event>
<event>
 6    1  0.2450233E-003  0.6821506E+03  0.7818608E-02  0.9748254E-01
          1   -1    0    0  502    0  0.00000000000E+00  0.00000000000E+00  0.11633284819E+03  0.11633284819E+03  0.00000000000E+00 0.  1.
         13   -1    0    0    0    0 -0.00000000000E+00 -0.00000000000E+00 -0.10000000000E+04  0.10000000000E+04  0.00000000000E+00 0.  1.
    9000005    2    1    2  501    0  0.21744109787E-03  0.20682520599E-04 -0.88366761760E+03  0.11163323337E+04  0.68215058525E+03 0.  0.
         13    1    3    3    0    0 -0.16677578366E+03  0.69760342238E+02  0.31481522776E+02  0.18349864752E+03  0.00000000000E+00 0.  1.
          3    1    3    3  501    0  0.16677600111E+03 -0.69760321555E+02 -0.91514914037E+03  0.93283368621E+03  0.00000000000E+00 0.  1.
         21    1    1    2  502  501 -0.21744109788E-03 -0.20682520601E-04  0.46578410037E-03  0.51445429910E-03  0.00000000000E+00 0.  1.
<mgrwt>
<rscale>  1 0.68215059E+03</rscale>
<asrwt>0</asrwt>
<pdfrwt beam="1">  1        1 0.42302943E+00 0.68215059E+03</pdfrwt>
<pdfrwt beam="2">0</pdfrwt>
<totfact> 0.10480038E+00</totfact>
</mgrwt>
</event>
<event>
 6    1  0.2450233E-003  0.6545416E+03  0.7818608E-02  0.9798294E-01
          1   -1    0    0  502    0  0.00000000000E+00  0.00000000000E+00  0.10817659118E+03  0.10817659118E+03  0.00000000000E+00 0.  1.
         13   -1    0    0    0    0 -0.00000000000E+00 -0.00000000000E+00 -0.10000000000E+04  0.10000000000E+04  0.00000000000E+00 0.  1.
    9000005    2    1    2  501    0  0.32373132122E+00  0.12887042143E+00 -0.89286235257E+03  0.11070807747E+04  0.65454147292E+03 0.  0.
         13    1    3    3    0    0 -0.30500055568E+03 -0.59264758262E+01 -0.64596571057E+03  0.71437536444E+03  0.00000000000E+00 0.  1.
          1    1    3    3  501    0  0.30532428701E+03  0.60553462476E+01 -0.24689664199E+03  0.39270541030E+03  0.00000000000E+00 0.  1.
         21    1    1    2  502  501 -0.32373132122E+00 -0.12887042143E+00  0.10389437434E+01  0.10958164334E+01  0.00000000000E+00 0.  1.
<mgrwt>
<rscale>  1 0.65454157E+03</rscale>
<asrwt>0</asrwt>
<pdfrwt beam="1">  1        1 0.39337025E+00 0.65454157E+03</pdfrwt>
<pdfrwt beam="2">0</pdfrwt>
<totfact> 0.14306837E+00</totfact>
</mgrwt>
</event>
<event>
 6    1  0.2450233E-003  0.6470416E+03  0.7818608E-02  0.9812346E-01
          1   -1    0    0  502    0  0.00000000000E+00  0.00000000000E+00  0.10466720152E+03  0.10466720152E+03  0.00000000000E+00 0.  1.
         13   -1    0    0    0    0 -0.00000000000E+00 -0.00000000000E+00 -0.10000000000E+04  0.10000000000E+04  0.00000000000E+00 0.  1.
    9000005    2    1    2  501    0  0.20986295275E-02 -0.19649075738E-02 -0.89533253754E+03  0.11046643148E+04  0.64704164903E+03 0.  0.
         13    1    3    3    0    0 -0.10067758184E+03 -0.28977199305E+03 -0.62312670431E+03  0.69454349977E+03  0.00000000000E+00 0.  1.
          1    1    3    3  501    0  0.10067968047E+03  0.28977002814E+03 -0.27220583323E+03  0.41012081502E+03  0.00000000000E+00 0.  1.
         21    1    1    2  502  501 -0.20986295274E-02  0.19649075738E-02 -0.26093860595E-03  0.28867276670E-02  0.00000000000E+00 0. -1.
<mgrwt>
<rscale>  1 0.64704165E+03</rscale>
<asrwt>0</asrwt>
<pdfrwt beam="1">  1        1 0.38060881E+00 0.64704165E+03</pdfrwt>
<pdfrwt beam="2">0</pdfrwt>
<totfact> 0.16317394E+00</totfact>
</mgrwt>
</event>
<event>
 6    1  0.2450233E-003  0.6446254E+03  0.7818608E-02  0.9816917E-01
          1   -1    0    0  502    0  0.00000000000E+00  0.00000000000E+00  0.10392136309E+03  0.10392136309E+03  0.00000000000E+00 0.  1.
         13   -1    0    0    0    0 -0.00000000000E+00 -0.00000000000E+00 -0.10000000000E+04  0.10000000000E+04  0.00000000000E+00 0.  1.
    9000005    2    1    2  501    0  0.25678655634E-01 -0.59782490684E-01 -0.89607858634E+03  0.11038562990E+04  0.64462538858E+03 0.  0.
         13    1    3    3    0    0 -0.82524528368E+02  0.25096102356E+03 -0.76410882507E+03  0.80848873194E+03  0.00000000000E+00 0.  1.
          1    1    3    3  501    0  0.82550207024E+02 -0.25102080605E+03 -0.13196976128E+03  0.29536756701E+03  0.00000000000E+00 0.  1.
         21    1    1    2  502  501 -0.25678655634E-01  0.59782490684E-01 -0.50563736060E-04  0.65064138389E-01  0.00000000000E+00 0.  1.
<mgrwt>
<rscale>  1 0.64462539E+03</rscale>
<asrwt>0</asrwt>
<pdfrwt beam="1">  1        1 0.37789666E+00 0.64462539E+03</pdfrwt>
<pdfrwt beam="2">0</pdfrwt>
<totfact> 0.16780537E+00</totfact>
</mgrwt>
</event>
<event>
 6    1  0.2450233E-003  0.5239847E+03  0.7818608E-02  0.1007701E+00
          1   -1    0    0  502    0  0.00000000000E+00  0.00000000000E+00  0.68640198440E+02  0.68640198440E+02  0.00000000000E+00 0.  1.
         13   -1    0    0    0    0 -0.00000000000E+00 -0.00000000000E+00 -0.10000000000E+04  0.10000000000E+04  0.00000000000E+00 0.  1.
    9000005    2    1    2  501    0  0.56985810470E-04  0.23695281783E-04 -0.93136000179E+03  0.10686399889E+04  0.52398470682E+03 0.  0.
         13    1    3    3    0    0  0.17516528887E+02 -0.21252930778E+03 -0.15527846548E+03  0.26379336097E+03  0.00000000000E+00 0.  1.
          1    1    3    3  501    0 -0.17516471901E+02  0.21252933147E+03 -0.77608153630E+03  0.80484662795E+03  0.00000000000E+00 0.  1.
         21    1    1    2  502  501 -0.56985810468E-04 -0.23695281760E-04  0.20022781887E-03  0.20952333623E-03  0.00000000000E+00 0. -1.
<mgrwt>
<rscale>  1 0.52398471E+03</rscale>
<asrwt>0</asrwt>
<pdfrwt beam="1">  1        1 0.24960125E+00 0.52398471E+03</pdfrwt>
<pdfrwt beam="2">0</pdfrwt>
<totfact> 0.61756871E+00</totfact>
</mgrwt>
</event>
<event>
 6    1  0.2450233E-003  0.6389955E+03  0.7818608E-02  0.9827650E-01
          3   -1    0    0  502    0  0.00000000000E+00  0.00000000000E+00  0.10207914442E+03  0.10207914442E+03  0.00000000000E+00 0.  1.
         13   -1    0    0    0    0 -0.00000000000E+00 -0.00000000000E+00 -0.10000000000E+04  0.10000000000E+04  0.00000000000E+00 0.  1.
    9000005    2    1    2  501    0  0.32235521701E-04 -0.27638956425E-04 -0.89792120041E+03  0.11020787970E+04  0.63899545587E+03 0.  0.
         13    1    3    3    0    0 -0.28429277877E+03 -0.14502655645E+03 -0.47475671730E+03  0.57205683875E+03  0.00000000000E+00 0.  1.
          3    1    3    3  501    0  0.28429281101E+03  0.14502652881E+03 -0.42316448311E+03  0.53002195824E+03  0.00000000000E+00 0.  1.
         21    1    1    2  502  501 -0.32235521687E-04  0.27638956425E-04  0.34482617789E-03  0.34743076106E-03  0.00000000000E+00 0.  1.
<mgrwt>
<rscale>  1 0.63899546E+03</rscale>
<asrwt>0</asrwt>
<pdfrwt beam="1">  1        3 0.37119767E+00 0.63899546E+03</pdfrwt>
<pdfrwt beam="2">0</pdfrwt>
<totfact> 0.84172366E-02</totfact>
</mgrwt>
</event>
<event>
 6    1  0.2450233E-003  0.6639338E+03  0.7818608E-02  0.9780979E-01
          1   -1    0    0  502    0  0.00000000000E+00  0.00000000000E+00  0.11045505687E+03  0.11045505687E+03  0.00000000000E+00 0.  1.
         13   -1    0    0    0    0 -0.00000000000E+00 -0.00000000000E+00 -0.10000000000E+04  0.10000000000E+04  0.00000000000E+00 0.  1.
    9000005    2    1    2  501    0  0.34211542623E-01 -0.30902797239E+00 -0.88968709730E+03  0.11101131848E+04  0.66393377324E+03 0.  0.
         13    1    3    3    0    0 -0.17581365003E+02 -0.82685652424E+02  0.91929785027E+02  0.12488837771E+03  0.00000000000E+00 0.  1.
          1    1    3    3  501    0  0.17615576546E+02  0.82376624452E+02 -0.98161688233E+03  0.98522480707E+03  0.00000000000E+00 0.  1.
         21    1    1    2  502  501 -0.34211542623E-01  0.30902797239E+00  0.14215417148E+00  0.34187208988E+00  0.00000000000E+00 0.  1.
<mgrwt>
<rscale>  1 0.66393385E+03</rscale>
<asrwt>0</asrwt>
<pdfrwt beam="1">  1        1 0.40165560E+00 0.66393385E+03</pdfrwt>
<pdfrwt beam="2">0</pdfrwt>
<totfact> 0.13118598E+00</totfact>
</mgrwt>
</event>
<event>
 6    1  0.2450233E-003  0.6628771E+03  0.7818608E-02  0.9782912E-01
          1   -1    0    0  502    0  0.00000000000E+00  0.00000000000E+00  0.10988222748E+03  0.10988222748E+03  0.00000000000E+00 0.  1.
         13   -1    0    0    0    0 -0.00000000000E+00 -0.00000000000E+00 -0.10000000000E+04  0.10000000000E+04  0.00000000000E+00 0.  1.
    9000005    2    1    2  501    0 -0.62423577408E-03  0.24723824164E-02 -0.89014843299E+03  0.11098514612E+04  0.66287708744E+03 0.  0.
         13    1    3    3    0    0  0.48198753109E+02  0.12177118426E+03 -0.95484296968E+03  0.96378236022E+03  0.00000000000E+00 0.  1.
          1    1    3    3  501    0 -0.48199377345E+02 -0.12176871188E+03  0.64694536687E+02  0.14606910093E+03  0.00000000000E+00 0.  1.
         21    1    1    2  502  501  0.62423577409E-03 -0.24723824164E-02  0.30660478865E-01  0.30766334025E-01  0.00000000000E+00 0. -1.
<mgrwt>
<rscale>  1 0.66287709E+03</rscale>
<asrwt>0</asrwt>
<pdfrwt beam="1">  1        1 0.39957258E+00 0.66287709E+03</pdfrwt>
<pdfrwt beam="2">0</pdfrwt>
<totfact> 0.13404958E+00</totfact>
</mgrwt>
</event>
<event>
 6    1  0.2450233E-003  0.5515991E+03  0.7818608E-02  0.1001124E+00
          1   -1    0    0  502    0  0.00000000000E+00  0.00000000000E+00  0.77732178564E+02  0.77732178564E+02  0.00000000000E+00 0.  1.
         13   -1    0    0    0    0 -0.00000000000E+00 -0.00000000000E+00 -0.10000000000E+04  0.10000000000E+04  0.00000000000E+00 0.  1.
    9000005    2    1    2  501    0 -0.34060401511E+00 -0.21976011020E+01 -0.92310734776E+03  0.10753551497E+04  0.55159457672E+03 0.  0.
         13    1    3    3    0    0  0.17559645222E+03  0.20554814988E+03 -0.55684648793E+03  0.61900094271E+03  0.00000000000E+00 0.  1.
          1    1    3    3  501    0 -0.17593705623E+03 -0.20774575099E+03 -0.36626085983E+03  0.45635420700E+03  0.00000000000E+00 0.  1.
         21    1    1    2  502  501  0.34060401511E+00  0.21976011020E+01  0.83952632712E+00  0.23770288498E+01  0.00000000000E+00 0. -1.
<mgrwt>
<rscale>  1 0.55159906E+03</rscale>
<asrwt>0</asrwt>
<pdfrwt beam="1">  1        1 0.28266306E+00 0.55159906E+03</pdfrwt>
<pdfrwt beam="2">0</pdfrwt>
<totfact> 0.44206983E+00</totfact>
</mgrwt>
</event>
<event>
 6    1  0.2450233E-003  0.6468909E+03  0.7818608E-02  0.9812631E-01
          1   -1    0    0  502    0  0.00000000000E+00  0.00000000000E+00  0.10461701284E+03  0.10461701284E+03  0.00000000000E+00 0.  1.
         13   -1    0    0    0    0 -0.00000000000E+00 -0.00000000000E+00 -0.10000000000E+04  0.10000000000E+04  0.00000000000E+00 0.  1.
    9000005    2    1    2  501    0 -0.73853865786E-04  0.51835186554E-04 -0.89538301588E+03  0.11046169181E+04  0.64689086462E+03 0.  0.
         13    1    3    3    0    0 -0.28766970428E+03 -0.94173182110E+02 -0.64234438282E+03  0.71009066543E+03  0.00000000000E+00 0.  1.
          1    1    3    3  501    0  0.28766963043E+03  0.94173233945E+02 -0.25303863306E+03  0.39452625272E+03  0.00000000000E+00 0.  1.
         21    1    1    2  502  501  0.73853865797E-04 -0.51835186551E-04  0.28718602944E-04  0.94689166292E-04  0.00000000000E+00 0. -1.
<mgrwt>
<rscale>  1 0.64689086E+03</rscale>
<asrwt>0</asrwt>
<pdfrwt beam="1">  1        1 0.38042630E+00 0.64689086E+03</pdfrwt>
<pdfrwt beam="2">0</pdfrwt>
<totfact> 0.16348138E+00</totfact>
</mgrwt>
</event>
<event>
 6    1  0.2450233E-003  0.6490792E+03  0.7818608E-02  0.9808509E-01
          1   -1    0    0  502    0  0.00000000000E+00  0.00000000000E+00  0.11249837827E+03  0.11249837827E+03  0.00000000000E+00 0.  1.
         13   -1    0    0    0    0 -0.00000000000E+00 -0.00000000000E+00 -0.10000000000E+04  0.10000000000E+04  0.00000000000E+00 0.  1.
    9000005    2    1    2  501    0  0.22433268926E+00  0.51175839691E+00 -0.89466202416E+03  0.11053162070E+04  0.64907893794E+03 0.  0.
         13    1    3    3    0    0  0.25199793975E+03 -0.20327634512E+03 -0.48351647668E+03  0.58190413072E+03  0.00000000000E+00 0.  1.
          3    1    3    3  501    0 -0.25177360706E+03  0.20378810352E+03 -0.41114554747E+03  0.52341207624E+03  0.00000000000E+00 0.  1.
         21    1    1    2  502  501 -0.22433268926E+00 -0.51175839691E+00  0.71604024279E+01  0.71821713111E+01  0.00000000000E+00 0. -1.
<mgrwt>
<rscale>  1 0.64907918E+03</rscale>
<asrwt>0</asrwt>
<pdfrwt beam="1">  1        1 0.40908587E+00 0.64907918E+03</pdfrwt>
<pdfrwt beam="2">0</pdfrwt>
<totfact> 0.12186852E+00</totfact>
</mgrwt>
</event>
<event>
 6    1  0.2450233E-003  0.6708485E+03  0.7818608E-02  0.9768426E-01
          1   -1    0    0  502    0  0.00000000000E+00  0.00000000000E+00  0.11256224705E+03  0.11256224705E+03  0.00000000000E+00 0.  1.
         13   -1    0    0    0    0 -0.00000000000E+00 -0.00000000000E+00 -0.10000000000E+04  0.10000000000E+04  0.00000000000E+00 0.  1.
    9000005    2    1    2  501    0 -0.43747457407E-01 -0.25872756151E-01 -0.88747658810E+03  0.11124982829E+04  0.67084851681E+03 0.  0.
         13    1    3    3    0    0 -0.23870665536E+03  0.23229393922E+03 -0.37798526351E+03  0.50379976275E+03  0.00000000000E+00 0.  1.
          1    1    3    3  501    0  0.23866290790E+03 -0.23231981198E+03 -0.50949132459E+03  0.60869852018E+03  0.00000000000E+00 0.  1.
         21    1    1    2  502  501  0.43747457407E-01  0.25872756151E-01  0.38835147831E-01  0.63964116874E-01  0.00000000000E+00 0.  1.
<mgrwt>
<rscale>  1 0.67084852E+03</rscale>
<asrwt>0</asrwt>
<pdfrwt beam="1">  1        1 0.40931813E+00 0.67084852E+03</pdfrwt>
<pdfrwt beam="2">0</pdfrwt>
<totfact> 0.12107188E+00</totfact>
</mgrwt>
</event>
<event>
 6    1  0.2450233E-003  0.5517793E+03  0.7818608E-02  0.1001083E+00
          1   -1    0    0  502    0  0.00000000000E+00  0.00000000000E+00  0.76115305394E+02  0.76115305394E+02  0.00000000000E+00 0.  1.
         13   -1    0    0    0    0 -0.00000000000E+00 -0.00000000000E+00 -0.10000000000E+04  0.10000000000E+04  0.00000000000E+00 0.  1.
    9000005    2    1    2  501    0  0.69878866746E-04 -0.26388354115E-04 -0.92388489189E+03  0.10761150944E+04  0.55177930646E+03 0.  0.
         13    1    3    3    0    0 -0.60045201374E+02  0.15778535056E+03 -0.36385030535E+02  0.17270064709E+03  0.00000000000E+00 0.  1.
          1    1    3    3  501    0  0.60045271253E+02 -0.15778537695E+03 -0.88749986135E+03  0.90341444735E+03  0.00000000000E+00 0.  1.
         21    1    1    2  502  501 -0.69878866747E-04  0.26388354114E-04  0.19728176547E-03  0.21094903706E-03  0.00000000000E+00 0.  1.
<mgrwt>
<rscale>  1 0.55177931E+03</rscale>
<asrwt>0</asrwt>
<pdfrwt beam="1">  1        1 0.27678351E+00 0.55177931E+03</pdfrwt>
<pdfrwt beam="2">0</pdfrwt>
<totfact> 0.46866189E+00</totfact>
</mgrwt>
</event>
<event>
 6    1  0.2450233E-003  0.6504204E+03  0.7818608E-02  0.9805991E-01
          1   -1    0    0  502    0  0.00000000000E+00  0.00000000000E+00  0.10576168123E+03  0.10576168123E+03  0.00000000000E+00 0.  1.
         13   -1    0    0    0    0 -0.00000000000E+00 -0.00000000000E+00 -0.10000000000E+04  0.10000000000E+04  0.00000000000E+00 0.  1.
    9000005    2    1    2  501    0  0.24634171609E-04  0.43548876745E-04 -0.89423829861E+03  0.11057616273E+04  0.65042035769E+03 0.  0.
         13    1    3    3    0    0  0.25915195667E+03 -0.11207712341E+02 -0.11364350610E+03  0.28319639112E+03  0.00000000000E+00 0.  1.
          1    1    3    3  501    0 -0.25915193204E+03  0.11207755890E+02 -0.78059479251E+03  0.82256523618E+03  0.00000000000E+00 0.  1.
         21    1    1    2  502  501 -0.24634171590E-04 -0.43548876746E-04 -0.20159128103E-04  0.53941982923E-04  0.00000000000E+00 0.  1.
<mgrwt>
<rscale>  1 0.65042036E+03</rscale>
<asrwt>0</asrwt>
<pdfrwt beam="1">  1        1 0.38458874E+00 0.65042036E+03</pdfrwt>
<pdfrwt beam="2">0</pdfrwt>
<totfact> 0.15660205E+00</totfact>
</mgrwt>
</event>
<event>
 6    1  0.2450233E-003  0.6867852E+03  0.7818608E-02  0.9740102E-01
          1   -1    0    0  502    0  0.00000000000E+00  0.00000000000E+00  0.11791912099E+03  0.11791912099E+03  0.00000000000E+00 0.  1.
         13   -1    0    0    0    0 -0.00000000000E+00 -0.00000000000E+00 -0.10000000000E+04  0.10000000000E+04  0.00000000000E+00 0.  1.
    9000005    2    1    2  501    0 -0.12019265245E-03 -0.84991347748E-03 -0.88208120239E+03  0.11179182037E+04  0.68678516482E+03 0.  0.
         13    1    3    3    0    0 -0.22158514734E+03  0.23582501355E+03 -0.62808967125E+03  0.70654798115E+03  0.00000000000E+00 0.  1.
          1    1    3    3  501    0  0.22158502715E+03 -0.23582586346E+03 -0.25399153114E+03  0.41137022258E+03  0.00000000000E+00 0.  1.
         21    1    1    2  502  501  0.12019265245E-03  0.84991347748E-03  0.32337614753E-03  0.91726295340E-03  0.00000000000E+00 0. -1.
<mgrwt>
<rscale>  1 0.68678516E+03</rscale>
<asrwt>0</asrwt>
<pdfrwt beam="1">  1        1 0.42879771E+00 0.68678516E+03</pdfrwt>
<pdfrwt beam="2">0</pdfrwt>
<totfact> 0.98590135E-01</totfact>
</mgrwt>
</event>
<event>
 6    1  0.2450233E-003  0.5731813E+03  0.7818608E-02  0.9962663E-01
          1   -1    0    0  502    0  0.00000000000E+00  0.00000000000E+00  0.82266105813E+02  0.82266105813E+02  0.00000000000E+00 0.  1.
         13   -1    0    0    0    0 -0.00000000000E+00 -0.00000000000E+00 -0.10000000000E+04  0.10000000000E+04  0.00000000000E+00 0.  1.
    9000005    2    1    2  501    0  0.40106506622E+00  0.17801265037E+00 -0.91725866099E+03  0.10816192764E+04  0.57318113663E+03 0.  0.
         13    1    3    3    0    0 -0.20585452416E+03 -0.19589347208E+03 -0.52545397978E+03  0.59737109269E+03  0.00000000000E+00 0.  1.
          1    1    3    3  501    0  0.20625558923E+03  0.19607148473E+03 -0.39180468121E+03  0.48424818371E+03  0.00000000000E+00 0.  1.
         21    1    1    2  502  501 -0.40106506622E+00 -0.17801265037E+00 -0.47523319976E+00  0.64682940965E+00  0.00000000000E+00 0.  1.
<mgrwt>
<rscale>  1 0.57318130E+03</rscale>
<asrwt>0</asrwt>
<pdfrwt beam="1">  1        1 0.29915011E+00 0.57318130E+03</pdfrwt>
<pdfrwt beam="2">0</pdfrwt>
<totfact> 0.37388305E+00</totfact>
</mgrwt>
</event>
<event>
 6    1  0.2450233E-003  0.5622566E+03  0.7818608E-02  0.9986962E-01
          1   -1    0    0  502    0  0.00000000000E+00  0.00000000000E+00  0.79034396414E+02  0.79034396414E+02  0.00000000000E+00 0.  1.
         13   -1    0    0    0    0 -0.00000000000E+00 -0.00000000000E+00 -0.10000000000E+04  0.10000000000E+04  0.00000000000E+00 0.  1.
    9000005    2    1    2  501    0 -0.52178450028E-03 -0.70832418835E-03 -0.92096672765E+03  0.10790329690E+04  0.56225655599E+03 0.  0.
         13    1    3    3    0    0 -0.12500586251E+03 -0.40243564235E+02 -0.93751772775E+03  0.94667074529E+03  0.00000000000E+00 0.  1.
          3    1    3    3  501    0  0.12500534073E+03  0.40242855911E+02  0.16551000103E+02  0.13236222372E+03  0.00000000000E+00 0.  1.
         21    1    1    2  502  501  0.52178450027E-03  0.70832418835E-03  0.11240655963E-02  0.14274122338E-02  0.00000000000E+00 0. -1.
<mgrwt>
<rscale>  1 0.56225656E+03</rscale>
<asrwt>0</asrwt>
<pdfrwt beam="1">  1        1 0.28739841E+00 0.56225656E+03</pdfrwt>
<pdfrwt beam="2">0</pdfrwt>
<totfact> 0.42097527E+00</totfact>
</mgrwt>
</event>
<event>
 6    1  0.2450233E-003  0.6445476E+03  0.7818608E-02  0.9817064E-01
          1   -1    0    0  502    0  0.00000000000E+00  0.00000000000E+00  0.10405561573E+03  0.10405561573E+03  0.00000000000E+00 0.  1.
         13   -1    0    0    0    0 -0.00000000000E+00 -0.00000000000E+00 -0.10000000000E+04  0.10000000000E+04  0.00000000000E+00 0.  1.
    9000005    2    1    2  501    0 -0.11741735160E+00 -0.18200794724E+00 -0.89607099119E+03  0.11038047312E+04  0.64454760607E+03 0.  0.
         13    1    3    3    0    0 -0.10144871090E+03 -0.22810713651E+03 -0.79739319760E+03  0.83556006262E+03  0.00000000000E+00 0.  1.
          3    1    3    3  501    0  0.10133129355E+03  0.22792512856E+03 -0.98677793588E+02  0.26824466859E+03  0.00000000000E+00 0.  1.
         21    1    1    2  502  501  0.11741735160E+00  0.18200794724E+00  0.12660691642E+00  0.25088451248E+00  0.00000000000E+00 0.  1.
<mgrwt>
<rscale>  1 0.64454764E+03</rscale>
<asrwt>0</asrwt>
<pdfrwt beam="1">  1        1 0.37838486E+00 0.64454764E+03</pdfrwt>
<pdfrwt beam="2">0</pdfrwt>
<totfact> 0.16697828E+00</totfact>
</mgrwt>
</event>
<event>
 6    1  0.2450233E-003  0.6406260E+03  0.7818608E-02  0.9824530E-01
          3   -1    0    0  502    0  0.00000000000E+00  0.00000000000E+00  0.10260391325E+03  0.10260391325E+03  0.00000000000E+00 0.  1.
         13   -1    0    0    0    0 -0.00000000000E+00 -0.00000000000E+00 -0.10000000000E+04  0.10000000000E+04  0.00000000000E+00 0.  1.
    9000005    2    1    2  501    0 -0.41915958545E-03  0.11021557328E-02 -0.89739947559E+03  0.11026003251E+04  0.64062598930E+03 0.  0.
         13    1    3    3    0    0 -0.19379478378E+03 -0.24258853686E+03 -0.58416230798E+03  0.66155212833E+03  0.00000000000E+00 0.  1.
          1    1    3    3  501    0  0.19379436462E+03  0.24258963901E+03 -0.31323716761E+03  0.44104819678E+03  0.00000000000E+00 0.  1.
         21    1    1    2  502  501  0.41915958547E-03 -0.11021557328E-02  0.33888373325E-02  0.35881277128E-02  0.00000000000E+00 0. -1.
<mgrwt>
<rscale>  1 0.64062599E+03</rscale>
<asrwt>0</asrwt>
<pdfrwt beam="1">  1        3 0.37310593E+00 0.64062599E+03</pdfrwt>
<pdfrwt beam="2">0</pdfrwt>
<totfact> 0.82215064E-02</totfact>
</mgrwt>
</event>
<event>
 6    1  0.2450233E-003  0.6321490E+03  0.7818608E-02  0.9840864E-01
          1   -1    0    0  502    0  0.00000000000E+00  0.00000000000E+00  0.99915824637E+02  0.99915824637E+02  0.00000000000E+00 0.  1.
         13   -1    0    0    0    0 -0.00000000000E+00 -0.00000000000E+00 -0.10000000000E+04  0.10000000000E+04  0.00000000000E+00 0.  1.
    9000005    2    1    2  501    0 -0.72969783236E-03  0.87004597901E-02 -0.90009524658E+03  0.10999017249E+04  0.63214899468E+03 0.  0.
         13    1    3    3    0    0 -0.47098106962E+02  0.11888304467E+03 -0.95298843153E+03  0.96152917824E+03  0.00000000000E+00 0.  1.
          3    1    3    3  501    0  0.47097377264E+02 -0.11887434422E+03  0.52893184947E+02  0.13837254667E+03  0.00000000000E+00 0.  1.
         21    1    1    2  502  501  0.72969783236E-03 -0.87004597901E-02  0.11071215446E-01  0.14099725917E-01  0.00000000000E+00 0. -1.
<mgrwt>
<rscale>  1 0.63214899E+03</rscale>
<asrwt>0</asrwt>
<pdfrwt beam="1">  1        1 0.36333104E+00 0.63214899E+03</pdfrwt>
<pdfrwt beam="2">0</pdfrwt>
<totfact> 0.19488710E+00</totfact>
</mgrwt>
</event>
<event>
 6    1  0.2450233E-003  0.6730520E+03  0.7818608E-02  0.9764460E-01
          1   -1    0    0  502    0  0.00000000000E+00  0.00000000000E+00  0.11325204588E+03  0.11325204588E+03  0.00000000000E+00 0.  1.
         13   -1    0    0    0    0 -0.00000000000E+00 -0.00000000000E+00 -0.10000000000E+04  0.10000000000E+04  0.00000000000E+00 0.  1.
    9000005    2    1    2  501    0  0.17158865584E-02 -0.18088299236E-02 -0.88674949358E+03  0.11132491157E+04  0.67305195134E+03 0.  0.
         13    1    3    3    0    0 -0.89413323573E+02 -0.22215667294E+03 -0.52303804167E+02  0.24512041468E+03  0.00000000000E+00 0.  1.
          1    1    3    3  501    0  0.89415039460E+02  0.22215486411E+03 -0.83444568941E+03  0.86812870100E+03  0.00000000000E+00 0.  1.
         21    1    1    2  502  501 -0.17158865584E-02  0.18088299236E-02  0.15394544215E-02  0.29301966298E-02  0.00000000000E+00 0. -1.
<mgrwt>
<rscale>  1 0.67305195E+03</rscale>
<asrwt>0</asrwt>
<pdfrwt beam="1">  1        1 0.41182649E+00 0.67305195E+03</pdfrwt>
<pdfrwt beam="2">0</pdfrwt>
<totfact> 0.11792514E+00</totfact>
</mgrwt>
</event>
<event>
 6    1  0.2450233E-003  0.6390999E+03  0.7818608E-02  0.9827450E-01
          1   -1    0    0  502    0  0.00000000000E+00  0.00000000000E+00  0.10211230370E+03  0.10211230370E+03  0.00000000000E+00 0.  1.
         13   -1    0    0    0    0 -0.00000000000E+00 -0.00000000000E+00 -0.10000000000E+04  0.10000000000E+04  0.00000000000E+00 0.  1.
    9000005    2    1    2  501    0 -0.51370784462E-05  0.32770158344E-03 -0.89788746971E+03  0.11021119052E+04  0.63909994792E+03 0.  0.
         13    1    3    3    0    0  0.78900186922E+02 -0.85309888977E+02 -0.96227311509E+03  0.96926392932E+03  0.00000000000E+00 0.  1.
          1    1    3    3  501    0 -0.78900192059E+02  0.85310216679E+02  0.64385645383E+02  0.13284797593E+03  0.00000000000E+00 0.  1.
         21    1    1    2  502  501  0.51370784514E-05 -0.32770158345E-03 -0.22659629263E-03  0.39844773460E-03  0.00000000000E+00 0. -1.
<mgrwt>
<rscale>  1 0.63909995E+03</rscale>
<asrwt>0</asrwt>
<pdfrwt beam="1">  1        1 0.37131825E+00 0.63909995E+03</pdfrwt>
<pdfrwt beam="2">0</pdfrwt>
<totfact> 0.17955461E+00</totfact>
</mgrwt>
</event>
<event>
 6    1  0.2450233E-003  0.4954396E+03  0.7818608E-02  0.1014976E+00
          1   -1    0    0  502    0  0.00000000000E+00  0.00000000000E+00  0.68665559735E+02  0.68665559735E+02  0.00000000000E+00 0.  1.
         13   -1    0    0    0    0 -0.00000000000E+00 -0.00000000000E+00 -0.10000000000E+04  0.10000000000E+04  0.00000000000E+00 0.  1.
    9000005    2    1    2  501    0  0.93574396544E+00  0.67446639895E+00 -0.93858652346E+03  0.10613223157E+04  0.49543825584E+03 0.  0.
         13    1    3    3    0    0 -0.22508654679E+03  0.46262804516E+02 -0.66471615390E+03  0.70331484122E+03  0.00000000000E+00 0.  1.
          3    1    3    3  501    0  0.22602229075E+03 -0.45588338117E+02 -0.27387036956E+03  0.35800747452E+03  0.00000000000E+00 0.  1.
         21    1    1    2  502  501 -0.93574396544E+00 -0.67446639895E+00  0.72520831945E+01  0.73432439937E+01  0.00000000000E+00 0.  1.
<mgrwt>
<rscale>  1 0.49543960E+03</rscale>
<asrwt>0</asrwt>
<pdfrwt beam="1">  1        1 0.24969347E+00 0.49543960E+03</pdfrwt>
<pdfrwt beam="2">0</pdfrwt>
<totfact> 0.61998057E+00</totfact>
</mgrwt>
</event>
<event>
 6    1  0.2450233E-003  0.6389747E+03  0.7818608E-02  0.9827690E-01
          1   -1    0    0  502    0  0.00000000000E+00  0.00000000000E+00  0.10393986195E+03  0.10393986195E+03  0.00000000000E+00 0.  1.
         13   -1    0    0    0    0 -0.00000000000E+00 -0.00000000000E+00 -0.10000000000E+04  0.10000000000E+04  0.00000000000E+00 0.  1.
    9000005    2    1    2  501    0  0.21123999707E+00  0.42645139736E+00 -0.89789438113E+03  0.11020448868E+04  0.63897448024E+03 0.  0.
         13    1    3    3    0    0 -0.16985263130E+03 -0.71390436899E+02 -0.89874576248E+03  0.91743689506E+03  0.00000000000E+00 0.  1.
          1    1    3    3  501    0  0.17006387130E+03  0.71816888297E+02  0.85138135448E+00  0.18460799175E+03  0.00000000000E+00 0.  1.
         21    1    1    2  502  501 -0.21123999707E+00 -0.42645139736E+00  0.18342430797E+01  0.18949751466E+01  0.00000000000E+00 0. -1.
<mgrwt>
<rscale>  1 0.63897466E+03</rscale>
<asrwt>0</asrwt>
<pdfrwt beam="1">  1        1 0.37796393E+00 0.63897466E+03</pdfrwt>
<pdfrwt beam="2">0</pdfrwt>
<totfact> 0.16786544E+00</totfact>
</mgrwt>
</event>
<event>
 6    1  0.2450233E-003  0.6485337E+03  0.7818608E-02  0.9809534E-01
          1   -1    0    0  502    0  0.00000000000E+00  0.00000000000E+00  0.10515602896E+03  0.10515602896E+03  0.00000000000E+00 0.  1.
         13   -1    0    0    0    0 -0.00000000000E+00 -0.00000000000E+00 -0.10000000000E+04  0.10000000000E+04  0.00000000000E+00 0.  1.
    9000005    2    1    2  501    0  0.31270213537E-04 -0.11669537346E-03 -0.89485099404E+03  0.11051490049E+04  0.64853374742E+03 0.  0.
         13    1    3    3    0    0  0.17683553136E+02  0.12239797304E+03 -0.95823551271E+03  0.96618283449E+03  0.00000000000E+00 0.  1.
          1    1    3    3  501    0 -0.17683521866E+02 -0.12239808974E+03  0.63384518669E+02  0.13896617043E+03  0.00000000000E+00 0.  1.
         21    1    1    2  502  501 -0.31270213538E-04  0.11669537346E-03  0.70229953226E-02  0.70240343776E-02  0.00000000000E+00 0.  1.
<mgrwt>
<rscale>  1 0.64853375E+03</rscale>
<asrwt>0</asrwt>
<pdfrwt beam="1">  1        1 0.38238637E+00 0.64853375E+03</pdfrwt>
<pdfrwt beam="2">0</pdfrwt>
<totfact> 0.16020746E+00</totfact>
</mgrwt>
</event>
<event>
 6    1  0.2450233E-003  0.6451880E+03  0.7818608E-02  0.9815851E-01
          1   -1    0    0  502    0  0.00000000000E+00  0.00000000000E+00  0.10474862382E+03  0.10474862382E+03  0.00000000000E+00 0.  1.
         13   -1    0    0    0    0 -0.00000000000E+00 -0.00000000000E+00 -0.10000000000E+04  0.10000000000E+04  0.00000000000E+00 0.  1.
    9000005    2    1    2  501    0  0.21028363872E+00  0.56963025802E+00 -0.89578063024E+03  0.11039431378E+04  0.64518768225E+03 0.  0.
         13    1    3    3    0    0  0.26138982701E+03  0.18077580811E+03 -0.54532532597E+03  0.63117687347E+03  0.00000000000E+00 0.  1.
          1    1    3    3  501    0 -0.26117954338E+03 -0.18020617785E+03 -0.35045530427E+03  0.47276626435E+03  0.00000000000E+00 0.  1.
         21    1    1    2  502  501 -0.21028363872E+00 -0.56963025802E+00  0.52925406293E+00  0.80548600403E+00  0.00000000000E+00 0.  1.
<mgrwt>
<rscale>  1 0.64518797E+03</rscale>
<asrwt>0</asrwt>
<pdfrwt beam="1">  1        1 0.38090489E+00 0.64518797E+03</pdfrwt>
<pdfrwt beam="2">0</pdfrwt>
<totfact> 0.16273921E+00</totfact>
</mgrwt>
</event>
<event>
 6    1  0.2450233E-003  0.6658108E+03  0.7818608E-02  0.9777555E-01
          1   -1    0    0  502    0  0.00000000000E+00  0.00000000000E+00  0.11083639858E+03  0.11083639858E+03  0.00000000000E+00 0.  1.
         13   -1    0    0    0    0 -0.00000000000E+00 -0.00000000000E+00 -0.10000000000E+04  0.10000000000E+04  0.00000000000E+00 0.  1.
    9000005    2    1    2  501    0 -0.39000354062E-02 -0.95610986982E-02 -0.88917105495E+03  0.11108236636E+04  0.66581081887E+03 0.  0.
         13    1    3    3    0    0  0.46107504282E+02  0.18996721315E+03  0.49852462017E+01  0.19554614980E+03  0.00000000000E+00 0.  1.
          3    1    3    3  501    0 -0.46111404317E+02 -0.18997677425E+03 -0.89415630115E+03  0.91527751379E+03  0.00000000000E+00 0.  1.
         21    1    1    2  502  501  0.39000354062E-02  0.95610986982E-02  0.74535341692E-02  0.12734993369E-01  0.00000000000E+00 0. -1.
<mgrwt>
<rscale>  1 0.66581082E+03</rscale>
<asrwt>0</asrwt>
<pdfrwt beam="1">  1        1 0.40304230E+00 0.66581082E+03</pdfrwt>
<pdfrwt beam="2">0</pdfrwt>
<totfact> 0.12928332E+00</totfact>
</mgrwt>
</event>
<event>
 6    1  0.2450233E-003  0.6456487E+03  0.7818608E-02  0.9814978E-01
          1   -1    0    0  502    0  0.00000000000E+00  0.00000000000E+00  0.10421746009E+03  0.10421746009E+03  0.00000000000E+00 0.  1.
         13   -1    0    0    0    0 -0.00000000000E+00 -0.00000000000E+00 -0.10000000000E+04  0.10000000000E+04  0.00000000000E+00 0.  1.
    9000005    2    1    2  501    0 -0.22586930538E-03  0.12604332279E-03 -0.89578442472E+03  0.11042155576E+04  0.64564871417E+03 0.  0.
         13    1    3    3    0    0  0.13233609189E+03 -0.86877660647E+02 -0.92906000165E+03  0.94245055881E+03  0.00000000000E+00 0.  1.
          3    1    3    3  501    0 -0.13233631776E+03  0.86877786690E+02  0.33275576933E+02  0.16176499880E+03  0.00000000000E+00 0.  1.
         21    1    1    2  502  501  0.22586930540E-03 -0.12604332279E-03  0.18848088223E-02  0.19024742203E-02  0.00000000000E+00 0. -1.
<mgrwt>
<rscale>  1 0.64564871E+03</rscale>
<asrwt>0</asrwt>
<pdfrwt beam="1">  1        1 0.37897338E+00 0.64564871E+03</pdfrwt>
<pdfrwt beam="2">0</pdfrwt>
<totfact> 0.16594995E+00</totfact>
</mgrwt>
</event>
<event>
 6    1  0.2450233E-003  0.6588622E+03  0.7818608E-02  0.9790290E-01
          1   -1    0    0  502    0  0.00000000000E+00  0.00000000000E+00  0.10963616890E+03  0.10963616890E+03  0.00000000000E+00 0.  1.
         13   -1    0    0    0    0 -0.00000000000E+00 -0.00000000000E+00 -0.10000000000E+04  0.10000000000E+04  0.00000000000E+00 0.  1.
    9000005    2    1    2  501    0 -0.10587452645E+00  0.71719549631E+00 -0.89134252300E+03  0.11084182130E+04  0.65886183376E+03 0.  0.
         13    1    3    3    0    0  0.20467351812E+03 -0.73705627970E+01 -0.11615281368E+02  0.20513529432E+03  0.00000000000E+00 0.  1.
          1    1    3    3  501    0 -0.20477939264E+03  0.80877582933E+01 -0.87972724163E+03  0.90328291866E+03  0.00000000000E+00 0.  1.
         21    1    1    2  502  501  0.10587452645E+00 -0.71719549631E+00  0.97869189950E+00  0.12179559226E+01  0.00000000000E+00 0.  1.
<mgrwt>
<rscale>  1 0.65886223E+03</rscale>
<asrwt>0</asrwt>
<pdfrwt beam="1">  1        1 0.39867782E+00 0.65886223E+03</pdfrwt>
<pdfrwt beam="2">0</pdfrwt>
<totfact> 0.13538788E+00</totfact>
</mgrwt>
</event>
<event>
 6    1  0.2450233E-003  0.6502408E+03  0.7818608E-02  0.9806327E-01
          1   -1    0    0  502    0  0.00000000000E+00  0.00000000000E+00  0.10570329057E+03  0.10570329057E+03  0.00000000000E+00 0.  1.
         13   -1    0    0    0    0 -0.00000000000E+00 -0.00000000000E+00 -0.10000000000E+04  0.10000000000E+04  0.00000000000E+00 0.  1.
    9000005    2    1    2  501    0 -0.18067477754E-05 -0.57562432971E-05 -0.89429671543E+03  0.11057032821E+04  0.65024082671E+03 0.  0.
         13    1    3    3    0    0  0.12207199923E+03  0.27748765885E+03 -0.24737377916E+03  0.39127325544E+03  0.00000000000E+00 0.  1.
          3    1    3    3  501    0 -0.12207200104E+03 -0.27748766461E+03 -0.64692293628E+03  0.71443002661E+03  0.00000000000E+00 0.  1.
         21    1    1    2  502  501  0.18067477707E-05  0.57562432723E-05  0.60054989677E-05  0.85126195714E-05  0.00000000000E+00 0.  1.
<mgrwt>
<rscale>  1 0.65024083E+03</rscale>
<asrwt>0</asrwt>
<pdfrwt beam="1">  1        1 0.38437641E+00 0.65024083E+03</pdfrwt>
<pdfrwt beam="2">0</pdfrwt>
<totfact> 0.15694619E+00</totfact>
</mgrwt>
</event>
<event>
 6    1  0.2450233E-003  0.6430365E+03  0.7818608E-02  0.9819934E-01
          1   -1    0    0  502    0  0.00000000000E+00  0.00000000000E+00  0.12686653196E+03  0.12686653196E+03  0.00000000000E+00 0.  1.
         13   -1    0    0    0    0 -0.00000000000E+00 -0.00000000000E+00 -0.10000000000E+04  0.10000000000E+04  0.00000000000E+00 0.  1.
    9000005    2    1    2  501    0  0.44740231783E+02  0.14776455811E+02 -0.86687281818E+03  0.10793351978E+04  0.64130800277E+03 0.  0.
         13    1    3    3    0    0  0.38165518426E+02  0.11304173062E+03  0.69313221397E+02  0.13798319578E+03  0.00000000000E+00 0.  1.
          1    1    3    3  501    0  0.65747133569E+01 -0.98265274805E+02 -0.93618603957E+03  0.94135200206E+03  0.00000000000E+00 0.  1.
         21    1    1    2  502  501 -0.44740231783E+02 -0.14776455811E+02 -0.62606498657E+01  0.47531334118E+02  0.00000000000E+00 0. -1.
<mgrwt>
<rscale>  1 0.64303654E+03</rscale>
<asrwt>0</asrwt>
<pdfrwt beam="1">  1        1 0.46133382E+00 0.64303654E+03</pdfrwt>
<pdfrwt beam="2">0</pdfrwt>
<totfact> 0.70519149E-01</totfact>
</mgrwt>
</event>
<event>
 6    1  0.2450233E-003  0.6487016E+03  0.7818608E-02  0.9809219E-01
          1   -1    0    0  502    0  0.00000000000E+00  0.00000000000E+00  0.10533091706E+03  0.10533091706E+03  0.00000000000E+00 0.  1.
         13   -1    0    0    0    0 -0.00000000000E+00 -0.00000000000E+00 -0.10000000000E+04  0.10000000000E+04  0.00000000000E+00 0.  1.
    9000005    2    1    2  501    0  0.86835398787E-01  0.90655450065E-02 -0.89477983596E+03  0.11051898894E+04  0.64870157173E+03 0.  0.
         13    1    3    3    0    0 -0.10944773502E+03 -0.26499890365E+03 -0.18905212726E+03  0.34342966158E+03  0.00000000000E+00 0.  1.
          3    1    3    3  501    0  0.10953457041E+03  0.26500796919E+03 -0.70572770870E+03  0.76176022781E+03  0.00000000000E+00 0.  1.
         21    1    1    2  502  501 -0.86835398787E-01 -0.90655450066E-02  0.11075302380E+00  0.14102766704E+00  0.00000000000E+00 0.  1.
<mgrwt>
<rscale>  1 0.64870158E+03</rscale>
<asrwt>0</asrwt>
<pdfrwt beam="1">  1        1 0.38302232E+00 0.64870158E+03</pdfrwt>
<pdfrwt beam="2">0</pdfrwt>
<totfact> 0.15916939E+00</totfact>
</mgrwt>
</event>
<event>
 6    1  0.2450233E-003  0.6215055E+03  0.7818608E-02  0.9861767E-01
          1   -1    0    0  502    0  0.00000000000E+00  0.00000000000E+00  0.98108311450E+02  0.98108311450E+02  0.00000000000E+00 0.  1.
         13   -1    0    0    0    0 -0.00000000000E+00 -0.00000000000E+00 -0.10000000000E+04  0.10000000000E+04  0.00000000000E+00 0.  1.
    9000005    2    1    2  501    0 -0.46419859203E-01 -0.41675517159E-01 -0.90343203781E+03  0.10965666995E+04  0.62150549117E+03 0.  0.
         13    1    3    3    0    0  0.10810349127E+03 -0.49783962989E+02 -0.95817759959E+03  0.96554084334E+03  0.00000000000E+00 0.  1.
          3    1    3    3  501    0 -0.10814991113E+03  0.49742287472E+02  0.54745561777E+02  0.13102585613E+03  0.00000000000E+00 0.  1.
         21    1    1    2  502  501  0.46419859203E-01  0.41675517159E-01  0.15403492609E+01  0.15416119802E+01  0.00000000000E+00 0. -1.
<mgrwt>
<rscale>  1 0.62150549E+03</rscale>
<asrwt>0</asrwt>
<pdfrwt beam="1">  1        1 0.35675825E+00 0.62150549E+03</pdfrwt>
<pdfrwt beam="2">0</pdfrwt>
<totfact> 0.20862387E+00</totfact>
</mgrwt>
</event>
<event>
 6    1  0.2450233E-003  0.6494655E+03  0.7818608E-02  0.9807783E-01
          1   -1    0    0  502    0  0.00000000000E+00  0.00000000000E+00  0.10546690888E+03  0.10546690888E+03  0.00000000000E+00 0.  1.
         13   -1    0    0    0    0 -0.00000000000E+00 -0.00000000000E+00 -0.10000000000E+04  0.10000000000E+04  0.00000000000E+00 0.  1.
    9000005    2    1    2  501    0  0.11143422544E-01  0.20058663194E-02 -0.89454634457E+03  0.11054494775E+04  0.64946546066E+03 0.  0.
         13    1    3    3    0    0  0.31096348011E+02 -0.17580193139E+03  0.14423721737E+02  0.17911266200E+03  0.00000000000E+00 0.  1.
          1    1    3    3  501    0 -0.31085204589E+02  0.17580393726E+03 -0.90897006630E+03  0.92633681549E+03  0.00000000000E+00 0.  1.
         21    1    1    2  502  501 -0.11143422544E-01 -0.20058663194E-02  0.13253442866E-01  0.17431383005E-01  0.00000000000E+00 0. -1.
<mgrwt>
<rscale>  1 0.64946546E+03</rscale>
<asrwt>0</asrwt>
<pdfrwt beam="1">  1        1 0.38351684E+00 0.64946546E+03</pdfrwt>
<pdfrwt beam="2">0</pdfrwt>
<totfact> 0.15834814E+00</totfact>
</mgrwt>
</event>
<event>
 6    1  0.2450233E-003  0.6540712E+03  0.7818608E-02  0.9799170E-01
          1   -1    0    0  502    0  0.00000000000E+00  0.00000000000E+00  0.10695586584E+03  0.10695586584E+03  0.00000000000E+00 0.  1.
         13   -1    0    0    0    0 -0.00000000000E+00 -0.00000000000E+00 -0.10000000000E+04  0.10000000000E+04  0.00000000000E+00 0.  1.
    9000005    2    1    2  501    0  0.67848051805E-03  0.78485936240E-03 -0.89304763532E+03  0.11069522142E+04  0.65407119306E+03 0.  0.
         13    1    3    3    0    0 -0.17319113615E+03  0.27731543132E+03 -0.43416097089E+03  0.54350231530E+03  0.00000000000E+00 0.  1.
          3    1    3    3  501    0  0.17319181463E+03 -0.27731464646E+03 -0.45888666442E+03  0.56344989891E+03  0.00000000000E+00 0.  1.
         21    1    1    2  502  501 -0.67848051804E-03 -0.78485936238E-03  0.35011604507E-02  0.36516386094E-02  0.00000000000E+00 0.  1.
<mgrwt>
<rscale>  1 0.65407119E+03</rscale>
<asrwt>0</asrwt>
<pdfrwt beam="1">  1        1 0.38893124E+00 0.65407119E+03</pdfrwt>
<pdfrwt beam="2">0</pdfrwt>
<totfact> 0.14971965E+00</totfact>
</mgrwt>
</event>
<event>
 6    1  0.2450233E-003  0.6451019E+03  0.7818608E-02  0.9816014E-01
          1   -1    0    0  502    0  0.00000000000E+00  0.00000000000E+00  0.10404392325E+03  0.10404392325E+03  0.00000000000E+00 0.  1.
         13   -1    0    0    0    0 -0.00000000000E+00 -0.00000000000E+00 -0.10000000000E+04  0.10000000000E+04  0.00000000000E+00 0.  1.
    9000005    2    1    2  501    0 -0.15213881127E-03  0.25648238591E-05 -0.89596088294E+03  0.11040391146E+04  0.64510190119E+03 0.  0.
         13    1    3    3    0    0  0.10895003254E+03 -0.17959259238E+03 -0.29065612930E+02  0.21205758341E+03  0.00000000000E+00 0.  1.
          3    1    3    3  501    0 -0.10895018468E+03  0.17959259494E+03 -0.86689527001E+03  0.89198153124E+03  0.00000000000E+00 0.  1.
         21    1    1    2  502  501  0.15213881127E-03 -0.25648238481E-05  0.48061953677E-02  0.48086034053E-02  0.00000000000E+00 0.  1.
<mgrwt>
<rscale>  1 0.64510190E+03</rscale>
<asrwt>0</asrwt>
<pdfrwt beam="1">  1        1 0.37834234E+00 0.64510190E+03</pdfrwt>
<pdfrwt beam="2">0</pdfrwt>
<totfact> 0.16703337E+00</totfact>
</mgrwt>
</event>
<event>
 6    1  0.2450233E-003  0.5308058E+03  0.7818608E-02  0.1006037E+00
          1   -1    0    0  502    0  0.00000000000E+00  0.00000000000E+00  0.70447348787E+02  0.70447348787E+02  0.00000000000E+00 0.  1.
         13   -1    0    0    0    0 -0.00000000000E+00 -0.00000000000E+00 -0.10000000000E+04  0.10000000000E+04  0.00000000000E+00 0.  1.
    9000005    2    1    2  501    0 -0.20286234968E-02 -0.64659388809E-03 -0.92956116576E+03  0.10704385721E+04  0.53080577960E+03 0.  0.
         13    1    3    3    0    0 -0.70651524646E+02 -0.94801557375E+02  0.14396064813E+02  0.11910591882E+03  0.00000000000E+00 0.  1.
          3    1    3    3  501    0  0.70649496023E+02  0.94800910781E+02 -0.94395723057E+03  0.95133265324E+03  0.00000000000E+00 0.  1.
         21    1    1    2  502  501  0.20286234968E-02  0.64659388809E-03  0.85145482251E-02  0.87767265210E-02  0.00000000000E+00 0. -1.
<mgrwt>
<rscale>  1 0.53080578E+03</rscale>
<asrwt>0</asrwt>
<pdfrwt beam="1">  1        1 0.25617272E+00 0.53080578E+03</pdfrwt>
<pdfrwt beam="2">0</pdfrwt>
<totfact> 0.57759588E+00</totfact>
</mgrwt>
</event>
<event>
 6    1  0.2450233E-003  0.6315781E+03  0.7818608E-02  0.9841974E-01
          1   -1    0    0  502    0  0.00000000000E+00  0.00000000000E+00  0.99722743560E+02  0.99722743560E+02  0.00000000000E+00 0.  1.
         13   -1    0    0    0    0 -0.00000000000E+00 -0.00000000000E+00 -0.10000000000E+04  0.10000000000E+04  0.00000000000E+00 0.  1.
    9000005    2    1    2  501    0  0.34485189246E-04  0.20427027010E-04 -0.90027726387E+03  0.10997227028E+04  0.63157808005E+03 0.  0.
         13    1    3    3    0    0 -0.18437098278E+03  0.18997628165E+03 -0.15036845449E+03  0.30445741736E+03  0.00000000000E+00 0.  1.
          3    1    3    3  501    0  0.18437101726E+03 -0.18997626122E+03 -0.74990880938E+03  0.79526528544E+03  0.00000000000E+00 0.  1.
         21    1    1    2  502  501 -0.34485189230E-04 -0.20427027018E-04  0.74292501426E-05  0.40763776404E-04  0.00000000000E+00 0. -1.
<mgrwt>
<rscale>  1 0.63157808E+03</rscale>
<asrwt>0</asrwt>
<pdfrwt beam="1">  1        1 0.36262892E+00 0.63157808E+03</pdfrwt>
<pdfrwt beam="2">0</pdfrwt>
<totfact> 0.19629187E+00</totfact>
</mgrwt>
</event>
<event>
 6    1  0.2450233E-003  0.6560070E+03  0.7818608E-02  0.9795572E-01
          1   -1    0    0  502    0  0.00000000000E+00  0.00000000000E+00  0.10758637319E+03  0.10758637319E+03  0.00000000000E+00 0.  1.
         13   -1    0    0    0    0 -0.00000000000E+00 -0.00000000000E+00 -0.10000000000E+04  0.10000000000E+04  0.00000000000E+00 0.  1.
    9000005    2    1    2  501    0  0.13201484592E-04  0.50112701508E-05 -0.89241368775E+03  0.11075863106E+04  0.65600704677E+03 0.  0.
         13    1    3    3    0    0  0.29223576945E+03  0.72550645682E+01 -0.69738321135E+03  0.75617307833E+03  0.00000000000E+00 0.  1.
          3    1    3    3  501    0 -0.29223575624E+03 -0.72550595569E+01 -0.19503047640E+03  0.35141323231E+03  0.00000000000E+00 0.  1.
         21    1    1    2  502  501 -0.13201484555E-04 -0.50112701509E-05  0.60944440758E-04  0.62558907298E-04  0.00000000000E+00 0.  1.
<mgrwt>
<rscale>  1 0.65600705E+03</rscale>
<asrwt>0</asrwt>
<pdfrwt beam="1">  1        1 0.39122400E+00 0.65600705E+03</pdfrwt>
<pdfrwt beam="2">0</pdfrwt>
<totfact> 0.14620242E+00</totfact>
</mgrwt>
</event>
<event>
 6    1  0.2450233E-003  0.6597939E+03  0.7818608E-02  0.9788573E-01
          1   -1    0    0  502    0  0.00000000000E+00  0.00000000000E+00  0.10883460719E+03  0.10883460719E+03  0.00000000000E+00 0.  1.
         13   -1    0    0    0    0 -0.00000000000E+00 -0.00000000000E+00 -0.10000000000E+04  0.10000000000E+04  0.00000000000E+00 0.  1.
    9000005    2    1    2  501    0 -0.15111822275E-02 -0.96396659899E-03 -0.89116765965E+03  0.11088317173E+04  0.65979389182E+03 0.  0.
         13    1    3    3    0    0  0.95215940092E+02 -0.23749756922E+03 -0.95633566958E+02  0.27316103266E+03  0.00000000000E+00 0.  1.
          1    1    3    3  501    0 -0.95217451274E+02  0.23749660526E+03 -0.79553409269E+03  0.83567068464E+03  0.00000000000E+00 0.  1.
         21    1    1    2  502  501  0.15111822275E-02  0.96396659898E-03  0.22668342783E-02  0.28898859794E-02  0.00000000000E+00 0.  1.
<mgrwt>
<rscale>  1 0.65979389E+03</rscale>
<asrwt>0</asrwt>
<pdfrwt beam="1">  1        1 0.39576304E+00 0.65979389E+03</pdfrwt>
<pdfrwt beam="2">0</pdfrwt>
<totfact> 0.13947006E+00</totfact>
</mgrwt>
</event>
<event>
 6    1  0.2450233E-003  0.5971936E+03  0.7818608E-02  0.9911246E-01
          1   -1    0    0  502    0  0.00000000000E+00  0.00000000000E+00  0.89161453972E+02  0.89161453972E+02  0.00000000000E+00 0.  1.
         13   -1    0    0    0    0 -0.00000000000E+00 -0.00000000000E+00 -0.10000000000E+04  0.10000000000E+04  0.00000000000E+00 0.  1.
    9000005    2    1    2  501    0  0.80125522288E-04  0.30177615656E-04 -0.91083993749E+03  0.10891600599E+04  0.59719364056E+03 0.  0.
         13    1    3    3    0    0 -0.18163798132E+03 -0.14374445888E+03 -0.79907487949E+03  0.83197084609E+03  0.00000000000E+00 0.  1.
          3    1    3    3  501    0  0.18163806145E+03  0.14374448906E+03 -0.11176505800E+03  0.25718921379E+03  0.00000000000E+00 0.  1.
         21    1    1    2  502  501 -0.80125522278E-04 -0.30177615647E-04  0.13914584347E-02  0.13940901561E-02  0.00000000000E+00 0.  1.
<mgrwt>
<rscale>  1 0.59719364E+03</rscale>
<asrwt>0</asrwt>
<pdfrwt beam="1">  1        1 0.32422415E+00 0.59719364E+03</pdfrwt>
<pdfrwt beam="2">0</pdfrwt>
<totfact> 0.29013045E+00</totfact>
</mgrwt>
</event>
<event>
 6    1  0.2450233E-003  0.6650241E+03  0.7818608E-02  0.9778989E-01
          1   -1    0    0  502    0  0.00000000000E+00  0.00000000000E+00  0.11061044302E+03  0.11061044302E+03  0.00000000000E+00 0.  1.
         13   -1    0    0    0    0 -0.00000000000E+00 -0.00000000000E+00 -0.10000000000E+04  0.10000000000E+04  0.00000000000E+00 0.  1.
    9000005    2    1    2  501    0 -0.82921481092E-03 -0.77907482097E-03 -0.88943574132E+03  0.11105642447E+04  0.66502406242E+03 0.  0.
         13    1    3    3    0    0 -0.18422797327E+03 -0.26411901861E+03 -0.58309183892E+03  0.66610426717E+03  0.00000000000E+00 0.  1.
          1    1    3    3  501    0  0.18422714405E+03  0.26411823954E+03 -0.30634390240E+03  0.44445997750E+03  0.00000000000E+00 0.  1.
         21    1    1    2  502  501  0.82921481092E-03  0.77907482095E-03  0.46184337608E-01  0.46198350566E-01  0.00000000000E+00 0.  1.
<mgrwt>
<rscale>  1 0.66502406E+03</rscale>
<asrwt>0</asrwt>
<pdfrwt beam="1">  1        1 0.40222064E+00 0.66502406E+03</pdfrwt>
<pdfrwt beam="2">0</pdfrwt>
<totfact> 0.13039958E+00</totfact>
</mgrwt>
</event>
<event>
 6    1  0.2450233E-003  0.6613385E+03  0.7818608E-02  0.9785733E-01
          1   -1    0    0  502    0  0.00000000000E+00  0.00000000000E+00  0.10934230181E+03  0.10934230181E+03  0.00000000000E+00 0.  1.
         13   -1    0    0    0    0 -0.00000000000E+00 -0.00000000000E+00 -0.10000000000E+04  0.10000000000E+04  0.00000000000E+00 0.  1.
    9000005    2    1    2  501    0 -0.21308532297E-04 -0.47443178346E-05 -0.89065783926E+03  0.11093421591E+04  0.66133852090E+03 0.  0.
         13    1    3    3    0    0  0.71963524627E+02 -0.30513618333E+03 -0.62169999627E+03  0.69627417345E+03  0.00000000000E+00 0.  1.
          1    1    3    3  501    0 -0.71963545935E+02  0.30513617859E+03 -0.26895784299E+03  0.41306798560E+03  0.00000000000E+00 0.  1.
         21    1    1    2  502  501  0.21308532287E-04  0.47443178480E-05  0.14107403565E-03  0.14275309325E-03  0.00000000000E+00 0. -1.
<mgrwt>
<rscale>  1 0.66133852E+03</rscale>
<asrwt>0</asrwt>
<pdfrwt beam="1">  1        1 0.39760921E+00 0.66133852E+03</pdfrwt>
<pdfrwt beam="2">0</pdfrwt>
<totfact> 0.13681654E+00</totfact>
</mgrwt>
</event>
<event>
 6    1  0.2450233E-003  0.5701221E+03  0.7818608E-02  0.9969408E-01
          1   -1    0    0  502    0  0.00000000000E+00  0.00000000000E+00  0.81260102517E+02  0.81260102517E+02  0.00000000000E+00 0.  1.
         13   -1    0    0    0    0 -0.00000000000E+00 -0.00000000000E+00 -0.10000000000E+04  0.10000000000E+04  0.00000000000E+00 0.  1.
    9000005    2    1    2  501    0 -0.67147358209E-04 -0.54583937487E-03 -0.91873991194E+03  0.10812595524E+04  0.57012208675E+03 0.  0.
         13    1    3    3    0    0 -0.12435955113E+03  0.34195406387E+02  0.22758702936E+02  0.13096786756E+03  0.00000000000E+00 0.  1.
          3    1    3    3  501    0  0.12435948398E+03 -0.34195952226E+02 -0.94149861488E+03  0.95029168481E+03  0.00000000000E+00 0.  1.
         21    1    1    2  502  501  0.67147358206E-04  0.54583937487E-03  0.14461203947E-04  0.55014408776E-03  0.00000000000E+00 0.  1.
<mgrwt>
<rscale>  1 0.57012209E+03</rscale>
<asrwt>0</asrwt>
<pdfrwt beam="1">  1        1 0.29549190E+00 0.57012209E+03</pdfrwt>
<pdfrwt beam="2">0</pdfrwt>
<totfact> 0.38792589E+00</totfact>
</mgrwt>
</event>
<event>
 6    1  0.2450233E-003  0.6760480E+03  0.7818608E-02  0.9759093E-01
          3   -1    0    0  502    0  0.00000000000E+00  0.00000000000E+00  0.11430049031E+03  0.11430049031E+03  0.00000000000E+00 0.  1.
         13   -1    0    0    0    0 -0.00000000000E+00 -0.00000000000E+00 -0.10000000000E+04  0.10000000000E+04  0.00000000000E+00 0.  1.
    9000005    2    1    2  501    0  0.11783156491E-01 -0.93197541237E-02 -0.88573822292E+03  0.11142589642E+04  0.67604795659E+03 0.  0.
         13    1    3    3    0    0 -0.81516432437E+02 -0.22418139297E+02  0.96553045347E+02  0.12833546779E+03  0.00000000000E+00 0.  1.
          1    1    3    3  501    0  0.81528215593E+02  0.22408819543E+02 -0.98229126827E+03  0.98592349645E+03  0.00000000000E+00 0.  1.
         21    1    1    2  502  501 -0.11783156491E-01  0.93197541237E-02  0.38713232789E-01  0.41526075986E-01  0.00000000000E+00 0. -1.
<mgrwt>
<rscale>  1 0.67604796E+03</rscale>
<asrwt>0</asrwt>
<pdfrwt beam="1">  1        3 0.41563902E+00 0.67604796E+03</pdfrwt>
<pdfrwt beam="2">0</pdfrwt>
<totfact> 0.48870158E-02</totfact>
</mgrwt>
</event>
<event>
 6    1  0.2450233E-003  0.6460905E+03  0.7818608E-02  0.9814143E-01
          1   -1    0    0  502    0  0.00000000000E+00  0.00000000000E+00  0.11025528480E+03  0.11025528480E+03  0.00000000000E+00 0.  1.
         13   -1    0    0    0    0 -0.00000000000E+00 -0.00000000000E+00 -0.10000000000E+04  0.10000000000E+04  0.00000000000E+00 0.  1.
    9000005    2    1    2  501    0 -0.35267909899E+00 -0.24329023985E+00 -0.89563317023E+03  0.11043512628E+04  0.64609035943E+03 0.  0.
         13    1    3    3    0    0  0.28926895567E+03 -0.11518050306E+03 -0.30120609675E+03  0.43320686712E+03  0.00000000000E+00 0.  1.
          3    1    3    3  501    0 -0.28962163477E+03  0.11493721282E+03 -0.59442707348E+03  0.67114439572E+03  0.00000000000E+00 0.  1.
         21    1    1    2  502  501  0.35267909899E+00  0.24329023985E+00  0.58884550261E+01  0.59040219581E+01  0.00000000000E+00 0. -1.
<mgrwt>
<rscale>  1 0.64609050E+03</rscale>
<asrwt>0</asrwt>
<pdfrwt beam="1">  1        1 0.40092915E+00 0.64609050E+03</pdfrwt>
<pdfrwt beam="2">0</pdfrwt>
<totfact> 0.13261630E+00</totfact>
</mgrwt>
</event>
<event>
 6    1  0.2450233E-003  0.6417828E+03  0.7818608E-02  0.9822321E-01
          1   -1    0    0  502    0  0.00000000000E+00  0.00000000000E+00  0.10633193601E+03  0.10633193601E+03  0.00000000000E+00 0.  1.
         13   -1    0    0    0    0 -0.00000000000E+00 -0.00000000000E+00 -0.10000000000E+04  0.10000000000E+04  0.00000000000E+00 0.  1.
    9000005    2    1    2  501    0  0.74342690532E-02  0.60327576518E-01 -0.89702839674E+03  0.11029710536E+04  0.64178282676E+03 0.  0.
         13    1    3    3    0    0  0.11771741328E+03  0.29758088278E+03 -0.48988596087E+03  0.58514957562E+03  0.00000000000E+00 0.  1.
          3    1    3    3  501    0 -0.11770997901E+03 -0.29752055520E+03 -0.40714243587E+03  0.51782147794E+03  0.00000000000E+00 0.  1.
         21    1    1    2  502  501 -0.74342690532E-02 -0.60327576518E-01  0.33603327493E+01  0.33608824542E+01  0.00000000000E+00 0.  1.
<mgrwt>
<rscale>  1 0.64178283E+03</rscale>
<asrwt>0</asrwt>
<pdfrwt beam="1">  1        1 0.38666240E+00 0.64178283E+03</pdfrwt>
<pdfrwt beam="2">0</pdfrwt>
<totfact> 0.15357533E+00</totfact>
</mgrwt>
</event>
<event>
 6    1  0.2450233E-003  0.6544218E+03  0.7818608E-02  0.9798517E-01
          1   -1    0    0  502    0  0.00000000000E+00  0.00000000000E+00  0.10732306587E+03  0.10732306587E+03  0.00000000000E+00 0.  1.
         13   -1    0    0    0    0 -0.00000000000E+00 -0.00000000000E+00 -0.10000000000E+04  0.10000000000E+04  0.00000000000E+00 0.  1.
    9000005    2    1    2  501    0  0.54201343965E-01 -0.45692323329E-02 -0.89292983911E+03  0.11070643777E+04  0.65442175679E+03 0.  0.
         13    1    3    3    0    0  0.29747667392E+03  0.28978416008E+02 -0.67188298163E+03  0.73536308116E+03  0.00000000000E+00 0.  1.
          3    1    3    3  501    0 -0.29742247257E+03 -0.28982985240E+02 -0.22104685747E+03  0.37170129650E+03  0.00000000000E+00 0.  1.
         21    1    1    2  502  501 -0.54201343965E-01  0.45692323329E-02  0.25290497396E+00  0.25868820891E+00  0.00000000000E+00 0. -1.
<mgrwt>
<rscale>  1 0.65442176E+03</rscale>
<asrwt>0</asrwt>
<pdfrwt beam="1">  1        1 0.39026652E+00 0.65442176E+03</pdfrwt>
<pdfrwt beam="2">0</pdfrwt>
<totfact> 0.14768291E+00</totfact>
</mgrwt>
</event>
<event>
 6    1  0.2450233E-003  0.6621083E+03  0.7818608E-02  0.9784320E-01
          1   -1    0    0  502    0  0.00000000000E+00  0.00000000000E+00  0.11053537837E+03  0.11053537837E+03  0.00000000000E+00 0.  1.
         13   -1    0    0    0    0 -0.00000000000E+00 -0.00000000000E+00 -0.10000000000E+04  0.10000000000E+04  0.00000000000E+00 0.  1.
    9000005    2    1    2  501    0  0.32499728706E-01  0.29999543989E+00 -0.89037616484E+03  0.11095751885E+04  0.66210821853E+03 0.  0.
         13    1    3    3    0    0 -0.32126918654E+03 -0.73956905187E+02 -0.49485328311E+03  0.59461187833E+03  0.00000000000E+00 0.  1.
          1    1    3    3  501    0  0.32130168626E+03  0.74256900627E+02 -0.39552288173E+03  0.51496331020E+03  0.00000000000E+00 0.  1.
         21    1    1    2  502  501 -0.32499728706E-01 -0.29999543989E+00  0.91154320582E+00  0.96018983144E+00  0.00000000000E+00 0.  1.
<mgrwt>
<rscale>  1 0.66210829E+03</rscale>
<asrwt>0</asrwt>
<pdfrwt beam="1">  1        1 0.40194768E+00 0.66210829E+03</pdfrwt>
<pdfrwt beam="2">0</pdfrwt>
<totfact> 0.13083757E+00</totfact>
</mgrwt>
</event>
<event>
 6    1  0.2450233E-003  0.6597264E+03  0.7818608E-02  0.9788698E-01
          1   -1    0    0  502    0  0.00000000000E+00  0.00000000000E+00  0.10897829820E+03  0.10897829820E+03  0.00000000000E+00 0.  1.
         13   -1    0    0    0    0 -0.00000000000E+00 -0.00000000000E+00 -0.10000000000E+04  0.10000000000E+04  0.00000000000E+00 0.  1.
    9000005    2    1    2  501    0  0.12789290783E+00 -0.44913883354E-01 -0.89115950040E+03  0.11087850049E+04  0.65972639293E+03 0.  0.
         13    1    3    3    0    0 -0.15213380065E+03 -0.15430404410E+03 -0.86350754846E+03  0.89028069594E+03  0.00000000000E+00 0.  1.
          3    1    3    3  501    0  0.15226169356E+03  0.15425913021E+03 -0.27651951939E+02  0.21850430894E+03  0.00000000000E+00 0.  1.
         21    1    1    2  502  501 -0.12789290783E+00  0.44913883354E-01  0.13779860265E+00  0.19329332033E+00  0.00000000000E+00 0. -1.
<mgrwt>
<rscale>  1 0.65972641E+03</rscale>
<asrwt>0</asrwt>
<pdfrwt beam="1">  1        1 0.39628556E+00 0.65972641E+03</pdfrwt>
<pdfrwt beam="2">0</pdfrwt>
<totfact> 0.13872720E+00</totfact>
</mgrwt>
</event>
<event>
 6    1  0.2450233E-003  0.5805685E+03  0.7818608E-02  0.9946561E-01
          1   -1    0    0  502    0  0.00000000000E+00  0.00000000000E+00  0.84265274404E+02  0.84265274404E+02  0.00000000000E+00 0.  1.
         13   -1    0    0    0    0 -0.00000000000E+00 -0.00000000000E+00 -0.10000000000E+04  0.10000000000E+04  0.00000000000E+00 0.  1.
    9000005    2    1    2  501    0 -0.10308332753E-02 -0.96613855824E-04 -0.91573384822E+03  0.10842639173E+04  0.58056848138E+03 0.  0.
         13    1    3    3    0    0  0.21953461112E+03  0.61978407130E+02 -0.12259387878E+03  0.25897109403E+03  0.00000000000E+00 0.  1.
          1    1    3    3  501    0 -0.21953564195E+03 -0.61978503744E+02 -0.79313996944E+03  0.82529282327E+03  0.00000000000E+00 0.  1.
         21    1    1    2  502  501  0.10308332753E-02  0.96613855828E-04 -0.87737379741E-03  0.13571058393E-02  0.00000000000E+00 0.  1.
<mgrwt>
<rscale>  1 0.58056848E+03</rscale>
<asrwt>0</asrwt>
<pdfrwt beam="1">  1        1 0.30641983E+00 0.58056848E+03</pdfrwt>
<pdfrwt beam="2">0</pdfrwt>
<totfact> 0.34737986E+00</totfact>
</mgrwt>
</event>
<event>
 6    1  0.2450233E-003  0.6408877E+03  0.7818608E-02  0.9824030E-01
          1   -1    0    0  502    0  0.00000000000E+00  0.00000000000E+00  0.15844190831E+03  0.15844190831E+03  0.00000000000E+00 0.  1.
         13   -1    0    0    0    0 -0.00000000000E+00 -0.00000000000E+00 -0.10000000000E+04  0.10000000000E+04  0.00000000000E+00 0.  1.
    9000005    2    1    2  501    0  0.14374354746E+02 -0.83449662880E+01 -0.89594658197E+03  0.11015704004E+04  0.64067215388E+03 0.  0.
         13    1    3    3    0    0  0.94174433392E+02  0.30374147266E+03 -0.41837649619E+03  0.52551555513E+03  0.00000000000E+00 0.  1.
          1    1    3    3  501    0 -0.79800078645E+02 -0.31208643895E+03 -0.47757008579E+03  0.57605484527E+03  0.00000000000E+00 0.  1.
         21    1    1    2  502  501 -0.14374354746E+02  0.83449662880E+01  0.54388490286E+02  0.56871507913E+02  0.00000000000E+00 0.  1.
<mgrwt>
<rscale>  1 0.64088772E+03</rscale>
<asrwt>0</asrwt>
<pdfrwt beam="1">  1        1 0.57615361E+00 0.64088772E+03</pdfrwt>
<pdfrwt beam="2">0</pdfrwt>
<totfact> 0.19222655E-01</totfact>
</mgrwt>
</event>
<event>
 6    1  0.2450233E-003  0.6504554E+03  0.7818608E-02  0.9805925E-01
          1   -1    0    0  502    0  0.00000000000E+00  0.00000000000E+00  0.10578323990E+03  0.10578323990E+03  0.00000000000E+00 0.  1.
         13   -1    0    0    0    0 -0.00000000000E+00 -0.00000000000E+00 -0.10000000000E+04  0.10000000000E+04  0.00000000000E+00 0.  1.
    9000005    2    1    2  501    0 -0.57258769203E-03  0.88241341996E-03 -0.89422690154E+03  0.11057730441E+04  0.65045543546E+03 0.  0.
         13    1    3    3    0    0  0.17253930747E+03 -0.25210962823E+03 -0.63674960382E+03  0.70624297182E+03  0.00000000000E+00 0.  1.
          1    1    3    3  501    0 -0.17253988006E+03  0.25211051064E+03 -0.25747729771E+03  0.39953007224E+03  0.00000000000E+00 0.  1.
         21    1    1    2  502  501  0.57258769205E-03 -0.88241341995E-03  0.10141439128E-01  0.10195847081E-01  0.00000000000E+00 0.  1.
<mgrwt>
<rscale>  1 0.65045544E+03</rscale>
<asrwt>0</asrwt>
<pdfrwt beam="1">  1        1 0.38466714E+00 0.65045544E+03</pdfrwt>
<pdfrwt beam="2">0</pdfrwt>
<totfact> 0.15647607E+00</totfact>
</mgrwt>
</event>
<event>
 6    1  0.2450233E-003  0.6466175E+03  0.7818608E-02  0.9813147E-01
          1   -1    0    0  502    0  0.00000000000E+00  0.00000000000E+00  0.10454064448E+03  0.10454064448E+03  0.00000000000E+00 0.  1.
         13   -1    0    0    0    0 -0.00000000000E+00 -0.00000000000E+00 -0.10000000000E+04  0.10000000000E+04  0.00000000000E+00 0.  1.
    9000005    2    1    2  501    0 -0.15356863258E-01  0.39183927598E-02 -0.89546542068E+03  0.11045236747E+04  0.64661752845E+03 0.  0.
         13    1    3    3    0    0  0.22816145166E+03 -0.52881732423E+02 -0.82842029848E+03  0.86089158236E+03  0.00000000000E+00 0.  1.
          3    1    3    3  501    0 -0.22817680852E+03  0.52885650815E+02 -0.67045122205E+02  0.24363209235E+03  0.00000000000E+00 0.  1.
         21    1    1    2  502  501  0.15356863258E-01 -0.39183927598E-02  0.60651653082E-02  0.16969775519E-01  0.00000000000E+00 0.  1.
<mgrwt>
<rscale>  1 0.64661753E+03</rscale>
<asrwt>0</asrwt>
<pdfrwt beam="1">  1        1 0.38014860E+00 0.64661753E+03</pdfrwt>
<pdfrwt beam="2">0</pdfrwt>
<totfact> 0.16395157E+00</totfact>
</mgrwt>
</event>
<event>
 6    1  0.2450233E-003  0.6520262E+03  0.7818608E-02  0.9802984E-01
          1   -1    0    0  502    0  0.00000000000E+00  0.00000000000E+00  0.10941669063E+03  0.10941669063E+03  0.00000000000E+00 0.  1.
         13   -1    0    0    0    0 -0.00000000000E+00 -0.00000000000E+00 -0.10000000000E+04  0.10000000000E+04  0.00000000000E+00 0.  1.
    9000005    2    1    2  501    0 -0.44407471073E+00 -0.19670194425E+00 -0.89369460029E+03  0.11062677185E+04  0.65202606589E+03 0.  0.
         13    1    3    3    0    0  0.31379834851E+03 -0.57652828774E+02 -0.55865031518E+03  0.64333772378E+03  0.00000000000E+00 0.  1.
          1    1    3    3  501    0 -0.31424242322E+03  0.57456126829E+02 -0.33504428511E+03  0.46292999476E+03  0.00000000000E+00 0.  1.
         21    1    1    2  502  501  0.44407471073E+00  0.19670194425E+00  0.31112909251E+01  0.31489720901E+01  0.00000000000E+00 0. -1.
<mgrwt>
<rscale>  1 0.65202625E+03</rscale>
<asrwt>0</asrwt>
<pdfrwt beam="1">  1        1 0.39787971E+00 0.65202625E+03</pdfrwt>
<pdfrwt beam="2">0</pdfrwt>
<totfact> 0.13667641E+00</totfact>
</mgrwt>
</event>
<event>
 6    1  0.2450233E-003  0.6485657E+03  0.7818608E-02  0.9809474E-01
          1   -1    0    0  502    0  0.00000000000E+00  0.00000000000E+00  0.10521625093E+03  0.10521625093E+03  0.00000000000E+00 0.  1.
         13   -1    0    0    0    0 -0.00000000000E+00 -0.00000000000E+00 -0.10000000000E+04  0.10000000000E+04  0.00000000000E+00 0.  1.
    9000005    2    1    2  501    0 -0.52926178585E-02 -0.19821886934E-02 -0.89484049071E+03  0.11051592285E+04  0.64856566095E+03 0.  0.
         13    1    3    3    0    0 -0.18460690148E+03 -0.20315667803E+03 -0.74162148369E+03  0.79079375881E+03  0.00000000000E+00 0.  1.
          3    1    3    3  501    0  0.18460160886E+03  0.20315469585E+03 -0.15321900702E+03  0.31436546972E+03  0.00000000000E+00 0.  1.
         21    1    1    2  502  501  0.52926178585E-02  0.19821886934E-02  0.56741638867E-01  0.57022403116E-01  0.00000000000E+00 0. -1.
<mgrwt>
<rscale>  1 0.64856566E+03</rscale>
<asrwt>0</asrwt>
<pdfrwt beam="1">  1        1 0.38260536E+00 0.64856566E+03</pdfrwt>
<pdfrwt beam="2">0</pdfrwt>
<totfact> 0.15985004E+00</totfact>
</mgrwt>
</event>
<event>
 6    1  0.2450233E-003  0.6492820E+03  0.7818608E-02  0.9808127E-01
          1   -1    0    0  502    0  0.00000000000E+00  0.00000000000E+00  0.10540326501E+03  0.10540326501E+03  0.00000000000E+00 0.  1.
         13   -1    0    0    0    0 -0.00000000000E+00 -0.00000000000E+00 -0.10000000000E+04  0.10000000000E+04  0.00000000000E+00 0.  1.
    9000005    2    1    2  501    0  0.11487065865E-02  0.93672939886E-03 -0.89460817373E+03  0.11053917306E+04  0.64928198315E+03 0.  0.
         13    1    3    3    0    0  0.29318343071E+03 -0.16476041343E+02 -0.21162234504E+03  0.36195579965E+03  0.00000000000E+00 0.  1.
          3    1    3    3  501    0 -0.29318228200E+03  0.16476978072E+02 -0.68298582869E+03  0.74343593098E+03  0.00000000000E+00 0.  1.
         21    1    1    2  502  501 -0.11487065865E-02 -0.93672939886E-03  0.11438742720E-01  0.11534375744E-01  0.00000000000E+00 0.  1.
<mgrwt>
<rscale>  1 0.64928198E+03</rscale>
<asrwt>0</asrwt>
<pdfrwt beam="1">  1        1 0.38328541E+00 0.64928198E+03</pdfrwt>
<pdfrwt beam="2">0</pdfrwt>
<totfact> 0.15872689E+00</totfact>
</mgrwt>
</event>
<event>
 6    1  0.2450233E-003  0.6461577E+03  0.7818608E-02  0.9814016E-01
          3   -1    0    0  502    0  0.00000000000E+00  0.00000000000E+00  0.10446027691E+03  0.10446027691E+03  0.00000000000E+00 0.  1.
         13   -1    0    0    0    0 -0.00000000000E+00 -0.00000000000E+00 -0.10000000000E+04  0.10000000000E+04  0.00000000000E+00 0.  1.
    9000005    2    1    2  501    0 -0.64833763471E-03 -0.88979180981E-03 -0.89562004074E+03  0.11043799517E+04  0.64615773645E+03 0.  0.
         13    1    3    3    0    0  0.37628833358E+00 -0.19439737703E+03 -0.67649686158E+01  0.19451541478E+03  0.00000000000E+00 0.  1.
          1    1    3    3  501    0 -0.37693667121E+00  0.19439648724E+03 -0.88885507212E+03  0.90986453693E+03  0.00000000000E+00 0.  1.
         21    1    1    2  502  501  0.64833763471E-03  0.88979180981E-03  0.80317651198E-01  0.80325196328E-01  0.00000000000E+00 0. -1.
<mgrwt>
<rscale>  1 0.64615774E+03</rscale>
<asrwt>0</asrwt>
<pdfrwt beam="1">  1        3 0.37985635E+00 0.64615774E+03</pdfrwt>
<pdfrwt beam="2">0</pdfrwt>
<totfact> 0.75659216E-02</totfact>
</mgrwt>
</event>
<event>
 6    1  0.2450233E-003  0.6202104E+03  0.7818608E-02  0.9864341E-01
          1   -1    0    0  502    0  0.00000000000E+00  0.00000000000E+00  0.96292704059E+02  0.96292704059E+02  0.00000000000E+00 0.  1.
         13   -1    0    0    0    0 -0.00000000000E+00 -0.00000000000E+00 -0.10000000000E+04  0.10000000000E+04  0.00000000000E+00 0.  1.
    9000005    2    1    2  501    0 -0.11455360296E+00  0.22169477687E+00 -0.90368558192E+03  0.10960422193E+04  0.62021032989E+03 0.  0.
         13    1    3    3    0    0  0.25408701621E+03  0.28950276692E+02 -0.14192642219E+03  0.29247468206E+03  0.00000000000E+00 0.  1.
          1    1    3    3  501    0 -0.25420156982E+03 -0.28728581915E+02 -0.76175915973E+03  0.80356753727E+03  0.00000000000E+00 0.  1.
         21    1    1    2  502  501  0.11455360296E+00 -0.22169477687E+00 -0.21714016289E-01  0.25048473116E+00  0.00000000000E+00 0. -1.
<mgrwt>
<rscale>  1 0.62021038E+03</rscale>
<asrwt>0</asrwt>
<pdfrwt beam="1">  1        1 0.35015603E+00 0.62021038E+03</pdfrwt>
<pdfrwt beam="2">0</pdfrwt>
<totfact> 0.22298017E+00</totfact>
</mgrwt>
</event>
<event>
 6    1  0.2450233E-003  0.6446691E+03  0.7818608E-02  0.9816834E-01
          1   -1    0    0  502    0  0.00000000000E+00  0.00000000000E+00  0.10438392005E+03  0.10438392005E+03  0.00000000000E+00 0.  1.
         13   -1    0    0    0    0 -0.00000000000E+00 -0.00000000000E+00 -0.10000000000E+04  0.10000000000E+04  0.00000000000E+00 0.  1.
    9000005    2    1    2  501    0  0.35163019327E-01  0.57919829442E-01 -0.89609781133E+03  0.11038974468E+04  0.64466912514E+03 0.  0.
         13    1    3    3    0    0 -0.22675159901E+03 -0.68037328307E+02 -0.82256289100E+03  0.85595272962E+03  0.00000000000E+00 0.  1.
          3    1    3    3  501    0  0.22678676203E+03  0.68095248136E+02 -0.73534920329E+02  0.24794471714E+03  0.00000000000E+00 0.  1.
         21    1    1    2  502  501 -0.35163019327E-01 -0.57919829442E-01  0.48173137279E+00  0.48647328817E+00  0.00000000000E+00 0.  1.
<mgrwt>
<rscale>  1 0.64466913E+03</rscale>
<asrwt>0</asrwt>
<pdfrwt beam="1">  1        1 0.37957869E+00 0.64466913E+03</pdfrwt>
<pdfrwt beam="2">0</pdfrwt>
<totfact> 0.16496263E+00</totfact>
</mgrwt>
</event>
<event>
 6    1  0.2450233E-003  0.6536970E+03  0.7818608E-02  0.9799867E-01
          1   -1    0    0  502    0  0.00000000000E+00  0.00000000000E+00  0.10688043298E+03  0.10688043298E+03  0.00000000000E+00 0.  1.
         13   -1    0    0    0    0 -0.00000000000E+00 -0.00000000000E+00 -0.10000000000E+04  0.10000000000E+04  0.00000000000E+00 0.  1.
    9000005    2    1    2  501    0 -0.10301801657E-01 -0.14733040205E-01 -0.89316826669E+03  0.11068285211E+04  0.65369704152E+03 0.  0.
         13    1    3    3    0    0  0.20941079656E+03  0.19331986321E+03 -0.17566709107E+03  0.33479005080E+03  0.00000000000E+00 0.  1.
          1    1    3    3  501    0 -0.20942109837E+03 -0.19333459625E+03 -0.71750117562E+03  0.77203847026E+03  0.00000000000E+00 0.  1.
         21    1    1    2  502  501  0.10301801657E-01  0.14733040205E-01  0.48699668604E-01  0.51911918797E-01  0.00000000000E+00 0.  1.
<mgrwt>
<rscale>  1 0.65369704E+03</rscale>
<asrwt>0</asrwt>
<pdfrwt beam="1">  1        1 0.38865694E+00 0.65369704E+03</pdfrwt>
<pdfrwt beam="2">0</pdfrwt>
<totfact> 0.15014975E+00</totfact>
</mgrwt>
</event>
<event>
 6    1  0.2450233E-003  0.5904467E+03  0.7818608E-02  0.9925427E-01
          1   -1    0    0  502    0  0.00000000000E+00  0.00000000000E+00  0.87465336946E+02  0.87465336946E+02  0.00000000000E+00 0.  1.
         13   -1    0    0    0    0 -0.00000000000E+00 -0.00000000000E+00 -0.10000000000E+04  0.10000000000E+04  0.00000000000E+00 0.  1.
    9000005    2    1    2  501    0 -0.38676332491E-01 -0.38259187711E-01 -0.91284055937E+03  0.10871546407E+04  0.59044671473E+03 0.  0.
         13    1    3    3    0    0 -0.23477844228E+03  0.53676059363E+02 -0.14201305267E+03  0.27958852523E+03  0.00000000000E+00 0.  1.
          1    1    3    3  501    0  0.23473976595E+03 -0.53714318551E+02 -0.77082750669E+03  0.80756611544E+03  0.00000000000E+00 0.  1.
         21    1    1    2  502  501  0.38676332491E-01  0.38259187711E-01  0.30589631226E+00  0.31069627934E+00  0.00000000000E+00 0.  1.
<mgrwt>
<rscale>  1 0.59044672E+03</rscale>
<asrwt>0</asrwt>
<pdfrwt beam="1">  1        1 0.31805644E+00 0.59044672E+03</pdfrwt>
<pdfrwt beam="2">0</pdfrwt>
<totfact> 0.30887933E+00</totfact>
</mgrwt>
</event>
<event>
 6    1  0.2450233E-003  0.6406229E+03  0.7818608E-02  0.9824535E-01
          1   -1    0    0  502    0  0.00000000000E+00  0.00000000000E+00  0.10259955506E+03  0.10259955506E+03  0.00000000000E+00 0.  1.
         13   -1    0    0    0    0 -0.00000000000E+00 -0.00000000000E+00 -0.10000000000E+04  0.10000000000E+04  0.00000000000E+00 0.  1.
    9000005    2    1    2  501    0 -0.11331167684E-04  0.63877841114E-04 -0.89740055741E+03  0.11025994252E+04  0.64062292500E+03 0.  0.
         13    1    3    3    0    0  0.27661826721E+03  0.16104257795E+03 -0.46957239949E+03  0.56828744138E+03  0.00000000000E+00 0.  1.
          1    1    3    3  501    0 -0.27661827854E+03 -0.16104251407E+03 -0.42782815792E+03  0.53431198384E+03  0.00000000000E+00 0.  1.
         21    1    1    2  502  501  0.11331167665E-04 -0.63877841137E-04  0.11246985681E-03  0.12983929544E-03  0.00000000000E+00 0.  1.
<mgrwt>
<rscale>  1 0.64062293E+03</rscale>
<asrwt>0</asrwt>
<pdfrwt beam="1">  1        1 0.37309008E+00 0.64062293E+03</pdfrwt>
<pdfrwt beam="2">0</pdfrwt>
<totfact> 0.17631391E+00</totfact>
</mgrwt>
</event>
<event>
 6    1  0.2450233E-003  0.6449208E+03  0.7818608E-02  0.9816357E-01
          1   -1    0    0  502    0  0.00000000000E+00  0.00000000000E+00  0.10398074271E+03  0.10398074271E+03  0.00000000000E+00 0.  1.
         13   -1    0    0    0    0 -0.00000000000E+00 -0.00000000000E+00 -0.10000000000E+04  0.10000000000E+04  0.00000000000E+00 0.  1.
    9000005    2    1    2  501    0 -0.80183539097E-05  0.12089458068E-04 -0.89601930115E+03  0.11039806965E+04  0.64492076275E+03 0.  0.
         13    1    3    3    0    0 -0.10917891678E+03  0.20761615002E+03 -0.82676517516E+03  0.85939813618E+03  0.00000000000E+00 0.  1.
          1    1    3    3  501    0  0.10917890877E+03 -0.20761613793E+03 -0.69254125995E+02  0.24458256033E+03  0.00000000000E+00 0.  1.
         21    1    1    2  502  501  0.80183539125E-05 -0.12089458081E-04  0.43863670854E-04  0.46200331351E-04  0.00000000000E+00 0. -1.
<mgrwt>
<rscale>  1 0.64492076E+03</rscale>
<asrwt>0</asrwt>
<pdfrwt beam="1">  1        1 0.37811259E+00 0.64492076E+03</pdfrwt>
<pdfrwt beam="2">0</pdfrwt>
<totfact> 0.16742894E+00</totfact>
</mgrwt>
</event>
<event>
 6    1  0.2450233E-003  0.6510942E+03  0.7818608E-02  0.9804728E-01
          1   -1    0    0  502    0  0.00000000000E+00  0.00000000000E+00  0.11357515005E+03  0.11357515005E+03  0.00000000000E+00 0.  1.
         13   -1    0    0    0    0 -0.00000000000E+00 -0.00000000000E+00 -0.10000000000E+04  0.10000000000E+04  0.00000000000E+00 0.  1.
    9000005    2    1    2  501    0 -0.21626389352E+02 -0.28067321199E+01 -0.84485101347E+03  0.10666287728E+04  0.65072891855E+03 0.  0.
         13    1    3    3    0    0 -0.30065541012E+03 -0.12590060595E+03 -0.56725584502E+03  0.65423530318E+03  0.00000000000E+00 0.  1.
          1    1    3    3  501    0  0.27902902076E+03  0.12309387383E+03 -0.27759516844E+03  0.41239346957E+03  0.00000000000E+00 0.  1.
         21    1    1    2  502  501  0.21626389352E+02  0.28067321199E+01 -0.41573836484E+02  0.46946377300E+02  0.00000000000E+00 0.  1.
<mgrwt>
<rscale>  1 0.65109424E+03</rscale>
<asrwt>0</asrwt>
<pdfrwt beam="1">  1        1 0.41300142E+00 0.65109424E+03</pdfrwt>
<pdfrwt beam="2">0</pdfrwt>
<totfact> 0.11699273E+00</totfact>
</mgrwt>
</event>
<event>
 6    1  0.2450233E-003  0.4618959E+03  0.7818608E-02  0.1024233E+00
          3   -1    0    0  502    0  0.00000000000E+00  0.00000000000E+00  0.53345891886E+02  0.53345891886E+02  0.00000000000E+00 0.  1.
         13   -1    0    0    0    0 -0.00000000000E+00 -0.00000000000E+00 -0.10000000000E+04  0.10000000000E+04  0.00000000000E+00 0.  1.
    9000005    2    1    2  501    0 -0.18665968506E-03 -0.35012981350E-03 -0.94666305011E+03  0.10533369411E+04  0.46189585517E+03 0.  0.
         13    1    3    3    0    0 -0.18120467416E+03  0.82444555736E+02 -0.20636416718E+03  0.28673752493E+03  0.00000000000E+00 0.  1.
          1    1    3    3  501    0  0.18120448750E+03 -0.82444905865E+02 -0.74029888293E+03  0.76659941616E+03  0.00000000000E+00 0.  1.
         21    1    1    2  502  501  0.18665968506E-03  0.35012981349E-03  0.89419954945E-02  0.89507941630E-02  0.00000000000E+00 0. -1.
<mgrwt>
<rscale>  1 0.46189586E+03</rscale>
<asrwt>0</asrwt>
<pdfrwt beam="1">  1        3 0.19398547E+00 0.46189586E+03</pdfrwt>
<pdfrwt beam="2">0</pdfrwt>
<totfact> 0.83732617E-01</totfact>
</mgrwt>
</event>
<event>
 6    1  0.2450233E-003  0.7421108E+03  0.7818608E-02  0.9647809E-01
          1   -1    0    0  502    0  0.00000000000E+00  0.00000000000E+00  0.13798070456E+03  0.13798070456E+03  0.00000000000E+00 0.  1.
         13   -1    0    0    0    0 -0.00000000000E+00 -0.00000000000E+00 -0.10000000000E+04  0.10000000000E+04  0.00000000000E+00 0.  1.
    9000005    2    1    2  501    0  0.53606512823E+00  0.12701548532E+00 -0.86198339607E+03  0.11374286289E+04  0.74211064356E+03 0.  0.
         13    1    3    3    0    0  0.96329424182E+01  0.36934213279E+03 -0.48477528983E+03  0.60951906144E+03  0.00000000000E+00 0.  1.
          3    1    3    3  501    0 -0.90968772900E+01 -0.36921511730E+03 -0.37720810624E+03  0.52790956748E+03  0.00000000000E+00 0.  1.
         21    1    1    2  502  501 -0.53606512823E+00 -0.12701548532E+00 -0.35899366839E-01  0.55207564677E+00  0.00000000000E+00 0.  1.
<mgrwt>
<rscale>  1 0.74211085E+03</rscale>
<asrwt>0</asrwt>
<pdfrwt beam="1">  1        1 0.50174907E+00 0.74211085E+03</pdfrwt>
<pdfrwt beam="2">0</pdfrwt>
<totfact> 0.44469449E-01</totfact>
</mgrwt>
</event>
<event>
 6    1  0.2450233E-003  0.6574662E+03  0.7818608E-02  0.9792869E-01
          1   -1    0    0  502    0  0.00000000000E+00  0.00000000000E+00  0.10817707965E+03  0.10817707965E+03  0.00000000000E+00 0.  1.
         13   -1    0    0    0    0 -0.00000000000E+00 -0.00000000000E+00 -0.10000000000E+04  0.10000000000E+04  0.00000000000E+00 0.  1.
    9000005    2    1    2  501    0 -0.54371413006E-01 -0.14234143992E+00 -0.89187371048E+03  0.11080164653E+04  0.65746615783E+03 0.  0.
         13    1    3    3    0    0  0.20381252577E+03  0.16640875764E+03 -0.77782408816E+03  0.82112223962E+03  0.00000000000E+00 0.  1.
          3    1    3    3  501    0 -0.20386689718E+03 -0.16655109908E+03 -0.11404962232E+03  0.28689422567E+03  0.00000000000E+00 0.  1.
         21    1    1    2  502  501  0.54371413006E-01  0.14234143992E+00  0.50790131861E-01  0.16061436289E+00  0.00000000000E+00 0.  1.
<mgrwt>
<rscale>  1 0.65746618E+03</rscale>
<asrwt>0</asrwt>
<pdfrwt beam="1">  1        1 0.39337203E+00 0.65746618E+03</pdfrwt>
<pdfrwt beam="2">0</pdfrwt>
<totfact> 0.14298782E+00</totfact>
</mgrwt>
</event>
<event>
 6    1  0.2450233E-003  0.6750415E+03  0.7818608E-02  0.9760893E-01
          1   -1    0    0  502    0  0.00000000000E+00  0.00000000000E+00  0.11393478052E+03  0.11393478052E+03  0.00000000000E+00 0.  1.
         13   -1    0    0    0    0 -0.00000000000E+00 -0.00000000000E+00 -0.10000000000E+04  0.10000000000E+04  0.00000000000E+00 0.  1.
    9000005    2    1    2  501    0  0.24559610176E-03 -0.15440705283E-03 -0.88607973943E+03  0.11139202577E+04  0.67504150674E+03 0.  0.
         13    1    3    3    0    0  0.26174766606E+03 -0.16339220894E+03 -0.66876410480E+03  0.73651495742E+03  0.00000000000E+00 0.  1.
          1    1    3    3  501    0 -0.26174742046E+03  0.16339205454E+03 -0.21731563463E+03  0.37740530025E+03  0.00000000000E+00 0.  1.
         21    1    1    2  502  501 -0.24559610175E-03  0.15440705282E-03  0.14519948344E-01  0.14522846101E-01  0.00000000000E+00 0. -1.
<mgrwt>
<rscale>  1 0.67504151E+03</rscale>
<asrwt>0</asrwt>
<pdfrwt beam="1">  1        1 0.41430917E+00 0.67504151E+03</pdfrwt>
<pdfrwt beam="2">0</pdfrwt>
<totfact> 0.11489059E+00</totfact>
</mgrwt>
</event>
<event>
 6    1  0.2450233E-003  0.6523818E+03  0.7818608E-02  0.9802320E-01
          1   -1    0    0  502    0  0.00000000000E+00  0.00000000000E+00  0.10661254872E+03  0.10661254872E+03  0.00000000000E+00 0.  1.
         13   -1    0    0    0    0 -0.00000000000E+00 -0.00000000000E+00 -0.10000000000E+04  0.10000000000E+04  0.00000000000E+00 0.  1.
    9000005    2    1    2  501    0  0.59889154814E+00 -0.24313488231E+00 -0.89261008757E+03  0.11056015690E+04  0.65238151657E+03 0.  0.
         13    1    3    3    0    0  0.21610859169E+03  0.44069982708E+02 -0.85425140355E+03  0.88226444292E+03  0.00000000000E+00 0.  1.
          1    1    3    3  501    0 -0.21550970014E+03 -0.44313117590E+02 -0.38358684018E+02  0.22333712608E+03  0.00000000000E+00 0.  1.
         21    1    1    2  502  501 -0.59889154814E+00  0.24313488231E+00 -0.77736371328E+00  0.10109797229E+01  0.00000000000E+00 0.  1.
<mgrwt>
<rscale>  1 0.65238184E+03</rscale>
<asrwt>0</asrwt>
<pdfrwt beam="1">  1        1 0.38768281E+00 0.65238184E+03</pdfrwt>
<pdfrwt beam="2">0</pdfrwt>
<totfact> 0.15168625E+00</totfact>
</mgrwt>
</event>
<event>
 6    1  0.2450233E-003  0.6539779E+03  0.7818608E-02  0.9799344E-01
          1   -1    0    0  502    0  0.00000000000E+00  0.00000000000E+00  0.11481929113E+03  0.11481929113E+03  0.00000000000E+00 0.  1.
         13   -1    0    0    0    0 -0.00000000000E+00 -0.00000000000E+00 -0.10000000000E+04  0.10000000000E+04  0.00000000000E+00 0.  1.
    9000005    2    1    2  501    0  0.11810146652E+02 -0.94366690063E+01 -0.88406266458E+03  0.10996607850E+04  0.65380311777E+03 0.  0.
         13    1    3    3    0    0  0.26005978286E+03 -0.19111971380E+03 -0.59824439540E+03  0.67974568207E+03  0.00000000000E+00 0.  1.
          3    1    3    3  501    0 -0.24824963621E+03  0.18168304480E+03 -0.28581826918E+03  0.41991510290E+03  0.00000000000E+00 0.  1.
         21    1    1    2  502  501 -0.11810146652E+02  0.94366690063E+01 -0.11180442947E+01  0.15158506157E+02  0.00000000000E+00 0.  1.
<mgrwt>
<rscale>  1 0.65397786E+03</rscale>
<asrwt>0</asrwt>
<pdfrwt beam="1">  1        1 0.41752558E+00 0.65397786E+03</pdfrwt>
<pdfrwt beam="2">0</pdfrwt>
<totfact> 0.11157535E+00</totfact>
</mgrwt>
</event>
<event>
 6    1  0.2450233E-003  0.6501847E+03  0.7818608E-02  0.9806433E-01
          1   -1    0    0  502    0  0.00000000000E+00  0.00000000000E+00  0.10568763852E+03  0.10568763852E+03  0.00000000000E+00 0.  1.
         13   -1    0    0    0    0 -0.00000000000E+00 -0.00000000000E+00 -0.10000000000E+04  0.10000000000E+04  0.00000000000E+00 0.  1.
    9000005    2    1    2  501    0  0.25760427513E-02  0.57006311916E-02 -0.89430987115E+03  0.11056809054E+04  0.65018468059E+03 0.  0.
         13    1    3    3    0    0  0.21994535558E+02  0.27049637722E+03 -0.14278779819E+03  0.30666008054E+03  0.00000000000E+00 0.  1.
          3    1    3    3  501    0 -0.21991959516E+02 -0.27049067659E+03 -0.75152207296E+03  0.79902082486E+03  0.00000000000E+00 0.  1.
         21    1    1    2  502  501 -0.25760427513E-02 -0.57006311917E-02 -0.24903335294E-02  0.67331235937E-02  0.00000000000E+00 0. -1.
<mgrwt>
<rscale>  1 0.65018468E+03</rscale>
<asrwt>0</asrwt>
<pdfrwt beam="1">  1        1 0.38431950E+00 0.65018468E+03</pdfrwt>
<pdfrwt beam="2">0</pdfrwt>
<totfact> 0.15703879E+00</totfact>
</mgrwt>
</event>
<event>
 6    1  0.2450233E-003  0.6527025E+03  0.7818608E-02  0.9801721E-01
          1   -1    0    0  502    0  0.00000000000E+00  0.00000000000E+00  0.10650513474E+03  0.10650513474E+03  0.00000000000E+00 0.  1.
         13   -1    0    0    0    0 -0.00000000000E+00 -0.00000000000E+00 -0.10000000000E+04  0.10000000000E+04  0.00000000000E+00 0.  1.
    9000005    2    1    2  501    0  0.69951656485E-05  0.12759356480E-04 -0.89349487072E+03  0.11065051192E+04  0.65270245503E+03 0.  0.
         13    1    3    3    0    0  0.20976539394E+03  0.17818576079E+03 -0.14945419676E+03  0.31319042573E+03  0.00000000000E+00 0.  1.
          1    1    3    3  501    0 -0.20976538694E+03 -0.17818574803E+03 -0.74404067397E+03  0.79331469347E+03  0.00000000000E+00 0.  1.
         21    1    1    2  502  501 -0.69951656499E-05 -0.12759356494E-04  0.54638897622E-05  0.15543088880E-04  0.00000000000E+00 0.  1.
<mgrwt>
<rscale>  1 0.65270246E+03</rscale>
<asrwt>0</asrwt>
<pdfrwt beam="1">  1        1 0.38729222E+00 0.65270246E+03</pdfrwt>
<pdfrwt beam="2">0</pdfrwt>
<totfact> 0.15228263E+00</totfact>
</mgrwt>
</event>
<event>
 6    1  0.2450233E-003  0.6569863E+03  0.7818608E-02  0.9793757E-01
          1   -1    0    0  502    0  0.00000000000E+00  0.00000000000E+00  0.10790858065E+03  0.10790858065E+03  0.00000000000E+00 0.  1.
         13   -1    0    0    0    0 -0.00000000000E+00 -0.00000000000E+00 -0.10000000000E+04  0.10000000000E+04  0.00000000000E+00 0.  1.
    9000005    2    1    2  501    0 -0.11150702960E-03  0.87777028227E-04 -0.89209223264E+03  0.11079077551E+04  0.65698633336E+03 0.  0.
         13    1    3    3    0    0  0.22926828047E+03 -0.18579019394E+03 -0.20268676477E+03  0.35799981174E+03  0.00000000000E+00 0.  1.
          3    1    3    3  501    0 -0.22926839198E+03  0.18579028171E+03 -0.68940546787E+03  0.74990794333E+03  0.00000000000E+00 0.  1.
         21    1    1    2  502  501  0.11150702961E-03 -0.87777028223E-04  0.81329128533E-03  0.82557939602E-03  0.00000000000E+00 0. -1.
<mgrwt>
<rscale>  1 0.65698633E+03</rscale>
<asrwt>0</asrwt>
<pdfrwt beam="1">  1        1 0.39239567E+00 0.65698633E+03</pdfrwt>
<pdfrwt beam="2">0</pdfrwt>
<totfact> 0.14443567E+00</totfact>
</mgrwt>
</event>
<event>
 6    1  0.2450233E-003  0.6453971E+03  0.7818608E-02  0.9815455E-01
          1   -1    0    0  502    0  0.00000000000E+00  0.00000000000E+00  0.10413480797E+03  0.10413480797E+03  0.00000000000E+00 0.  1.
         13   -1    0    0    0    0 -0.00000000000E+00 -0.00000000000E+00 -0.10000000000E+04  0.10000000000E+04  0.00000000000E+00 0.  1.
    9000005    2    1    2  501    0 -0.17351306374E-03  0.63406251115E-04 -0.89586563234E+03  0.11041343305E+04  0.64539707817E+03 0.  0.
         13    1    3    3    0    0 -0.54780165023E+02  0.55644745009E+02 -0.98359414382E+03  0.98668872695E+03  0.00000000000E+00 0.  1.
          1    1    3    3  501    0  0.54779991510E+02 -0.55644681603E+02  0.87728511479E+02  0.11744560352E+03  0.00000000000E+00 0.  1.
         21    1    1    2  502  501  0.17351306374E-03 -0.63406251116E-04  0.44031949812E-03  0.47750224753E-03  0.00000000000E+00 0.  1.
<mgrwt>
<rscale>  1 0.64539708E+03</rscale>
<asrwt>0</asrwt>
<pdfrwt beam="1">  1        1 0.37867283E+00 0.64539708E+03</pdfrwt>
<pdfrwt beam="2">0</pdfrwt>
<totfact> 0.16646486E+00</totfact>
</mgrwt>
</event>
<event>
 6    1  0.2450233E-003  0.6577492E+03  0.7818608E-02  0.9792346E-01
          1   -1    0    0  502    0  0.00000000000E+00  0.00000000000E+00  0.10903521920E+03  0.10903521920E+03  0.00000000000E+00 0.  1.
         13   -1    0    0    0    0 -0.00000000000E+00 -0.00000000000E+00 -0.10000000000E+04  0.10000000000E+04  0.00000000000E+00 0.  1.
    9000005    2    1    2  501    0 -0.69297457974E-01  0.14268711577E+00 -0.89183353400E+03  0.11081521032E+04  0.65774919710E+03 0.  0.
         13    1    3    3    0    0 -0.20856174475E+03 -0.22889645469E+03 -0.63233850062E+03  0.70409059624E+03  0.00000000000E+00 0.  1.
          1    1    3    3  501    0  0.20849244729E+03  0.22903914181E+03 -0.25949503338E+03  0.40406150696E+03  0.00000000000E+00 0.  1.
         21    1    1    2  502  501  0.69297457974E-01 -0.14268711577E+00  0.86875320279E+00  0.88311600486E+00  0.00000000000E+00 0.  1.
<mgrwt>
<rscale>  1 0.65774922E+03</rscale>
<asrwt>0</asrwt>
<pdfrwt beam="1">  1        1 0.39649254E+00 0.65774922E+03</pdfrwt>
<pdfrwt beam="2">0</pdfrwt>
<totfact> 0.13848442E+00</totfact>
</mgrwt>
</event>
<event>
 6    1  0.2450233E-003  0.6506662E+03  0.7818608E-02  0.9805530E-01
          1   -1    0    0  502    0  0.00000000000E+00  0.00000000000E+00  0.10599351979E+03  0.10599351979E+03  0.00000000000E+00 0.  1.
         13   -1    0    0    0    0 -0.00000000000E+00 -0.00000000000E+00 -0.10000000000E+04  0.10000000000E+04  0.00000000000E+00 0.  1.
    9000005    2    1    2  501    0  0.43970770312E+00 -0.87782692787E-01 -0.89358575285E+03  0.11053786538E+04  0.65066601997E+03 0.  0.
         13    1    3    3    0    0 -0.12042397266E+03 -0.30209159172E+03 -0.45920026599E+03  0.56269543028E+03  0.00000000000E+00 0.  1.
          3    1    3    3  501    0  0.12086368036E+03  0.30200380902E+03 -0.43438548686E+03  0.54268322352E+03  0.00000000000E+00 0.  1.
         21    1    1    2  502  501 -0.43970770312E+00  0.87782692787E-01 -0.42072736136E+00  0.61486598372E+00  0.00000000000E+00 0. -1.
<mgrwt>
<rscale>  1 0.65066617E+03</rscale>
<asrwt>0</asrwt>
<pdfrwt beam="1">  1        1 0.38543179E+00 0.65066617E+03</pdfrwt>
<pdfrwt beam="2">0</pdfrwt>
<totfact> 0.15525610E+00</totfact>
</mgrwt>
</event>
<event>
 6    1  0.2450233E-003  0.6537900E+03  0.7818608E-02  0.9799693E-01
          1   -1    0    0  502    0  0.00000000000E+00  0.00000000000E+00  0.10686058925E+03  0.10686058925E+03  0.00000000000E+00 0.  1.
         13   -1    0    0    0    0 -0.00000000000E+00 -0.00000000000E+00 -0.10000000000E+04  0.10000000000E+04  0.00000000000E+00 0.  1.
    9000005    2    1    2  501    0 -0.39782051756E-03 -0.16913380314E-03 -0.89313945374E+03  0.11068601548E+04  0.65378996515E+03 0.  0.
         13    1    3    3    0    0 -0.10899023598E+03  0.10833403399E+03 -0.93503557324E+03  0.94757936749E+03  0.00000000000E+00 0.  1.
          1    1    3    3  501    0  0.10898983816E+03 -0.10833420312E+03  0.41896119503E+02  0.15928078734E+03  0.00000000000E+00 0.  1.
         21    1    1    2  502  501  0.39782051756E-03  0.16913380314E-03  0.42985082394E-04  0.43441354130E-03  0.00000000000E+00 0. -1.
<mgrwt>
<rscale>  1 0.65378997E+03</rscale>
<asrwt>0</asrwt>
<pdfrwt beam="1">  1        1 0.38858478E+00 0.65378997E+03</pdfrwt>
<pdfrwt beam="2">0</pdfrwt>
<totfact> 0.15025776E+00</totfact>
</mgrwt>
</event>
<event>
 6    1  0.2450233E-003  0.6486200E+03  0.7818608E-02  0.9809372E-01
          1   -1    0    0  502    0  0.00000000000E+00  0.00000000000E+00  0.11200331426E+03  0.11200331426E+03  0.00000000000E+00 0.  1.
         13   -1    0    0    0    0 -0.00000000000E+00 -0.00000000000E+00 -0.10000000000E+04  0.10000000000E+04  0.00000000000E+00 0.  1.
    9000005    2    1    2  501    0  0.14133868043E+02  0.82577540547E+01 -0.88144049972E+03  0.10943698148E+04  0.64841343315E+03 0.  0.
         13    1    3    3    0    0  0.62828777574E+02 -0.30166866244E+03 -0.59259576034E+03  0.66792302877E+03  0.00000000000E+00 0.  1.
          3    1    3    3  501    0 -0.48694909531E+02  0.30992641649E+03 -0.28884473938E+03  0.42644678604E+03  0.00000000000E+00 0.  1.
         21    1    1    2  502  501 -0.14133868043E+02 -0.82577540547E+01 -0.65561860219E+01  0.17633499456E+02  0.00000000000E+00 0.  1.
<mgrwt>
<rscale>  1 0.64862003E+03</rscale>
<asrwt>0</asrwt>
<pdfrwt beam="1">  1        1 0.40728564E+00 0.64862003E+03</pdfrwt>
<pdfrwt beam="2">0</pdfrwt>
<totfact> 0.12416264E+00</totfact>
</mgrwt>
</event>
<event>
 6    1  0.2450233E-003  0.6307562E+03  0.7818608E-02  0.9843574E-01
          1   -1    0    0  502    0  0.00000000000E+00  0.00000000000E+00  0.99463625673E+02  0.99463625673E+02  0.00000000000E+00 0.  1.
         13   -1    0    0    0    0 -0.00000000000E+00 -0.00000000000E+00 -0.10000000000E+04  0.10000000000E+04  0.00000000000E+00 0.  1.
    9000005    2    1    2  501    0  0.14199736930E-03  0.38121677505E-04 -0.90053661729E+03  0.10994633417E+04  0.63075624504E+03 0.  0.
         13    1    3    3    0    0 -0.10111567101E+03  0.26715950812E+03 -0.21728866376E+03  0.35890520350E+03  0.00000000000E+00 0.  1.
          1    1    3    3  501    0  0.10111581300E+03 -0.26715947000E+03 -0.68324795352E+03  0.74055813819E+03  0.00000000000E+00 0.  1.
         21    1    1    2  502  501 -0.14199736930E-03 -0.38121677506E-04  0.24295931750E-03  0.28398194510E-03  0.00000000000E+00 0. -1.
<mgrwt>
<rscale>  1 0.63075625E+03</rscale>
<asrwt>0</asrwt>
<pdfrwt beam="1">  1        1 0.36168667E+00 0.63075625E+03</pdfrwt>
<pdfrwt beam="2">0</pdfrwt>
<totfact> 0.19819436E+00</totfact>
</mgrwt>
</event>
<event>
 6    1  0.2450233E-003  0.6446418E+03  0.7818608E-02  0.9816886E-01
          1   -1    0    0  502    0  0.00000000000E+00  0.00000000000E+00  0.10405653914E+03  0.10405653914E+03  0.00000000000E+00 0.  1.
         13   -1    0    0    0    0 -0.00000000000E+00 -0.00000000000E+00 -0.10000000000E+04  0.10000000000E+04  0.00000000000E+00 0.  1.
    9000005    2    1    2  501    0  0.41241855218E-01  0.16539653149E+00 -0.89605946570E+03  0.11038503498E+04  0.64464176077E+03 0.  0.
         13    1    3    3    0    0 -0.16635888802E+03  0.39750372350E+02 -0.91583236429E+03  0.93166747888E+03  0.00000000000E+00 0.  1.
          3    1    3    3  501    0  0.16640012988E+03 -0.39584975818E+02  0.19772898593E+02  0.17218287096E+03  0.00000000000E+00 0.  1.
         21    1    1    2  502  501 -0.41241855218E-01 -0.16539653149E+00  0.11600484242E+00  0.20618929825E+00  0.00000000000E+00 0.  1.
<mgrwt>
<rscale>  1 0.64464178E+03</rscale>
<asrwt>0</asrwt>
<pdfrwt beam="1">  1        1 0.37838821E+00 0.64464178E+03</pdfrwt>
<pdfrwt beam="2">0</pdfrwt>
<totfact> 0.16696970E+00</totfact>
</mgrwt>
</event>
<event>
 6    1  0.2450233E-003  0.6612410E+03  0.7818608E-02  0.9785912E-01
          1   -1    0    0  502    0  0.00000000000E+00  0.00000000000E+00  0.11014693861E+03  0.11014693861E+03  0.00000000000E+00 0.  1.
         13   -1    0    0    0    0 -0.00000000000E+00 -0.00000000000E+00 -0.10000000000E+04  0.10000000000E+04  0.00000000000E+00 0.  1.
    9000005    2    1    2  501    0 -0.15549765207E+01 -0.19902429483E+01 -0.88633953096E+03  0.11058198247E+04  0.66123622214E+03 0.  0.
         13    1    3    3    0    0 -0.31572214753E+03 -0.26253396890E+02 -0.28142896194E+03  0.42375933725E+03  0.00000000000E+00 0.  1.
          3    1    3    3  501    0  0.31416717101E+03  0.24263153942E+02 -0.60491056902E+03  0.68206048741E+03  0.00000000000E+00 0.  1.
         21    1    1    2  502  501  0.15549765207E+01  0.19902429483E+01 -0.35135304323E+01  0.43271139426E+01  0.00000000000E+00 0.  1.
<mgrwt>
<rscale>  1 0.66124105E+03</rscale>
<asrwt>0</asrwt>
<pdfrwt beam="1">  1        1 0.40053517E+00 0.66124105E+03</pdfrwt>
<pdfrwt beam="2">0</pdfrwt>
<totfact> 0.13277186E+00</totfact>
</mgrwt>
</event>
<event>
 6    1  0.2450233E-003  0.5941352E+03  0.7818608E-02  0.9917649E-01
          1   -1    0    0  502    0  0.00000000000E+00  0.00000000000E+00  0.88295514407E+02  0.88295514407E+02  0.00000000000E+00 0.  1.
         13   -1    0    0    0    0 -0.00000000000E+00 -0.00000000000E+00 -0.10000000000E+04  0.10000000000E+04  0.00000000000E+00 0.  1.
    9000005    2    1    2  501    0 -0.92093085733E-03  0.22778347386E-03 -0.91175083724E+03  0.10882491530E+04  0.59413519496E+03 0.  0.
         13    1    3    3    0    0 -0.92231737932E+02  0.21540092314E+03 -0.12140460072E+03  0.26390022404E+03  0.00000000000E+00 0.  1.
          3    1    3    3  501    0  0.92230817001E+02 -0.21540069536E+03 -0.79034623653E+03  0.82434892901E+03  0.00000000000E+00 0.  1.
         21    1    1    2  502  501  0.92093085734E-03 -0.22778347384E-03  0.46351651875E-01  0.46361359239E-01  0.00000000000E+00 0. -1.
<mgrwt>
<rscale>  1 0.59413519E+03</rscale>
<asrwt>0</asrwt>
<pdfrwt beam="1">  1        1 0.32107527E+00 0.59413519E+03</pdfrwt>
<pdfrwt beam="2">0</pdfrwt>
<totfact> 0.29953692E+00</totfact>
</mgrwt>
</event>
<event>
 6    1  0.2450233E-003  0.6402551E+03  0.7818608E-02  0.9825239E-01
          1   -1    0    0  502    0  0.00000000000E+00  0.00000000000E+00  0.10248212751E+03  0.10248212751E+03  0.00000000000E+00 0.  1.
         13   -1    0    0    0    0 -0.00000000000E+00 -0.00000000000E+00 -0.10000000000E+04  0.10000000000E+04  0.00000000000E+00 0.  1.
    9000005    2    1    2  501    0 -0.14457961689E-03  0.21140120469E-03 -0.89751830482E+03  0.11024816250E+04  0.64025512572E+03 0.  0.
         13    1    3    3    0    0  0.36591067639E+02 -0.18125858892E+03 -0.89873634076E+03  0.91756230986E+03  0.00000000000E+00 0.  1.
          3    1    3    3  501    0 -0.36591212219E+02  0.18125880032E+03  0.12180359389E+01  0.18491931515E+03  0.00000000000E+00 0.  1.
         21    1    1    2  502  501  0.14457961689E-03 -0.21140120469E-03  0.43232663369E-03  0.50249383396E-03  0.00000000000E+00 0.  1.
<mgrwt>
<rscale>  1 0.64025513E+03</rscale>
<asrwt>0</asrwt>
<pdfrwt beam="1">  1        1 0.37266307E+00 0.64025513E+03</pdfrwt>
<pdfrwt beam="2">0</pdfrwt>
<totfact> 0.17708979E+00</totfact>
</mgrwt>
</event>
<event>
 6    1  0.3072633E-003  0.6222026E+03  0.7818608E-02  0.9860384E-01
          1   -1    0    0  502    0  0.00000000000E+00  0.00000000000E+00  0.96784023451E+02  0.96784023451E+02  0.00000000000E+00 0.  1.
         13   -1    0    0    0    0 -0.00000000000E+00 -0.00000000000E+00 -0.10000000000E+04  0.10000000000E+04  0.00000000000E+00 0.  1.
    9000005    2    1    2  501    0 -0.11525578572E-05  0.17824394476E-05 -0.90321597791E+03  0.10967840209E+04  0.62220260832E+03 0.  0.
         13    1    3    3    0    0  0.25708986959E+02  0.31619751227E+02 -0.99527458755E+03  0.99610856100E+03  0.00000000000E+00 0.  1.
          3    1    3    3  501    0 -0.25708988112E+02 -0.31619749445E+02  0.92058609632E+02  0.10067545993E+03  0.00000000000E+00 0.  1.
         21    1    1    2  502  501  0.11525578573E-05 -0.17824394481E-05  0.13644750151E-05  0.25233454119E-05  0.00000000000E+00 0.  1.
<mgrwt>
<rscale>  1 0.62220261E+03</rscale>
<asrwt>0</asrwt>
<pdfrwt beam="1">  1        1 0.35194265E+00 0.62220261E+03</pdfrwt>
<pdfrwt beam="2">0</pdfrwt>
<totfact> 0.21893924E+00</totfact>
</mgrwt>
</event>
<event>
 6    1  0.2450233E-003  0.6347240E+03  0.7818608E-02  0.9835873E-01
          1   -1    0    0  502    0  0.00000000000E+00  0.00000000000E+00  0.10072693027E+03  0.10072693027E+03  0.00000000000E+00 0.  1.
         13   -1    0    0    0    0 -0.00000000000E+00 -0.00000000000E+00 -0.10000000000E+04  0.10000000000E+04  0.00000000000E+00 0.  1.
    9000005    2    1    2  501    0 -0.30595546258E-03  0.10051605389E-03 -0.89928137046E+03  0.11007186233E+04  0.63472395923E+03 0.  0.
         13    1    3    3    0    0 -0.31429762826E+03 -0.41635979951E+02 -0.42498370711E+03  0.53021477277E+03  0.00000000000E+00 0.  1.
          3    1    3    3  501    0  0.31429732231E+03  0.41636080467E+02 -0.47429766335E+03  0.57050385053E+03  0.00000000000E+00 0.  1.
         21    1    1    2  502  501  0.30595546262E-03 -0.10051605389E-03  0.83007264353E-02  0.83069712637E-02  0.00000000000E+00 0.  1.
<mgrwt>
<rscale>  1 0.63472396E+03</rscale>
<asrwt>0</asrwt>
<pdfrwt beam="1">  1        1 0.36628052E+00 0.63472396E+03</pdfrwt>
<pdfrwt beam="2">0</pdfrwt>
<totfact> 0.18908439E+00</totfact>
</mgrwt>
</event>
<event>
 6    1  0.2450233E-003  0.6266503E+03  0.7818608E-02  0.9851607E-01
          1   -1    0    0  502    0  0.00000000000E+00  0.00000000000E+00  0.98180946322E+02  0.98180946322E+02  0.00000000000E+00 0.  1.
         13   -1    0    0    0    0 -0.00000000000E+00 -0.00000000000E+00 -0.10000000000E+04  0.10000000000E+04  0.00000000000E+00 0.  1.
    9000005    2    1    2  501    0  0.10368366367E-01 -0.13226445511E-02 -0.90182358886E+03  0.10981695525E+04  0.62665028557E+03 0.  0.
         13    1    3    3    0    0  0.55834382315E+02  0.67753041181E+02  0.76177214453E+02  0.11623648670E+03  0.00000000000E+00 0.  1.
          3    1    3    3  501    0 -0.55824013949E+02 -0.67754363826E+02 -0.97800080331E+03  0.98193306576E+03  0.00000000000E+00 0.  1.
         21    1    1    2  502  501 -0.10368366367E-01  0.13226445511E-02  0.45351788895E-02  0.11393869285E-01  0.00000000000E+00 0.  1.
<mgrwt>
<rscale>  1 0.62665029E+03</rscale>
<asrwt>0</asrwt>
<pdfrwt beam="1">  1        1 0.35702238E+00 0.62665029E+03</pdfrwt>
<pdfrwt beam="2">0</pdfrwt>
<totfact> 0.20787720E+00</totfact>
</mgrwt>
</event>
<event>
 6    1  0.2450233E-003  0.6719710E+03  0.7818608E-02  0.9766404E-01
          1   -1    0    0  502    0  0.00000000000E+00  0.00000000000E+00  0.11299120864E+03  0.11299120864E+03  0.00000000000E+00 0.  1.
         13   -1    0    0    0    0 -0.00000000000E+00 -0.00000000000E+00 -0.10000000000E+04  0.10000000000E+04  0.00000000000E+00 0.  1.
    9000005    2    1    2  501    0 -0.97015493832E-02  0.75638989295E-01 -0.88709809739E+03  0.11128737738E+04  0.67197097868E+03 0.  0.
         13    1    3    3    0    0  0.25437205068E+03 -0.16511420513E+03 -0.20407542885E+03  0.36553333851E+03  0.00000000000E+00 0.  1.
          3    1    3    3  501    0 -0.25438175223E+03  0.16518984412E+03 -0.68302266854E+03  0.74734043528E+03  0.00000000000E+00 0.  1.
         21    1    1    2  502  501  0.97015493832E-02 -0.75638989295E-01  0.89306025683E-01  0.11743484570E+00  0.00000000000E+00 0. -1.
<mgrwt>
<rscale>  1 0.67197098E+03</rscale>
<asrwt>0</asrwt>
<pdfrwt beam="1">  1        1 0.41087799E+00 0.67197098E+03</pdfrwt>
<pdfrwt beam="2">0</pdfrwt>
<totfact> 0.11911144E+00</totfact>
</mgrwt>
</event>
