<event>
 6    1  0.9462926E-012  0.3000000E+03  0.7818608E-02  0.1093470E+00
          1   -1    0    0  502    0  0.00000000000E+00  0.00000000000E+00  0.24600465605E+03  0.24600465605E+03  0.00000000000E+00 0.  1.
         13   -1    0    0    0    0 -0.00000000000E+00 -0.00000000000E+00 -0.27500000000E+03  0.27500000000E+03  0.00000000000E+00 0.  1.
    9000005    2    1    2  501    0 -0.46604453083E+02 -0.12345780254E+01 -0.61312442496E+02  0.46427817116E+03  0.45784441176E+03 0.  0.
         13    1    3    3    0    0 -0.15073677548E+03  0.11419975700E+03  0.12113307638E+03  0.22458045813E+03  0.00000000000E+00 0.  1.
          3    1    3    3  501    0  0.10413232240E+03 -0.11543433503E+03 -0.18244551887E+03  0.23969771302E+03  0.00000000000E+00 0.  1.
         21    1    1    2  502  501  0.46604453083E+02  0.12345780254E+01  0.32317098548E+02  0.56726484896E+02  0.00000000000E+00 0. -1.
<scales pt_clust_4="550.00000" pt_clust_5="550.00000" pt_clust_6="46.62080"></scales>
<mgrwt>
<rscale>  0 0.30000000E+03</rscale>
<asrwt>  1 0.46620803E+02</asrwt>
<pdfrwt beam="1">  1        1 0.89456239E+00 0.30000000E+03</pdfrwt>
<pdfrwt beam="2">0</pdfrwt>
<totfact> 0.12103958E-04</totfact>
</mgrwt>
<clustering>
<clus scale="   46.621">  1  6  2 -1</clus>
<clus scale="  457.844">  4  5 -1 -1</clus>
<clus scale="  300.000">  1  4  2 -1</clus>
</clustering>
</event>
<event>
 6    1  0.9462926E-012  0.3000000E+03  0.7818608E-02  0.1093470E+00
          1   -1    0    0  502    0  0.00000000000E+00  0.00000000000E+00  0.22460500719E+03  0.22460500719E+03  0.00000000000E+00 0.  1.
         13   -1    0    0    0    0 -0.00000000000E+00 -0.00000000000E+00 -0.27500000000E+03  0.27500000000E+03  0.00000000000E+00 0.  1.
    9000005    2    1    2  501    0 -0.12685333578E+02  0.30884132839E+02 -0.62193207116E+02  0.46419391839E+03  0.45879543537E+03 0.  0.
         13    1    3    3    0    0 -0.30316092391E+02  0.10480066162E+03  0.17993270879E+03  0.21042343935E+03  0.00000000000E+00 0.  1.
          1    1    3    3  501    0  0.17630758814E+02 -0.73916528784E+02 -0.24212591590E+03  0.25377047905E+03  0.00000000000E+00 0.  1.
         21    1    1    2  502  501  0.12685333578E+02 -0.30884132839E+02  0.11798214310E+02  0.35411088801E+02  0.00000000000E+00 0.  1.
<scales pt_clust_4="550.00000" pt_clust_5="550.00000" pt_clust_6="33.38783"></scales>
<mgrwt>
<rscale>  0 0.30000000E+03</rscale>
<asrwt>  1 0.33387832E+02</asrwt>
<pdfrwt beam="1">  1        1 0.81674548E+00 0.30000000E+03</pdfrwt>
<pdfrwt beam="2">0</pdfrwt>
<totfact> 0.77725741E-04</totfact>
</mgrwt>
<clustering>
<clus scale="   33.388">  1  6  2 -1</clus>
<clus scale="  458.795">  4  5 -1 -1</clus>
<clus scale="  300.000">  1  4  2 -1</clus>
</clustering>
</event>
<event>
 6    1  0.9462926E-012  0.3000000E+03  0.7818608E-02  0.1093470E+00
          1   -1    0    0  502    0  0.00000000000E+00  0.00000000000E+00  0.23351539354E+03  0.23351539354E+03  0.00000000000E+00 0.  1.
         13   -1    0    0    0    0 -0.00000000000E+00 -0.00000000000E+00 -0.27500000000E+03  0.27500000000E+03  0.00000000000E+00 0.  1.
    9000005    2    1    2  501    0 -0.24277169963E+02 -0.31355611158E+02 -0.42329702384E+02  0.46885093187E+03  0.46524922061E+03 0.  0.
         13    1    3    3    0    0 -0.11103475543E+03  0.19485225315E+03 -0.10730291162E+02  0.22452451229E+03  0.00000000000E+00 0.  1.
          3    1    3    3  501    0  0.86757585470E+02 -0.22620786431E+03 -0.31599411222E+02  0.24432641957E+03  0.00000000000E+00 0.  1.
         21    1    1    2  502  501  0.24277169963E+02  0.31355611158E+02  0.84509592414E+00  0.39664461671E+02  0.00000000000E+00 0. -1.
<scales pt_clust_4="550.00000" pt_clust_5="550.00000" pt_clust_6="39.65546"></scales>
<mgrwt>
<rscale>  0 0.30000000E+03</rscale>
<asrwt>  1 0.39655458E+02</asrwt>
<pdfrwt beam="1">  1        1 0.84914689E+00 0.30000000E+03</pdfrwt>
<pdfrwt beam="2">0</pdfrwt>
<totfact> 0.40505748E-04</totfact>
</mgrwt>
<clustering>
<clus scale="   39.655">  1  6  2 -1</clus>
<clus scale="  465.249">  4  5 -1 -1</clus>
<clus scale="  300.000">  1  4  2 -1</clus>
</clustering>
</event>
<event>
 6    1  0.9462926E-012  0.3000000E+03  0.7818608E-02  0.1093470E+00
          1   -1    0    0  502    0  0.00000000000E+00  0.00000000000E+00  0.24287208637E+03  0.24287208637E+03  0.00000000000E+00 0.  1.
         13   -1    0    0    0    0 -0.00000000000E+00 -0.00000000000E+00 -0.27500000000E+03  0.27500000000E+03  0.00000000000E+00 0.  1.
    9000005    2    1    2  501    0 -0.96395066535E+00 -0.30843043385E+02 -0.31374301365E+02  0.48700478235E+03  0.48501246243E+03 0.  0.
         13    1    3    3    0    0 -0.33412582866E+02  0.21031922522E+03 -0.98422856175E+02  0.23460101408E+03  0.00000000000E+00 0.  1.
          3    1    3    3  501    0  0.32448632201E+02 -0.24116226861E+03  0.67048554810E+02  0.25240376826E+03  0.00000000000E+00 0.  1.
         21    1    1    2  502  501  0.96395066535E+00  0.30843043385E+02 -0.75361226563E+00  0.30867304022E+02  0.00000000000E+00 0. -1.
<scales pt_clust_4="550.00000" pt_clust_5="550.00000" pt_clust_6="30.85810"></scales>
<mgrwt>
<rscale>  0 0.30000000E+03</rscale>
<asrwt>  1 0.30858103E+02</asrwt>
<pdfrwt beam="1">  1        1 0.88317122E+00 0.30000000E+03</pdfrwt>
<pdfrwt beam="2">0</pdfrwt>
<totfact> 0.18400060E-04</totfact>
</mgrwt>
<clustering>
<clus scale="   30.858">  1  6  2 -1</clus>
<clus scale="  485.012">  4  5 -1 -1</clus>
<clus scale="  300.000">  1  4  2 -1</clus>
</clustering>
</event>
<event>
 6    1  0.9462926E-012  0.3000000E+03  0.7818608E-02  0.1093470E+00
          1   -1    0    0  502    0  0.00000000000E+00  0.00000000000E+00  0.22403242946E+03  0.22403242946E+03  0.00000000000E+00 0.  1.
         13   -1    0    0    0    0 -0.00000000000E+00 -0.00000000000E+00 -0.27500000000E+03  0.27500000000E+03  0.00000000000E+00 0.  1.
    9000005    2    1    2  501    0 -0.13820261041E+02  0.31810035644E+02 -0.64118489912E+02  0.46194031894E+03  0.45615216708E+03 0.  0.
         13    1    3    3    0    0 -0.22798260888E+03  0.70689439119E+02 -0.17425752744E+02  0.23932555988E+03  0.00000000000E+00 0.  1.
          3    1    3    3  501    0  0.21416234784E+03 -0.38879403475E+02 -0.46692737168E+02  0.22261475906E+03  0.00000000000E+00 0.  1.
         21    1    1    2  502  501  0.13820261041E+02 -0.31810035644E+02  0.13150919374E+02  0.37092110527E+02  0.00000000000E+00 0. -1.
<scales pt_clust_4="550.00000" pt_clust_5="550.00000" pt_clust_6="34.68253"></scales>
<mgrwt>
<rscale>  0 0.30000000E+03</rscale>
<asrwt>  1 0.34682531E+02</asrwt>
<pdfrwt beam="1">  1        1 0.81466338E+00 0.30000000E+03</pdfrwt>
<pdfrwt beam="2">0</pdfrwt>
<totfact> 0.80240591E-04</totfact>
</mgrwt>
<clustering>
<clus scale="   34.683">  1  6  2 -1</clus>
<clus scale="  456.152">  4  5 -1 -1</clus>
<clus scale="  300.000">  1  4  2 -1</clus>
</clustering>
</event>
<event>
 6    1  0.9462926E-012  0.3000000E+03  0.7818608E-02  0.1093470E+00
          1   -1    0    0  502    0  0.00000000000E+00  0.00000000000E+00  0.22286650680E+03  0.22286650680E+03  0.00000000000E+00 0.  1.
         13   -1    0    0    0    0 -0.00000000000E+00 -0.00000000000E+00 -0.27500000000E+03  0.27500000000E+03  0.00000000000E+00 0.  1.
    9000005    2    1    2  501    0  0.16047707019E+02  0.32903376766E+02 -0.56534201736E+02  0.46099473794E+03  0.45604810200E+03 0.  0.
         13    1    3    3    0    0  0.20272005919E+03  0.10844172660E+03  0.46854478036E+02  0.23462815811E+03  0.00000000000E+00 0.  1.
          1    1    3    3  501    0 -0.18667235217E+03 -0.75538349831E+02 -0.10338867977E+03  0.22636657983E+03  0.00000000000E+00 0.  1.
         21    1    1    2  502  501 -0.16047707019E+02 -0.32903376766E+02  0.44007085347E+01  0.36871768859E+02  0.00000000000E+00 0. -1.
<scales pt_clust_4="550.00000" pt_clust_5="550.00000" pt_clust_6="36.60821"></scales>
<mgrwt>
<rscale>  0 0.30000000E+03</rscale>
<asrwt>  1 0.36608211E+02</asrwt>
<pdfrwt beam="1">  1        1 0.81042366E+00 0.30000000E+03</pdfrwt>
<pdfrwt beam="2">0</pdfrwt>
<totfact> 0.85831580E-04</totfact>
</mgrwt>
<clustering>
<clus scale="   36.608">  1  6  2 -1</clus>
<clus scale="  456.048">  4  5 -1 -1</clus>
<clus scale="  300.000">  1  4  2 -1</clus>
</clustering>
</event>
<event>
 6    1  0.9462926E-012  0.3000000E+03  0.7818608E-02  0.1093470E+00
          1   -1    0    0  502    0  0.00000000000E+00  0.00000000000E+00  0.24690466456E+03  0.24690466456E+03  0.00000000000E+00 0.  1.
         13   -1    0    0    0    0 -0.00000000000E+00 -0.00000000000E+00 -0.27500000000E+03  0.27500000000E+03  0.00000000000E+00 0.  1.
    9000005    2    1    2  501    0  0.17885598331E+01  0.31703361453E+02 -0.54971797160E+02  0.48030362769E+03  0.47608967035E+03 0.  0.
         13    1    3    3    0    0  0.18396915262E+03  0.12543055861E+03 -0.13495706049E+03  0.26036682262E+03  0.00000000000E+00 0.  1.
          1    1    3    3  501    0 -0.18218059279E+03 -0.93727197155E+02  0.79985263327E+02  0.21993680507E+03  0.00000000000E+00 0.  1.
         21    1    1    2  502  501 -0.17885598331E+01 -0.31703361453E+02  0.26876461716E+02  0.41601036863E+02  0.00000000000E+00 0. -1.
<scales pt_clust_4="550.00000" pt_clust_5="550.00000" pt_clust_6="31.75377"></scales>
<mgrwt>
<rscale>  0 0.30000000E+03</rscale>
<asrwt>  1 0.31753773E+02</asrwt>
<pdfrwt beam="1">  1        1 0.89783514E+00 0.30000000E+03</pdfrwt>
<pdfrwt beam="2">0</pdfrwt>
<totfact> 0.11936824E-04</totfact>
</mgrwt>
<clustering>
<clus scale="   31.754">  1  6  2 -1</clus>
<clus scale="  476.090">  4  5 -1 -1</clus>
<clus scale="  300.000">  1  4  2 -1</clus>
</clustering>
</event>
<event>
 6    1  0.9462926E-012  0.3000000E+03  0.7818608E-02  0.1093470E+00
          1   -1    0    0  502    0  0.00000000000E+00  0.00000000000E+00  0.25927557712E+03  0.25927557712E+03  0.00000000000E+00 0.  1.
         13   -1    0    0    0    0 -0.00000000000E+00 -0.00000000000E+00 -0.27500000000E+03  0.27500000000E+03  0.00000000000E+00 0.  1.
    9000005    2    1    2  501    0 -0.16702230051E+02  0.44017138573E+02 -0.66374446074E+02  0.46512430941E+03  0.45795041558E+03 0.  0.
         13    1    3    3    0    0 -0.32733789864E+02 -0.12832872250E+03  0.14204150483E+03  0.19420492041E+03  0.00000000000E+00 0.  1.
          3    1    3    3  501    0  0.16031559813E+02  0.17234586107E+03 -0.20841595091E+03  0.27091938899E+03  0.00000000000E+00 0.  1.
         21    1    1    2  502  501  0.16702230051E+02 -0.44017138573E+02  0.50650023196E+02  0.69151267715E+02  0.00000000000E+00 0.  1.
<scales pt_clust_4="550.00000" pt_clust_5="550.00000" pt_clust_6="47.07943"></scales>
<mgrwt>
<rscale>  0 0.30000000E+03</rscale>
<asrwt>  1 0.47079433E+02</asrwt>
<pdfrwt beam="1">  1        1 0.94282028E+00 0.30000000E+03</pdfrwt>
<pdfrwt beam="2">0</pdfrwt>
<totfact> 0.16190212E-05</totfact>
</mgrwt>
<clustering>
<clus scale="   47.079">  1  6  2 -1</clus>
<clus scale="  457.950">  4  5 -1 -1</clus>
<clus scale="  300.000">  1  4  2 -1</clus>
</clustering>
</event>
<event>
 6    1  0.9462926E-012  0.3000000E+03  0.7818608E-02  0.1093470E+00
          1   -1    0    0  502    0  0.00000000000E+00  0.00000000000E+00  0.24877885581E+03  0.24877885581E+03  0.00000000000E+00 0.  1.
         13   -1    0    0    0    0 -0.00000000000E+00 -0.00000000000E+00 -0.27500000000E+03  0.27500000000E+03  0.00000000000E+00 0.  1.
    9000005    2    1    2  501    0 -0.10148238668E+02  0.38603830418E+02 -0.61202601050E+02  0.47070395784E+03  0.46499808072E+03 0.  0.
         13    1    3    3    0    0  0.11956684959E+03 -0.48215145129E+01  0.16651880275E+03  0.20505606597E+03  0.00000000000E+00 0.  1.
          3    1    3    3  501    0 -0.12971508826E+03  0.43425344931E+02 -0.22772140380E+03  0.26564789186E+03  0.00000000000E+00 0.  1.
         21    1    1    2  502  501  0.10148238668E+02 -0.38603830418E+02  0.34981456863E+02  0.53074897977E+02  0.00000000000E+00 0. -1.
<scales pt_clust_4="550.00000" pt_clust_5="550.00000" pt_clust_6="39.91544"></scales>
<mgrwt>
<rscale>  0 0.30000000E+03</rscale>
<asrwt>  1 0.39915442E+02</asrwt>
<pdfrwt beam="1">  1        1 0.90465038E+00 0.30000000E+03</pdfrwt>
<pdfrwt beam="2">0</pdfrwt>
<totfact> 0.91612372E-05</totfact>
</mgrwt>
<clustering>
<clus scale="   39.915">  1  6  2 -1</clus>
<clus scale="  464.998">  4  5 -1 -1</clus>
<clus scale="  300.000">  1  4  2 -1</clus>
</clustering>
</event>
<event>
 6    1  0.9462926E-012  0.3000000E+03  0.7818608E-02  0.1093470E+00
          1   -1    0    0  502    0  0.00000000000E+00  0.00000000000E+00  0.23359611802E+03  0.23359611802E+03  0.00000000000E+00 0.  1.
         13   -1    0    0    0    0 -0.00000000000E+00 -0.00000000000E+00 -0.27500000000E+03  0.27500000000E+03  0.00000000000E+00 0.  1.
    9000005    2    1    2  501    0  0.35422787786E+02 -0.21226984342E+02 -0.56788630598E+02  0.46452743017E+03  0.45918996729E+03 0.  0.
         13    1    3    3    0    0  0.79850738752E+02  0.20449624416E+03 -0.79203909032E+02  0.23338404736E+03  0.00000000000E+00 0.  1.
          3    1    3    3  501    0 -0.44427950966E+02 -0.22572322850E+03  0.22415278433E+02  0.23114338282E+03  0.00000000000E+00 0.  1.
         21    1    1    2  502  501 -0.35422787786E+02  0.21226984342E+02  0.15384748622E+02  0.44068687852E+02  0.00000000000E+00 0.  1.
<scales pt_clust_4="550.00000" pt_clust_5="550.00000" pt_clust_6="41.29599"></scales>
<mgrwt>
<rscale>  0 0.30000000E+03</rscale>
<asrwt>  1 0.41295990E+02</asrwt>
<pdfrwt beam="1">  1        1 0.84944043E+00 0.30000000E+03</pdfrwt>
<pdfrwt beam="2">0</pdfrwt>
<totfact> 0.39955850E-04</totfact>
</mgrwt>
<clustering>
<clus scale="   41.296">  1  6  2 -1</clus>
<clus scale="  459.190">  4  5 -1 -1</clus>
<clus scale="  300.000">  1  4  2 -1</clus>
</clustering>
</event>
<event>
 6    1  0.9462926E-012  0.3000000E+03  0.7818608E-02  0.1093470E+00
          1   -1    0    0  502    0  0.00000000000E+00  0.00000000000E+00  0.25590170308E+03  0.25590170308E+03  0.00000000000E+00 0.  1.
         13   -1    0    0    0    0 -0.00000000000E+00 -0.00000000000E+00 -0.27500000000E+03  0.27500000000E+03  0.00000000000E+00 0.  1.
    9000005    2    1    2  501    0  0.39049134621E+02  0.83612468200E+00 -0.73018245559E+02  0.46432171449E+03  0.45687794469E+03 0.  0.
         13    1    3    3    0    0 -0.26926133099E+02  0.20190688186E+03  0.62455593968E+02  0.21305423442E+03  0.00000000000E+00 0.  1.
          1    1    3    3  501    0  0.65975267720E+02 -0.20107075718E+03 -0.13547383953E+03  0.25126748007E+03  0.00000000000E+00 0.  1.
         21    1    1    2  502  501 -0.39049134621E+02 -0.83612468200E+00  0.53919948643E+02  0.66579988591E+02  0.00000000000E+00 0. -1.
<scales pt_clust_4="550.00000" pt_clust_5="550.00000" pt_clust_6="39.05809"></scales>
<mgrwt>
<rscale>  0 0.30000000E+03</rscale>
<asrwt>  1 0.39058085E+02</asrwt>
<pdfrwt beam="1">  1        1 0.93055165E+00 0.30000000E+03</pdfrwt>
<pdfrwt beam="2">0</pdfrwt>
<totfact> 0.25259699E-05</totfact>
</mgrwt>
<clustering>
<clus scale="   39.058">  1  6  2 -1</clus>
<clus scale="  456.878">  4  5 -1 -1</clus>
<clus scale="  300.000">  1  4  2 -1</clus>
</clustering>
</event>
<event>
 6    1  0.9462926E-012  0.3000000E+03  0.7818608E-02  0.1093470E+00
          1   -1    0    0  502    0  0.00000000000E+00  0.00000000000E+00  0.24281049561E+03  0.24281049561E+03  0.00000000000E+00 0.  1.
         13   -1    0    0    0    0 -0.00000000000E+00 -0.00000000000E+00 -0.27500000000E+03  0.27500000000E+03  0.00000000000E+00 0.  1.
    9000005    2    1    2  501    0 -0.18759058234E+02 -0.26398832098E+02 -0.43972902413E+02  0.48334821085E+03  0.48025313761E+03 0.  0.
         13    1    3    3    0    0 -0.12503223672E+02 -0.23712485433E+03 -0.11101820338E+03  0.26212510109E+03  0.00000000000E+00 0.  1.
          1    1    3    3  501    0 -0.62558345613E+01  0.21072602223E+03  0.67045300965E+02  0.22122310976E+03  0.00000000000E+00 0.  1.
         21    1    1    2  502  501  0.18759058234E+02  0.26398832098E+02  0.11783398026E+02  0.34462284761E+02  0.00000000000E+00 0.  1.
<scales pt_clust_4="550.00000" pt_clust_5="550.00000" pt_clust_6="32.38519"></scales>
<mgrwt>
<rscale>  0 0.30000000E+03</rscale>
<asrwt>  1 0.32385191E+02</asrwt>
<pdfrwt beam="1">  1        1 0.88294726E+00 0.30000000E+03</pdfrwt>
<pdfrwt beam="2">0</pdfrwt>
<totfact> 0.18357067E-04</totfact>
</mgrwt>
<clustering>
<clus scale="   32.385">  1  6  2 -1</clus>
<clus scale="  480.253">  4  5 -1 -1</clus>
<clus scale="  300.000">  1  4  2 -1</clus>
</clustering>
</event>
<event>
 6    1  0.9462926E-012  0.3000000E+03  0.7818608E-02  0.1093470E+00
          1   -1    0    0  502    0  0.00000000000E+00  0.00000000000E+00  0.23691414843E+03  0.23691414843E+03  0.00000000000E+00 0.  1.
         13   -1    0    0    0    0 -0.00000000000E+00 -0.00000000000E+00 -0.27500000000E+03  0.27500000000E+03  0.00000000000E+00 0.  1.
    9000005    2    1    2  501    0  0.24391857458E+02  0.26946658130E+02 -0.47534565264E+02  0.47435934468E+03  0.47057004568E+03 0.  0.
         13    1    3    3    0    0  0.17015534495E+03 -0.16197035683E+02  0.14840858825E+03  0.22636319146E+03  0.00000000000E+00 0.  1.
          1    1    3    3  501    0 -0.14576348749E+03  0.43143693813E+02 -0.19594315352E+03  0.24799615322E+03  0.00000000000E+00 0.  1.
         21    1    1    2  502  501 -0.24391857458E+02 -0.26946658130E+02  0.94487136965E+01  0.37554803756E+02  0.00000000000E+00 0.  1.
<scales pt_clust_4="550.00000" pt_clust_5="550.00000" pt_clust_6="36.34673"></scales>
<mgrwt>
<rscale>  0 0.30000000E+03</rscale>
<asrwt>  1 0.36346734E+02</asrwt>
<pdfrwt beam="1">  1        1 0.86150599E+00 0.30000000E+03</pdfrwt>
<pdfrwt beam="2">0</pdfrwt>
<totfact> 0.30946419E-04</totfact>
</mgrwt>
<clustering>
<clus scale="   36.347">  1  6  2 -1</clus>
<clus scale="  470.570">  4  5 -1 -1</clus>
<clus scale="  300.000">  1  4  2 -1</clus>
</clustering>
</event>
<event>
 6    1  0.9462926E-012  0.3000000E+03  0.7818608E-02  0.1093470E+00
          1   -1    0    0  502    0  0.00000000000E+00  0.00000000000E+00  0.24402995784E+03  0.24402995784E+03  0.00000000000E+00 0.  1.
         13   -1    0    0    0    0 -0.00000000000E+00 -0.00000000000E+00 -0.27500000000E+03  0.27500000000E+03  0.00000000000E+00 0.  1.
    9000005    2    1    2  501    0  0.73834685547E+01 -0.32746397250E+02 -0.63996816193E+02  0.47193845177E+03  0.46637267034E+03 0.  0.
         13    1    3    3    0    0  0.23475128965E+03 -0.72298837884E+01 -0.19159219888E+01  0.23487041101E+03  0.00000000000E+00 0.  1.
          1    1    3    3  501    0 -0.22736782109E+03 -0.25516513461E+02 -0.62080894204E+02  0.23706804076E+03  0.00000000000E+00 0.  1.
         21    1    1    2  502  501 -0.73834685547E+01  0.32746397250E+02  0.33026774034E+02  0.47091506069E+02  0.00000000000E+00 0.  1.
<scales pt_clust_4="550.00000" pt_clust_5="550.00000" pt_clust_6="33.56847"></scales>
<mgrwt>
<rscale>  0 0.30000000E+03</rscale>
<asrwt>  1 0.33568469E+02</asrwt>
<pdfrwt beam="1">  1        1 0.88738166E+00 0.30000000E+03</pdfrwt>
<pdfrwt beam="2">0</pdfrwt>
<totfact> 0.15858948E-04</totfact>
</mgrwt>
<clustering>
<clus scale="   33.568">  1  6  2 -1</clus>
<clus scale="  466.373">  4  5 -1 -1</clus>
<clus scale="  300.000">  1  4  2 -1</clus>
</clustering>
</event>
<event>
 6    1  0.9462926E-012  0.3000000E+03  0.7818608E-02  0.1093470E+00
          1   -1    0    0  502    0  0.00000000000E+00  0.00000000000E+00  0.25326891487E+03  0.25326891487E+03  0.00000000000E+00 0.  1.
         13   -1    0    0    0    0 -0.00000000000E+00 -0.00000000000E+00 -0.27500000000E+03  0.27500000000E+03  0.00000000000E+00 0.  1.
    9000005    2    1    2  501    0  0.21394602706E+02 -0.24528831730E+02  0.56026406656E+01  0.48576567762E+03  0.48464163189E+03 0.  0.
         13    1    3    3    0    0 -0.45022522299E+02 -0.88336833639E+02 -0.22042295295E+03  0.24169547344E+03  0.00000000000E+00 0.  1.
          1    1    3    3  501    0  0.66417125005E+02  0.63808001909E+02  0.22602559362E+03  0.24407020419E+03  0.00000000000E+00 0.  1.
         21    1    1    2  502  501 -0.21394602706E+02  0.24528831730E+02 -0.27333725793E+02  0.42503237250E+02  0.00000000000E+00 0. -1.
<scales pt_clust_4="550.00000" pt_clust_5="550.00000" pt_clust_6="32.54833"></scales>
<mgrwt>
<rscale>  0 0.30000000E+03</rscale>
<asrwt>  1 0.32548328E+02</asrwt>
<pdfrwt beam="1">  1        1 0.92097787E+00 0.30000000E+03</pdfrwt>
<pdfrwt beam="2">0</pdfrwt>
<totfact> 0.40367443E-05</totfact>
</mgrwt>
<clustering>
<clus scale="   32.548">  1  6  2 -1</clus>
<clus scale="  484.642">  4  5 -1 -1</clus>
<clus scale="  300.000">  1  4  2 -1</clus>
</clustering>
</event>
<event>
 6    1  0.9462926E-012  0.3000000E+03  0.7818608E-02  0.1093470E+00
          1   -1    0    0  502    0  0.00000000000E+00  0.00000000000E+00  0.24193626958E+03  0.24193626958E+03  0.00000000000E+00 0.  1.
         13   -1    0    0    0    0 -0.00000000000E+00 -0.00000000000E+00 -0.27500000000E+03  0.27500000000E+03  0.00000000000E+00 0.  1.
    9000005    2    1    2  501    0 -0.61666128983E+01 -0.39988233265E+02 -0.61509305545E+02  0.46747682499E+03  0.46164282874E+03 0.  0.
         13    1    3    3    0    0 -0.14558803377E+03 -0.20204637847E+03 -0.21246956756E+02  0.24994008843E+03  0.00000000000E+00 0.  1.
          1    1    3    3  501    0  0.13942142087E+03  0.16205814521E+03 -0.40262348789E+02  0.21753673657E+03  0.00000000000E+00 0.  1.
         21    1    1    2  502  501  0.61666128983E+01  0.39988233265E+02  0.28445575122E+02  0.49459444582E+02  0.00000000000E+00 0.  1.
<scales pt_clust_4="550.00000" pt_clust_5="550.00000" pt_clust_6="40.46092"></scales>
<mgrwt>
<rscale>  0 0.30000000E+03</rscale>
<asrwt>  1 0.40460918E+02</asrwt>
<pdfrwt beam="1">  1        1 0.87976825E+00 0.30000000E+03</pdfrwt>
<pdfrwt beam="2">0</pdfrwt>
<totfact> 0.19342859E-04</totfact>
</mgrwt>
<clustering>
<clus scale="   40.461">  1  6  2 -1</clus>
<clus scale="  461.643">  4  5 -1 -1</clus>
<clus scale="  300.000">  1  4  2 -1</clus>
</clustering>
</event>
<event>
 6    1  0.9462926E-012  0.3000000E+03  0.7818608E-02  0.1093470E+00
          1   -1    0    0  502    0  0.00000000000E+00  0.00000000000E+00  0.24579826798E+03  0.24579826798E+03  0.00000000000E+00 0.  1.
         13   -1    0    0    0    0 -0.00000000000E+00 -0.00000000000E+00 -0.27500000000E+03  0.27500000000E+03  0.00000000000E+00 0.  1.
    9000005    2    1    2  501    0 -0.25388656528E+02 -0.30523376862E+02 -0.36345868548E+02  0.48045847247E+03  0.47743382912E+03 0.  0.
         13    1    3    3    0    0 -0.33428370896E+02  0.22296903391E+03 -0.16636566800E+02  0.22607392910E+03  0.00000000000E+00 0.  1.
          3    1    3    3  501    0  0.80397143687E+01 -0.25349241078E+03 -0.19709301748E+02  0.25438454337E+03  0.00000000000E+00 0.  1.
         21    1    1    2  502  501  0.25388656528E+02  0.30523376862E+02  0.71441365309E+01  0.40339795514E+02  0.00000000000E+00 0.  1.
<scales pt_clust_4="550.00000" pt_clust_5="550.00000" pt_clust_6="39.70215"></scales>
<mgrwt>
<rscale>  0 0.30000000E+03</rscale>
<asrwt>  1 0.39702146E+02</asrwt>
<pdfrwt beam="1">  1        1 0.89381188E+00 0.30000000E+03</pdfrwt>
<pdfrwt beam="2">0</pdfrwt>
<totfact> 0.12706941E-04</totfact>
</mgrwt>
<clustering>
<clus scale="   39.702">  1  6  2 -1</clus>
<clus scale="  477.434">  4  5 -1 -1</clus>
<clus scale="  300.000">  1  4  2 -1</clus>
</clustering>
</event>
<event>
 6    1  0.9462926E-012  0.3000000E+03  0.7818608E-02  0.1093470E+00
          1   -1    0    0  502    0  0.00000000000E+00  0.00000000000E+00  0.22488590511E+03  0.22488590511E+03  0.00000000000E+00 0.  1.
         13   -1    0    0    0    0 -0.00000000000E+00 -0.00000000000E+00 -0.27500000000E+03  0.27500000000E+03  0.00000000000E+00 0.  1.
    9000005    2    1    2  501    0  0.30598701480E+02 -0.12002218780E+02 -0.37027390304E+02  0.46450800771E+03  0.46186180596E+03 0.  0.
         13    1    3    3    0    0  0.23304610597E+03 -0.83445163662E+01  0.58802906519E+02  0.24049511487E+03  0.00000000000E+00 0.  1.
          1    1    3    3  501    0 -0.20244740449E+03 -0.36577024134E+01 -0.95830296822E+02  0.22401289284E+03  0.00000000000E+00 0.  1.
         21    1    1    2  502  501 -0.30598701480E+02  0.12002218780E+02 -0.13086704585E+02  0.35377897405E+02  0.00000000000E+00 0.  1.
<scales pt_clust_4="550.00000" pt_clust_5="550.00000" pt_clust_6="32.86845"></scales>
<mgrwt>
<rscale>  0 0.30000000E+03</rscale>
<asrwt>  1 0.32868448E+02</asrwt>
<pdfrwt beam="1">  1        1 0.81776693E+00 0.30000000E+03</pdfrwt>
<pdfrwt beam="2">0</pdfrwt>
<totfact> 0.76457435E-04</totfact>
</mgrwt>
<clustering>
<clus scale="   32.868">  1  6  2 -1</clus>
<clus scale="  461.862">  4  5 -1 -1</clus>
<clus scale="  300.000">  1  4  2 -1</clus>
</clustering>
</event>
<event>
 6    1  0.9462926E-012  0.3000000E+03  0.7818608E-02  0.1093470E+00
          1   -1    0    0  502    0  0.00000000000E+00  0.00000000000E+00  0.22458644015E+03  0.22458644015E+03  0.00000000000E+00 0.  1.
         13   -1    0    0    0    0 -0.00000000000E+00 -0.00000000000E+00 -0.27500000000E+03  0.27500000000E+03  0.00000000000E+00 0.  1.
    9000005    2    1    2  501    0 -0.70302918626E+01  0.31778869087E+02 -0.56168951535E+02  0.46653426840E+03  0.46199561789E+03 0.  0.
         13    1    3    3    0    0  0.53207513287E+02  0.19845426908E+03 -0.16064039727E+03  0.26080734963E+03  0.00000000000E+00 0.  1.
          1    1    3    3  501    0 -0.60237805150E+02 -0.16667539999E+03  0.10447144574E+03  0.20572691877E+03  0.00000000000E+00 0.  1.
         21    1    1    2  502  501  0.70302918626E+01 -0.31778869087E+02  0.57553916850E+01  0.33052171752E+02  0.00000000000E+00 0. -1.
<scales pt_clust_4="550.00000" pt_clust_5="550.00000" pt_clust_6="32.54722"></scales>
<mgrwt>
<rscale>  0 0.30000000E+03</rscale>
<asrwt>  1 0.32547220E+02</asrwt>
<pdfrwt beam="1">  1        1 0.81667796E+00 0.30000000E+03</pdfrwt>
<pdfrwt beam="2">0</pdfrwt>
<totfact> 0.78201178E-04</totfact>
</mgrwt>
<clustering>
<clus scale="   32.547">  1  6  2 -1</clus>
<clus scale="  461.996">  4  5 -1 -1</clus>
<clus scale="  300.000">  1  4  2 -1</clus>
</clustering>
</event>
<event>
 6    1  0.9462926E-012  0.3000000E+03  0.7818608E-02  0.1093470E+00
          1   -1    0    0  502    0  0.00000000000E+00  0.00000000000E+00  0.25914477529E+03  0.25914477529E+03  0.00000000000E+00 0.  1.
         13   -1    0    0    0    0 -0.00000000000E+00 -0.00000000000E+00 -0.27500000000E+03  0.27500000000E+03  0.00000000000E+00 0.  1.
    9000005    2    1    2  501    0  0.30455932873E+02  0.46466323352E+01 -0.58338514129E+02  0.48166635192E+03  0.47712675182E+03 0.  0.
         13    1    3    3    0    0 -0.70395655253E+02  0.11929006711E+03 -0.21956981256E+03  0.25960849559E+03  0.00000000000E+00 0.  1.
          3    1    3    3  501    0  0.10085158813E+03 -0.11464343478E+03  0.16123129844E+03  0.22205785634E+03  0.00000000000E+00 0.  1.
         21    1    1    2  502  501 -0.30455932873E+02 -0.46466323352E+01  0.42483289418E+02  0.52478423366E+02  0.00000000000E+00 0. -1.
<scales pt_clust_4="550.00000" pt_clust_5="550.00000" pt_clust_6="30.80836"></scales>
<mgrwt>
<rscale>  0 0.30000000E+03</rscale>
<asrwt>  1 0.30808360E+02</asrwt>
<pdfrwt beam="1">  1        1 0.94234464E+00 0.30000000E+03</pdfrwt>
<pdfrwt beam="2">0</pdfrwt>
<totfact> 0.17858151E-05</totfact>
</mgrwt>
<clustering>
<clus scale="   30.808">  1  6  2 -1</clus>
<clus scale="  477.127">  4  5 -1 -1</clus>
<clus scale="  300.000">  1  4  2 -1</clus>
</clustering>
</event>
<event>
 6    1  0.9462926E-012  0.3000000E+03  0.7818608E-02  0.1093470E+00
          1   -1    0    0  502    0  0.00000000000E+00  0.00000000000E+00  0.25470312229E+03  0.25470312229E+03  0.00000000000E+00 0.  1.
         13   -1    0    0    0    0 -0.00000000000E+00 -0.00000000000E+00 -0.27500000000E+03  0.27500000000E+03  0.00000000000E+00 0.  1.
    9000005    2    1    2  501    0  0.30400286638E+02  0.13491237750E+02 -0.54771272348E+02  0.48180035818E+03  0.47752015868E+03 0.  0.
         13    1    3    3    0    0  0.48916719461E+02  0.22124533683E+03 -0.12860412339E+03  0.26054052481E+03  0.00000000000E+00 0.  1.
          3    1    3    3  501    0 -0.18516432823E+02 -0.20775409908E+03  0.73832851044E+02  0.22125983337E+03  0.00000000000E+00 0.  1.
         21    1    1    2  502  501 -0.30400286638E+02 -0.13491237750E+02  0.34474394642E+02  0.47902764113E+02  0.00000000000E+00 0.  1.
<scales pt_clust_4="550.00000" pt_clust_5="550.00000" pt_clust_6="33.25945"></scales>
<mgrwt>
<rscale>  0 0.30000000E+03</rscale>
<asrwt>  1 0.33259449E+02</asrwt>
<pdfrwt beam="1">  1        1 0.92619317E+00 0.30000000E+03</pdfrwt>
<pdfrwt beam="2">0</pdfrwt>
<totfact> 0.31287536E-05</totfact>
</mgrwt>
<clustering>
<clus scale="   33.259">  1  6  2 -1</clus>
<clus scale="  477.520">  4  5 -1 -1</clus>
<clus scale="  300.000">  1  4  2 -1</clus>
</clustering>
</event>
<event>
 6    1  0.9462926E-012  0.3000000E+03  0.7818608E-02  0.1093470E+00
          1   -1    0    0  502    0  0.00000000000E+00  0.00000000000E+00  0.22581406860E+03  0.22581406860E+03  0.00000000000E+00 0.  1.
         13   -1    0    0    0    0 -0.00000000000E+00 -0.00000000000E+00 -0.27500000000E+03  0.27500000000E+03  0.00000000000E+00 0.  1.
    9000005    2    1    2  501    0  0.24932828594E+02  0.21037483464E+02 -0.40975179902E+02  0.46717423964E+03  0.46422902017E+03 0.  0.
         13    1    3    3    0    0 -0.19271331076E+03  0.11878534521E+03 -0.29681419801E+02  0.22831856048E+03  0.00000000000E+00 0.  1.
          1    1    3    3  501    0  0.21764613935E+03 -0.97747861742E+02 -0.11293760101E+02  0.23885567916E+03  0.00000000000E+00 0.  1.
         21    1    1    2  502  501 -0.24932828594E+02 -0.21037483464E+02 -0.82107514967E+01  0.33639828958E+02  0.00000000000E+00 0.  1.
<scales pt_clust_4="550.00000" pt_clust_5="550.00000" pt_clust_6="32.62243"></scales>
<mgrwt>
<rscale>  0 0.30000000E+03</rscale>
<asrwt>  1 0.32622427E+02</asrwt>
<pdfrwt beam="1">  1        1 0.82114207E+00 0.30000000E+03</pdfrwt>
<pdfrwt beam="2">0</pdfrwt>
<totfact> 0.71630717E-04</totfact>
</mgrwt>
<clustering>
<clus scale="   32.622">  1  6  2 -1</clus>
<clus scale="  464.229">  4  5 -1 -1</clus>
<clus scale="  300.000">  1  4  2 -1</clus>
</clustering>
</event>
<event>
 6    1  0.9462926E-012  0.3000000E+03  0.7818608E-02  0.1093470E+00
          1   -1    0    0  502    0  0.00000000000E+00  0.00000000000E+00  0.23323632396E+03  0.23323632396E+03  0.00000000000E+00 0.  1.
         13   -1    0    0    0    0 -0.00000000000E+00 -0.00000000000E+00 -0.27500000000E+03  0.27500000000E+03  0.00000000000E+00 0.  1.
    9000005    2    1    2  501    0  0.28589016952E+02  0.19820967509E+02 -0.44308910261E+02  0.47335537127E+03  0.46999130347E+03 0.  0.
         13    1    3    3    0    0 -0.10224261318E+03 -0.17225347163E+03  0.72782842406E+02  0.21312473480E+03  0.00000000000E+00 0.  1.
          3    1    3    3  501    0  0.13083163013E+03  0.19207443914E+03 -0.11709175267E+03  0.26023063646E+03  0.00000000000E+00 0.  1.
         21    1    1    2  502  501 -0.28589016952E+02 -0.19820967509E+02  0.25452342182E+01  0.34880952689E+02  0.00000000000E+00 0.  1.
<scales pt_clust_4="550.00000" pt_clust_5="550.00000" pt_clust_6="34.78797"></scales>
<mgrwt>
<rscale>  0 0.30000000E+03</rscale>
<asrwt>  1 0.34787967E+02</asrwt>
<pdfrwt beam="1">  1        1 0.84813209E+00 0.30000000E+03</pdfrwt>
<pdfrwt beam="2">0</pdfrwt>
<totfact> 0.42403753E-04</totfact>
</mgrwt>
<clustering>
<clus scale="   34.788">  1  6  2 -1</clus>
<clus scale="  469.991">  4  5 -1 -1</clus>
<clus scale="  300.000">  1  4  2 -1</clus>
</clustering>
</event>
<event>
 6    1  0.9462926E-012  0.3000000E+03  0.7818608E-02  0.1093470E+00
          1   -1    0    0  502    0  0.00000000000E+00  0.00000000000E+00  0.22854029969E+03  0.22854029969E+03  0.00000000000E+00 0.  1.
         13   -1    0    0    0    0 -0.00000000000E+00 -0.00000000000E+00 -0.27500000000E+03  0.27500000000E+03  0.00000000000E+00 0.  1.
    9000005    2    1    2  501    0  0.98292923334E+01 -0.34537657847E+02 -0.45368149989E+02  0.46761459470E+03  0.46402120139E+03 0.  0.
         13    1    3    3    0    0  0.14283922826E+03 -0.18149114815E+03 -0.11438568524E+03  0.25773274331E+03  0.00000000000E+00 0.  1.
          1    1    3    3  501    0 -0.13300993593E+03  0.14695349030E+03  0.69017535256E+02  0.20988185138E+03  0.00000000000E+00 0.  1.
         21    1    1    2  502  501 -0.98292923334E+01  0.34537657847E+02 -0.10915503172E+01  0.35925704996E+02  0.00000000000E+00 0.  1.
<scales pt_clust_4="550.00000" pt_clust_5="550.00000" pt_clust_6="35.90912"></scales>
<mgrwt>
<rscale>  0 0.30000000E+03</rscale>
<asrwt>  1 0.35909119E+02</asrwt>
<pdfrwt beam="1">  1        1 0.83105564E+00 0.30000000E+03</pdfrwt>
<pdfrwt beam="2">0</pdfrwt>
<totfact> 0.57672035E-04</totfact>
</mgrwt>
<clustering>
<clus scale="   35.909">  1  6  2 -1</clus>
<clus scale="  464.021">  4  5 -1 -1</clus>
<clus scale="  300.000">  1  4  2 -1</clus>
</clustering>
</event>
<event>
 6    1  0.9462926E-012  0.3000000E+03  0.7818608E-02  0.1093470E+00
          1   -1    0    0  502    0  0.00000000000E+00  0.00000000000E+00  0.22163588096E+03  0.22163588096E+03  0.00000000000E+00 0.  1.
         13   -1    0    0    0    0 -0.00000000000E+00 -0.00000000000E+00 -0.27500000000E+03  0.27500000000E+03  0.00000000000E+00 0.  1.
    9000005    2    1    2  501    0  0.17997230344E+02  0.28637667083E+02 -0.46157082334E+02  0.46205326027E+03  0.45849615353E+03 0.  0.
         13    1    3    3    0    0 -0.95295105063E+02 -0.84138398046E+02 -0.20208477429E+03  0.23874396971E+03  0.00000000000E+00 0.  1.
          1    1    3    3  501    0  0.11329233541E+03  0.11277606513E+03  0.15592769196E+03  0.22330929055E+03  0.00000000000E+00 0.  1.
         21    1    1    2  502  501 -0.17997230344E+02 -0.28637667083E+02 -0.72070367041E+01  0.34582620694E+02  0.00000000000E+00 0.  1.
<scales pt_clust_4="550.00000" pt_clust_5="550.00000" pt_clust_6="33.82333"></scales>
<mgrwt>
<rscale>  0 0.30000000E+03</rscale>
<asrwt>  1 0.33823327E+02</asrwt>
<pdfrwt beam="1">  1        1 0.80594866E+00 0.30000000E+03</pdfrwt>
<pdfrwt beam="2">0</pdfrwt>
<totfact> 0.94325632E-04</totfact>
</mgrwt>
<clustering>
<clus scale="   33.823">  1  6  2 -1</clus>
<clus scale="  458.496">  4  5 -1 -1</clus>
<clus scale="  300.000">  1  4  2 -1</clus>
</clustering>
</event>
<event>
 6    1  0.9462926E-012  0.3000000E+03  0.7818608E-02  0.1093470E+00
          1   -1    0    0  502    0  0.00000000000E+00  0.00000000000E+00  0.23010387938E+03  0.23010387938E+03  0.00000000000E+00 0.  1.
         13   -1    0    0    0    0 -0.00000000000E+00 -0.00000000000E+00 -0.27500000000E+03  0.27500000000E+03  0.00000000000E+00 0.  1.
    9000005    2    1    2  501    0 -0.81238006940E+01 -0.31745795552E+02 -0.35621320263E+02  0.47104784328E+03  0.46855458650E+03 0.  0.
         13    1    3    3    0    0  0.19268090371E+03 -0.13885875298E+03 -0.51090349754E+02  0.24293601580E+03  0.00000000000E+00 0.  1.
          1    1    3    3  501    0 -0.20080470441E+03  0.10711295743E+03  0.15469029491E+02  0.22811182748E+03  0.00000000000E+00 0.  1.
         21    1    1    2  502  501  0.81238006940E+01  0.31745795552E+02 -0.92748003615E+01  0.34056036097E+02  0.00000000000E+00 0. -1.
<scales pt_clust_4="550.00000" pt_clust_5="550.00000" pt_clust_6="32.76878"></scales>
<mgrwt>
<rscale>  0 0.30000000E+03</rscale>
<asrwt>  1 0.32768777E+02</asrwt>
<pdfrwt beam="1">  1        1 0.83674138E+00 0.30000000E+03</pdfrwt>
<pdfrwt beam="2">0</pdfrwt>
<totfact> 0.53201100E-04</totfact>
</mgrwt>
<clustering>
<clus scale="   32.769">  1  6  2 -1</clus>
<clus scale="  468.555">  4  5 -1 -1</clus>
<clus scale="  300.000">  1  4  2 -1</clus>
</clustering>
</event>
<event>
 6    1  0.9462926E-012  0.3000000E+03  0.7818608E-02  0.1093470E+00
          1   -1    0    0  502    0  0.00000000000E+00  0.00000000000E+00  0.23132135853E+03  0.23132135853E+03  0.00000000000E+00 0.  1.
         13   -1    0    0    0    0 -0.00000000000E+00 -0.00000000000E+00 -0.27500000000E+03  0.27500000000E+03  0.00000000000E+00 0.  1.
    9000005    2    1    2  501    0  0.19580867622E+02 -0.27621759871E+02 -0.61348635571E+02  0.46812972742E+03  0.46285571684E+03 0.  0.
         13    1    3    3    0    0 -0.12176095745E+03  0.14215466172E+03 -0.13988965073E+03  0.23367240528E+03  0.00000000000E+00 0.  1.
          3    1    3    3  501    0  0.14134182507E+03 -0.16977642160E+03  0.78541015156E+02  0.23445732214E+03  0.00000000000E+00 0.  1.
         21    1    1    2  502  501 -0.19580867622E+02  0.27621759871E+02  0.17669994096E+02  0.38191631107E+02  0.00000000000E+00 0.  1.
<scales pt_clust_4="550.00000" pt_clust_5="550.00000" pt_clust_6="33.85812"></scales>
<mgrwt>
<rscale>  0 0.30000000E+03</rscale>
<asrwt>  1 0.33858116E+02</asrwt>
<pdfrwt beam="1">  1        1 0.84116858E+00 0.30000000E+03</pdfrwt>
<pdfrwt beam="2">0</pdfrwt>
<totfact> 0.48972425E-04</totfact>
</mgrwt>
<clustering>
<clus scale="   33.858">  1  6  2 -1</clus>
<clus scale="  462.856">  4  5 -1 -1</clus>
<clus scale="  300.000">  1  4  2 -1</clus>
</clustering>
</event>
<event>
 6    1  0.9462926E-012  0.3000000E+03  0.7818608E-02  0.1093470E+00
          1   -1    0    0  502    0  0.00000000000E+00  0.00000000000E+00  0.23381896937E+03  0.23381896937E+03  0.00000000000E+00 0.  1.
         13   -1    0    0    0    0 -0.00000000000E+00 -0.00000000000E+00 -0.27500000000E+03  0.27500000000E+03  0.00000000000E+00 0.  1.
    9000005    2    1    2  501    0  0.19270281404E+02 -0.32920821478E+02 -0.48914884435E+02  0.46989678126E+03  0.46578449404E+03 0.  0.
         13    1    3    3    0    0  0.98429182168E+00  0.14982644857E+03  0.14097160342E+03  0.20572293623E+03  0.00000000000E+00 0.  1.
          1    1    3    3  501    0  0.18285989583E+02 -0.18274727005E+03 -0.18988648786E+03  0.26417384503E+03  0.00000000000E+00 0.  1.
         21    1    1    2  502  501 -0.19270281404E+02  0.32920821478E+02  0.77338538001E+01  0.38922188104E+02  0.00000000000E+00 0.  1.
<scales pt_clust_4="550.00000" pt_clust_5="550.00000" pt_clust_6="38.14609"></scales>
<mgrwt>
<rscale>  0 0.30000000E+03</rscale>
<asrwt>  1 0.38146091E+02</asrwt>
<pdfrwt beam="1">  1        1 0.85025080E+00 0.30000000E+03</pdfrwt>
<pdfrwt beam="2">0</pdfrwt>
<totfact> 0.39836944E-04</totfact>
</mgrwt>
<clustering>
<clus scale="   38.146">  1  6  2 -1</clus>
<clus scale="  465.784">  4  5 -1 -1</clus>
<clus scale="  300.000">  1  4  2 -1</clus>
</clustering>
</event>
<event>
 6    1  0.9462926E-012  0.3000000E+03  0.7818608E-02  0.1093470E+00
          1   -1    0    0  502    0  0.00000000000E+00  0.00000000000E+00  0.22789387492E+03  0.22789387492E+03  0.00000000000E+00 0.  1.
         13   -1    0    0    0    0 -0.00000000000E+00 -0.00000000000E+00 -0.27500000000E+03  0.27500000000E+03  0.00000000000E+00 0.  1.
    9000005    2    1    2  501    0 -0.29591469221E+02 -0.82940371094E+01 -0.60598434964E+02  0.46933067292E+03  0.46438633068E+03 0.  0.
         13    1    3    3    0    0  0.93407881519E+02  0.14857368852E+03  0.10986066004E+03  0.20704718756E+03  0.00000000000E+00 0.  1.
          1    1    3    3  501    0 -0.12299935074E+03 -0.15686772563E+03 -0.17045909501E+03  0.26228348537E+03  0.00000000000E+00 0.  1.
         21    1    1    2  502  501  0.29591469221E+02  0.82940371094E+01  0.13492309885E+02  0.33563201997E+02  0.00000000000E+00 0.  1.
<scales pt_clust_4="550.00000" pt_clust_5="550.00000" pt_clust_6="30.73184"></scales>
<mgrwt>
<rscale>  0 0.30000000E+03</rscale>
<asrwt>  1 0.30731842E+02</asrwt>
<pdfrwt beam="1">  1        1 0.82870500E+00 0.30000000E+03</pdfrwt>
<pdfrwt beam="2">0</pdfrwt>
<totfact> 0.62112724E-04</totfact>
</mgrwt>
<clustering>
<clus scale="   30.732">  1  6  2 -1</clus>
<clus scale="  464.386">  4  5 -1 -1</clus>
<clus scale="  300.000">  1  4  2 -1</clus>
</clustering>
</event>
<event>
 6    1  0.9462926E-012  0.3000000E+03  0.7818608E-02  0.1093470E+00
          1   -1    0    0  502    0  0.00000000000E+00  0.00000000000E+00  0.24896435509E+03  0.24896435509E+03  0.00000000000E+00 0.  1.
         13   -1    0    0    0    0 -0.00000000000E+00 -0.00000000000E+00 -0.27500000000E+03  0.27500000000E+03  0.00000000000E+00 0.  1.
    9000005    2    1    2  501    0  0.39662092012E+02  0.37199391861E+02 -0.27573046682E+02  0.46956545894E+03  0.46559056158E+03 0.  0.
         13    1    3    3    0    0 -0.11355030581E+03  0.15791201983E+03  0.11681793868E+03  0.22688391030E+03  0.00000000000E+00 0.  1.
          3    1    3    3  501    0  0.15321239782E+03 -0.12071262797E+03 -0.14439098537E+03  0.24268154864E+03  0.00000000000E+00 0.  1.
         21    1    1    2  502  501 -0.39662092012E+02 -0.37199391861E+02  0.15374017691E+01  0.54398896145E+02  0.00000000000E+00 0. -1.
<scales pt_clust_4="550.00000" pt_clust_5="550.00000" pt_clust_6="54.37717"></scales>
<mgrwt>
<rscale>  0 0.30000000E+03</rscale>
<asrwt>  1 0.54377167E+02</asrwt>
<pdfrwt beam="1">  1        1 0.90532493E+00 0.30000000E+03</pdfrwt>
<pdfrwt beam="2">0</pdfrwt>
<totfact> 0.84211496E-05</totfact>
</mgrwt>
<clustering>
<clus scale="   54.377">  1  6  2 -1</clus>
<clus scale="  465.591">  4  5 -1 -1</clus>
<clus scale="  300.000">  1  4  2 -1</clus>
</clustering>
</event>
<event>
 6    1  0.9462926E-012  0.3000000E+03  0.7818608E-02  0.1093470E+00
          1   -1    0    0  502    0  0.00000000000E+00  0.00000000000E+00  0.22997500593E+03  0.22997500593E+03  0.00000000000E+00 0.  1.
         13   -1    0    0    0    0 -0.00000000000E+00 -0.00000000000E+00 -0.27500000000E+03  0.27500000000E+03  0.00000000000E+00 0.  1.
    9000005    2    1    2  501    0 -0.32768122772E+02  0.29878543728E+01 -0.62432605150E+02  0.46774998656E+03  0.46239543963E+03 0.  0.
         13    1    3    3    0    0  0.61740111672E+02 -0.35856853338E+02 -0.24682236266E+03  0.25694130464E+03  0.00000000000E+00 0.  1.
          1    1    3    3  501    0 -0.94508234444E+02  0.38844707711E+02  0.18438975751E+03  0.21080868191E+03  0.00000000000E+00 0.  1.
         21    1    1    2  502  501  0.32768122772E+02 -0.29878543728E+01  0.17407611076E+02  0.37225019370E+02  0.00000000000E+00 0.  1.
<scales pt_clust_4="550.00000" pt_clust_5="550.00000" pt_clust_6="32.90406"></scales>
<mgrwt>
<rscale>  0 0.30000000E+03</rscale>
<asrwt>  1 0.32904060E+02</asrwt>
<pdfrwt beam="1">  1        1 0.83627275E+00 0.30000000E+03</pdfrwt>
<pdfrwt beam="2">0</pdfrwt>
<totfact> 0.53577447E-04</totfact>
</mgrwt>
<clustering>
<clus scale="   32.904">  1  6  2 -1</clus>
<clus scale="  462.395">  4  5 -1 -1</clus>
<clus scale="  300.000">  1  4  2 -1</clus>
</clustering>
</event>
<event>
 6    1  0.9462926E-012  0.3000000E+03  0.7818608E-02  0.1093470E+00
          1   -1    0    0  502    0  0.00000000000E+00  0.00000000000E+00  0.23996659988E+03  0.23996659988E+03  0.00000000000E+00 0.  1.
         13   -1    0    0    0    0 -0.00000000000E+00 -0.00000000000E+00 -0.27500000000E+03  0.27500000000E+03  0.00000000000E+00 0.  1.
    9000005    2    1    2  501    0  0.35854451735E+01  0.31493996314E+02 -0.47774495686E+02  0.48080429994E+03  0.47737369553E+03 0.  0.
         13    1    3    3    0    0  0.16736501476E+02 -0.70782018410E+02 -0.24645185532E+03  0.25696054483E+03  0.00000000000E+00 0.  1.
          3    1    3    3  501    0 -0.13151056302E+02  0.10227601472E+03  0.19867735963E+03  0.22384375511E+03  0.00000000000E+00 0.  1.
         21    1    1    2  502  501 -0.35854451735E+01 -0.31493996314E+02  0.12741095563E+02  0.34162299938E+02  0.00000000000E+00 0. -1.
<scales pt_clust_4="550.00000" pt_clust_5="550.00000" pt_clust_6="31.69743"></scales>
<mgrwt>
<rscale>  0 0.30000000E+03</rscale>
<asrwt>  1 0.31697432E+02</asrwt>
<pdfrwt beam="1">  1        1 0.87260582E+00 0.30000000E+03</pdfrwt>
<pdfrwt beam="2">0</pdfrwt>
<totfact> 0.24268915E-04</totfact>
</mgrwt>
<clustering>
<clus scale="   31.697">  1  6  2 -1</clus>
<clus scale="  477.374">  4  5 -1 -1</clus>
<clus scale="  300.000">  1  4  2 -1</clus>
</clustering>
</event>
<event>
 6    1  0.9462926E-012  0.3000000E+03  0.7818608E-02  0.1093470E+00
          1   -1    0    0  502    0  0.00000000000E+00  0.00000000000E+00  0.24045103404E+03  0.24045103404E+03  0.00000000000E+00 0.  1.
         13   -1    0    0    0    0 -0.00000000000E+00 -0.00000000000E+00 -0.27500000000E+03  0.27500000000E+03  0.00000000000E+00 0.  1.
    9000005    2    1    2  501    0  0.25500686918E+02 -0.19542141407E+02 -0.56673694007E+02  0.47644226688E+03  0.47196731428E+03 0.  0.
         13    1    3    3    0    0 -0.21162796950E+02 -0.15894207748E+03 -0.20987719944E+03  0.26411907696E+03  0.00000000000E+00 0.  1.
          3    1    3    3  501    0  0.46663483868E+02  0.13939993607E+03  0.15320350543E+03  0.21232318992E+03  0.00000000000E+00 0.  1.
         21    1    1    2  502  501 -0.25500686918E+02  0.19542141407E+02  0.22124728044E+02  0.39008767157E+02  0.00000000000E+00 0.  1.
<scales pt_clust_4="550.00000" pt_clust_5="550.00000" pt_clust_6="32.12756"></scales>
<mgrwt>
<rscale>  0 0.30000000E+03</rscale>
<asrwt>  1 0.32127563E+02</asrwt>
<pdfrwt beam="1">  1        1 0.87436740E+00 0.30000000E+03</pdfrwt>
<pdfrwt beam="2">0</pdfrwt>
<totfact> 0.23211765E-04</totfact>
</mgrwt>
<clustering>
<clus scale="   32.128">  1  6  2 -1</clus>
<clus scale="  471.967">  4  5 -1 -1</clus>
<clus scale="  300.000">  1  4  2 -1</clus>
</clustering>
</event>
<event>
 6    1  0.9462926E-012  0.3000000E+03  0.7818608E-02  0.1093470E+00
          1   -1    0    0  502    0  0.00000000000E+00  0.00000000000E+00  0.25288163513E+03  0.25288163513E+03  0.00000000000E+00 0.  1.
         13   -1    0    0    0    0 -0.00000000000E+00 -0.00000000000E+00 -0.27500000000E+03  0.27500000000E+03  0.00000000000E+00 0.  1.
    9000005    2    1    2  501    0  0.17350033572E+02 -0.33020209009E+02 -0.27879509392E+02  0.49013844165E+03  0.48792116891E+03 0.  0.
         13    1    3    3    0    0 -0.87249994661E+02  0.37817299304E+02 -0.23163695648E+03  0.25039646423E+03  0.00000000000E+00 0.  1.
          1    1    3    3  501    0  0.10460002823E+03 -0.70837508313E+02  0.20375744709E+03  0.23974197741E+03  0.00000000000E+00 0.  1.
         21    1    1    2  502  501 -0.17350033572E+02  0.33020209009E+02  0.57611445173E+01  0.37743193480E+02  0.00000000000E+00 0.  1.
<scales pt_clust_4="550.00000" pt_clust_5="550.00000" pt_clust_6="37.30091"></scales>
<mgrwt>
<rscale>  0 0.30000000E+03</rscale>
<asrwt>  1 0.37300910E+02</asrwt>
<pdfrwt beam="1">  1        1 0.91956958E+00 0.30000000E+03</pdfrwt>
<pdfrwt beam="2">0</pdfrwt>
<totfact> 0.42209131E-05</totfact>
</mgrwt>
<clustering>
<clus scale="   37.301">  1  6  2 -1</clus>
<clus scale="  487.921">  4  5 -1 -1</clus>
<clus scale="  300.000">  1  4  2 -1</clus>
</clustering>
</event>
<event>
 6    1  0.9462926E-012  0.3000000E+03  0.7818608E-02  0.1093470E+00
          1   -1    0    0  502    0  0.00000000000E+00  0.00000000000E+00  0.23943741772E+03  0.23943741772E+03  0.00000000000E+00 0.  1.
         13   -1    0    0    0    0 -0.00000000000E+00 -0.00000000000E+00 -0.27500000000E+03  0.27500000000E+03  0.00000000000E+00 0.  1.
    9000005    2    1    2  501    0  0.35146528267E+02  0.17204403762E+02 -0.50095796918E+02  0.47269434302E+03  0.46840055838E+03 0.  0.
         13    1    3    3    0    0  0.18004063000E+02  0.32543849459E+01 -0.26049540274E+03  0.26113711371E+03  0.00000000000E+00 0.  1.
          3    1    3    3  501    0  0.17142465267E+02  0.13950018816E+02  0.21039960583E+03  0.21155722931E+03  0.00000000000E+00 0.  1.
         21    1    1    2  502  501 -0.35146528267E+02 -0.17204403762E+02  0.14533214637E+02  0.41743074704E+02  0.00000000000E+00 0.  1.
<scales pt_clust_4="550.00000" pt_clust_5="550.00000" pt_clust_6="39.13144"></scales>
<mgrwt>
<rscale>  0 0.30000000E+03</rscale>
<asrwt>  1 0.39131445E+02</asrwt>
<pdfrwt beam="1">  1        1 0.87068152E+00 0.30000000E+03</pdfrwt>
<pdfrwt beam="2">0</pdfrwt>
<totfact> 0.24412799E-04</totfact>
</mgrwt>
<clustering>
<clus scale="   39.131">  1  6  2 -1</clus>
<clus scale="  468.401">  4  5 -1 -1</clus>
<clus scale="  300.000">  1  4  2 -1</clus>
</clustering>
</event>
<event>
 6    1  0.9462926E-012  0.3000000E+03  0.7818608E-02  0.1093470E+00
          1   -1    0    0  502    0  0.00000000000E+00  0.00000000000E+00  0.25476823407E+03  0.25476823407E+03  0.00000000000E+00 0.  1.
         13   -1    0    0    0    0 -0.00000000000E+00 -0.00000000000E+00 -0.27500000000E+03  0.27500000000E+03  0.00000000000E+00 0.  1.
    9000005    2    1    2  501    0 -0.32097733139E+02 -0.29228171553E+01 -0.45376221412E+02  0.48888974371E+03  0.48571120298E+03 0.  0.
         13    1    3    3    0    0  0.40741575663E+02  0.12907657124E+03  0.17539689216E+03  0.22155068723E+03  0.00000000000E+00 0.  1.
          3    1    3    3  501    0 -0.72839308802E+02 -0.13199938840E+03 -0.22077311357E+03  0.26733905648E+03  0.00000000000E+00 0.  1.
         21    1    1    2  502  501  0.32097733139E+02  0.29228171553E+01  0.25144455478E+02  0.40878490359E+02  0.00000000000E+00 0.  1.
<scales pt_clust_4="550.00000" pt_clust_5="550.00000" pt_clust_6="32.23053"></scales>
<mgrwt>
<rscale>  0 0.30000000E+03</rscale>
<asrwt>  1 0.32230534E+02</asrwt>
<pdfrwt beam="1">  1        1 0.92642994E+00 0.30000000E+03</pdfrwt>
<pdfrwt beam="2">0</pdfrwt>
<totfact> 0.31122561E-05</totfact>
</mgrwt>
<clustering>
<clus scale="   32.231">  1  6  2 -1</clus>
<clus scale="  485.711">  4  5 -1 -1</clus>
<clus scale="  300.000">  1  4  2 -1</clus>
</clustering>
</event>
<event>
 6    1  0.9462926E-012  0.3000000E+03  0.7818608E-02  0.1093470E+00
          1   -1    0    0  502    0  0.00000000000E+00  0.00000000000E+00  0.22359436092E+03  0.22359436092E+03  0.00000000000E+00 0.  1.
         13   -1    0    0    0    0 -0.00000000000E+00 -0.00000000000E+00 -0.27500000000E+03  0.27500000000E+03  0.00000000000E+00 0.  1.
    9000005    2    1    2  501    0  0.30821160520E+02 -0.21323893528E+02 -0.53104076434E+02  0.46107720404E+03  0.45647288285E+03 0.  0.
         13    1    3    3    0    0  0.16892375471E+03 -0.16869532722E+03  0.33973805875E+02  0.24113806796E+03  0.00000000000E+00 0.  1.
          1    1    3    3  501    0 -0.13810259419E+03  0.14737143370E+03 -0.87077882308E+02  0.21993913608E+03  0.00000000000E+00 0.  1.
         21    1    1    2  502  501 -0.30821160520E+02  0.21323893528E+02  0.16984373519E+01  0.37517156881E+02  0.00000000000E+00 0. -1.
<scales pt_clust_4="550.00000" pt_clust_5="550.00000" pt_clust_6="37.47869"></scales>
<mgrwt>
<rscale>  0 0.30000000E+03</rscale>
<asrwt>  1 0.37478692E+02</asrwt>
<pdfrwt beam="1">  1        1 0.81307040E+00 0.30000000E+03</pdfrwt>
<pdfrwt beam="2">0</pdfrwt>
<totfact> 0.81449065E-04</totfact>
</mgrwt>
<clustering>
<clus scale="   37.479">  1  6  2 -1</clus>
<clus scale="  456.473">  4  5 -1 -1</clus>
<clus scale="  300.000">  1  4  2 -1</clus>
</clustering>
</event>
<event>
 6    1  0.9462926E-012  0.3000000E+03  0.7818608E-02  0.1093470E+00
          1   -1    0    0  502    0  0.00000000000E+00  0.00000000000E+00  0.23783074416E+03  0.23783074416E+03  0.00000000000E+00 0.  1.
         13   -1    0    0    0    0 -0.00000000000E+00 -0.00000000000E+00 -0.27500000000E+03  0.27500000000E+03  0.00000000000E+00 0.  1.
    9000005    2    1    2  501    0  0.31980719119E+02 -0.33608989723E+02 -0.47068281883E+02  0.46539319255E+03  0.46067675211E+03 0.  0.
         13    1    3    3    0    0  0.16219197840E+03 -0.17544306046E+03 -0.10971923997E+03  0.26291598837E+03  0.00000000000E+00 0.  1.
          1    1    3    3  501    0 -0.13021125928E+03  0.14183407074E+03  0.62650958090E+02  0.20247720418E+03  0.00000000000E+00 0.  1.
         21    1    1    2  502  501 -0.31980719119E+02  0.33608989723E+02  0.98990260417E+01  0.47437551604E+02  0.00000000000E+00 0. -1.
<scales pt_clust_4="550.00000" pt_clust_5="550.00000" pt_clust_6="46.39322"></scales>
<mgrwt>
<rscale>  0 0.30000000E+03</rscale>
<asrwt>  1 0.46393217E+02</asrwt>
<pdfrwt beam="1">  1        1 0.86483907E+00 0.30000000E+03</pdfrwt>
<pdfrwt beam="2">0</pdfrwt>
<totfact> 0.27248056E-04</totfact>
</mgrwt>
<clustering>
<clus scale="   46.393">  1  6  2 -1</clus>
<clus scale="  460.677">  4  5 -1 -1</clus>
<clus scale="  300.000">  1  4  2 -1</clus>
</clustering>
</event>
<event>
 6    1  0.9462926E-012  0.3000000E+03  0.7818608E-02  0.1093470E+00
          1   -1    0    0  502    0  0.00000000000E+00  0.00000000000E+00  0.22217572952E+03  0.22217572952E+03  0.00000000000E+00 0.  1.
         13   -1    0    0    0    0 -0.00000000000E+00 -0.00000000000E+00 -0.27500000000E+03  0.27500000000E+03  0.00000000000E+00 0.  1.
    9000005    2    1    2  501    0 -0.33802241991E+02 -0.95492348153E+01 -0.55293072693E+02  0.46196387877E+03  0.45729588009E+03 0.  0.
         13    1    3    3    0    0  0.58876826969E+02  0.20854687003E+03 -0.60327416793E+02  0.22493926951E+03  0.00000000000E+00 0.  1.
          1    1    3    3  501    0 -0.92679068959E+02 -0.21809610484E+03  0.50343441000E+01  0.23702460925E+03  0.00000000000E+00 0.  1.
         21    1    1    2  502  501  0.33802241991E+02  0.95492348153E+01  0.24688022119E+01  0.35211850754E+02  0.00000000000E+00 0. -1.
<scales pt_clust_4="550.00000" pt_clust_5="550.00000" pt_clust_6="35.12520"></scales>
<mgrwt>
<rscale>  0 0.30000000E+03</rscale>
<asrwt>  1 0.35125197E+02</asrwt>
<pdfrwt beam="1">  1        1 0.80791174E+00 0.30000000E+03</pdfrwt>
<pdfrwt beam="2">0</pdfrwt>
<totfact> 0.90466595E-04</totfact>
</mgrwt>
<clustering>
<clus scale="   35.125">  1  6  2 -1</clus>
<clus scale="  457.296">  4  5 -1 -1</clus>
<clus scale="  300.000">  1  4  2 -1</clus>
</clustering>
</event>
<event>
 6    1  0.9462926E-012  0.3000000E+03  0.7818608E-02  0.1093470E+00
          1   -1    0    0  502    0  0.00000000000E+00  0.00000000000E+00  0.24121049684E+03  0.24121049684E+03  0.00000000000E+00 0.  1.
         13   -1    0    0    0    0 -0.00000000000E+00 -0.00000000000E+00 -0.27500000000E+03  0.27500000000E+03  0.00000000000E+00 0.  1.
    9000005    2    1    2  501    0 -0.28388654833E+02  0.13006730476E+02 -0.45916385968E+02  0.48271195885E+03  0.47950748686E+03 0.  0.
         13    1    3    3    0    0 -0.10644774122E+03  0.17686615634E+03  0.11831954416E+03  0.23793333814E+03  0.00000000000E+00 0.  1.
          1    1    3    3  501    0  0.78059086383E+02 -0.16385942586E+03 -0.16423593013E+03  0.24477862071E+03  0.00000000000E+00 0.  1.
         21    1    1    2  502  501  0.28388654833E+02 -0.13006730476E+02  0.12126882811E+02  0.33498537993E+02  0.00000000000E+00 0.  1.
<scales pt_clust_4="550.00000" pt_clust_5="550.00000" pt_clust_6="31.22644"></scales>
<mgrwt>
<rscale>  0 0.30000000E+03</rscale>
<asrwt>  1 0.31226443E+02</asrwt>
<pdfrwt beam="1">  1        1 0.87712908E+00 0.30000000E+03</pdfrwt>
<pdfrwt beam="2">0</pdfrwt>
<totfact> 0.21793394E-04</totfact>
</mgrwt>
<clustering>
<clus scale="   31.226">  1  6  2 -1</clus>
<clus scale="  479.507">  4  5 -1 -1</clus>
<clus scale="  300.000">  1  4  2 -1</clus>
</clustering>
</event>
<event>
 6    1  0.9462926E-012  0.3000000E+03  0.7818608E-02  0.1093470E+00
          1   -1    0    0  502    0  0.00000000000E+00  0.00000000000E+00  0.23102344736E+03  0.23102344736E+03  0.00000000000E+00 0.  1.
         13   -1    0    0    0    0 -0.00000000000E+00 -0.00000000000E+00 -0.27500000000E+03  0.27500000000E+03  0.00000000000E+00 0.  1.
    9000005    2    1    2  501    0  0.12083544084E+02  0.36752166497E+02 -0.37598596347E+02  0.46681360030E+03  0.46368583027E+03 0.  0.
         13    1    3    3    0    0 -0.17581146984E+03 -0.85697214238E+02  0.82656786999E+02  0.21233424098E+03  0.00000000000E+00 0.  1.
          3    1    3    3  501    0  0.18789501392E+03  0.12244938073E+03 -0.12025538335E+03  0.25447935932E+03  0.00000000000E+00 0.  1.
         21    1    1    2  502  501 -0.12083544084E+02 -0.36752166497E+02 -0.63779562955E+01  0.39209847059E+02  0.00000000000E+00 0. -1.
<scales pt_clust_4="550.00000" pt_clust_5="550.00000" pt_clust_6="38.68766"></scales>
<mgrwt>
<rscale>  0 0.30000000E+03</rscale>
<asrwt>  1 0.38687663E+02</asrwt>
<pdfrwt beam="1">  1        1 0.84008526E+00 0.30000000E+03</pdfrwt>
<pdfrwt beam="2">0</pdfrwt>
<totfact> 0.48716417E-04</totfact>
</mgrwt>
<clustering>
<clus scale="   38.688">  1  6  2 -1</clus>
<clus scale="  463.686">  4  5 -1 -1</clus>
<clus scale="  300.000">  1  4  2 -1</clus>
</clustering>
</event>
<event>
 6    1  0.9462926E-012  0.3000000E+03  0.7818608E-02  0.1093470E+00
          1   -1    0    0  502    0  0.00000000000E+00  0.00000000000E+00  0.24178540807E+03  0.24178540807E+03  0.00000000000E+00 0.  1.
         13   -1    0    0    0    0 -0.00000000000E+00 -0.00000000000E+00 -0.27500000000E+03  0.27500000000E+03  0.00000000000E+00 0.  1.
    9000005    2    1    2  501    0 -0.12286160142E+02 -0.34926312408E+02 -0.60831294151E+02  0.47059580674E+03  0.46517649333E+03 0.  0.
         13    1    3    3    0    0  0.14808995168E+03 -0.16335663687E+03  0.64741056642E+02  0.22979867061E+03  0.00000000000E+00 0.  1.
          3    1    3    3  501    0 -0.16037611182E+03  0.12843032446E+03 -0.12557235079E+03  0.24079713613E+03  0.00000000000E+00 0.  1.
         21    1    1    2  502  501  0.12286160142E+02  0.34926312408E+02  0.27616702216E+02  0.46189601327E+02  0.00000000000E+00 0.  1.
<scales pt_clust_4="550.00000" pt_clust_5="550.00000" pt_clust_6="37.02428"></scales>
<mgrwt>
<rscale>  0 0.30000000E+03</rscale>
<asrwt>  1 0.37024276E+02</asrwt>
<pdfrwt beam="1">  1        1 0.87921967E+00 0.30000000E+03</pdfrwt>
<pdfrwt beam="2">0</pdfrwt>
<totfact> 0.19963897E-04</totfact>
</mgrwt>
<clustering>
<clus scale="   37.024">  1  6  2 -1</clus>
<clus scale="  465.176">  4  5 -1 -1</clus>
<clus scale="  300.000">  1  4  2 -1</clus>
</clustering>
</event>
<event>
 6    1  0.9462926E-012  0.3000000E+03  0.7818608E-02  0.1093470E+00
          1   -1    0    0  502    0  0.00000000000E+00  0.00000000000E+00  0.25130322958E+03  0.25130322958E+03  0.00000000000E+00 0.  1.
         13   -1    0    0    0    0 -0.00000000000E+00 -0.00000000000E+00 -0.27500000000E+03  0.27500000000E+03  0.00000000000E+00 0.  1.
    9000005    2    1    2  501    0  0.34820248776E+02 -0.17277914767E+02 -0.33696913357E+02  0.48616622767E+03  0.48343680341E+03 0.  0.
         13    1    3    3    0    0 -0.10954682104E+03  0.19673565709E+03  0.43657765023E+01  0.22522096877E+03  0.00000000000E+00 0.  1.
          3    1    3    3  501    0  0.14436706981E+03 -0.21401357185E+03 -0.38062689859E+02  0.26094525890E+03  0.00000000000E+00 0.  1.
         21    1    1    2  502  501 -0.34820248776E+02  0.17277914767E+02  0.10000142935E+02  0.40137001909E+02  0.00000000000E+00 0. -1.
<scales pt_clust_4="550.00000" pt_clust_5="550.00000" pt_clust_6="38.87128"></scales>
<mgrwt>
<rscale>  0 0.30000000E+03</rscale>
<asrwt>  1 0.38871276E+02</asrwt>
<pdfrwt beam="1">  1        1 0.91382993E+00 0.30000000E+03</pdfrwt>
<pdfrwt beam="2">0</pdfrwt>
<totfact> 0.56623140E-05</totfact>
</mgrwt>
<clustering>
<clus scale="   38.871">  1  6  2 -1</clus>
<clus scale="  483.437">  4  5 -1 -1</clus>
<clus scale="  300.000">  1  4  2 -1</clus>
</clustering>
</event>
<event>
 6    1  0.9462926E-012  0.3000000E+03  0.7818608E-02  0.1093470E+00
          1   -1    0    0  502    0  0.00000000000E+00  0.00000000000E+00  0.24153188199E+03  0.24153188199E+03  0.00000000000E+00 0.  1.
         13   -1    0    0    0    0 -0.00000000000E+00 -0.00000000000E+00 -0.27500000000E+03  0.27500000000E+03  0.00000000000E+00 0.  1.
    9000005    2    1    2  501    0 -0.31411930479E+02 -0.12462573855E+01 -0.47088821439E+02  0.48227132018E+03  0.47893632836E+03 0.  0.
         13    1    3    3    0    0 -0.17345254259E+03  0.17720957897E+03 -0.55216968703E+02  0.25404317161E+03  0.00000000000E+00 0.  1.
          1    1    3    3  501    0  0.14204061211E+03 -0.17845583635E+03  0.81281472642E+01  0.22822814856E+03  0.00000000000E+00 0.  1.
         21    1    1    2  502  501  0.31411930479E+02  0.12462573855E+01  0.13620703430E+02  0.34260561814E+02  0.00000000000E+00 0. -1.
<scales pt_clust_4="550.00000" pt_clust_5="550.00000" pt_clust_6="31.43664"></scales>
<mgrwt>
<rscale>  0 0.30000000E+03</rscale>
<asrwt>  1 0.31436643E+02</asrwt>
<pdfrwt beam="1">  1        1 0.87829775E+00 0.30000000E+03</pdfrwt>
<pdfrwt beam="2">0</pdfrwt>
<totfact> 0.21109691E-04</totfact>
</mgrwt>
<clustering>
<clus scale="   31.437">  1  6  2 -1</clus>
<clus scale="  478.936">  4  5 -1 -1</clus>
<clus scale="  300.000">  1  4  2 -1</clus>
</clustering>
</event>
<event>
 6    1  0.9462926E-012  0.3000000E+03  0.7818608E-02  0.1093470E+00
          1   -1    0    0  502    0  0.00000000000E+00  0.00000000000E+00  0.25190409946E+03  0.25190409946E+03  0.00000000000E+00 0.  1.
         13   -1    0    0    0    0 -0.00000000000E+00 -0.00000000000E+00 -0.27500000000E+03  0.27500000000E+03  0.00000000000E+00 0.  1.
    9000005    2    1    2  501    0  0.28628597334E+02 -0.27454972137E+02 -0.42184308015E+02  0.48288433821E+03  0.47940003772E+03 0.  0.
         13    1    3    3    0    0  0.88118116391E+02  0.54050865415E+02 -0.23972470752E+03  0.26106365868E+03  0.00000000000E+00 0.  1.
          1    1    3    3  501    0 -0.59489519058E+02 -0.81505837551E+02  0.19754039950E+03  0.22182067953E+03  0.00000000000E+00 0.  1.
         21    1    1    2  502  501 -0.28628597334E+02  0.27454972137E+02  0.19088407476E+02  0.44019761248E+02  0.00000000000E+00 0.  1.
<scales pt_clust_4="550.00000" pt_clust_5="550.00000" pt_clust_6="39.66575"></scales>
<mgrwt>
<rscale>  0 0.30000000E+03</rscale>
<asrwt>  1 0.39665755E+02</asrwt>
<pdfrwt beam="1">  1        1 0.91601491E+00 0.30000000E+03</pdfrwt>
<pdfrwt beam="2">0</pdfrwt>
<totfact> 0.50129103E-05</totfact>
</mgrwt>
<clustering>
<clus scale="   39.666">  1  6  2 -1</clus>
<clus scale="  479.400">  4  5 -1 -1</clus>
<clus scale="  300.000">  1  4  2 -1</clus>
</clustering>
</event>
<event>
 6    1  0.9462926E-012  0.3000000E+03  0.7818608E-02  0.1093470E+00
          1   -1    0    0  502    0  0.00000000000E+00  0.00000000000E+00  0.23904933372E+03  0.23904933372E+03  0.00000000000E+00 0.  1.
         13   -1    0    0    0    0 -0.00000000000E+00 -0.00000000000E+00 -0.27500000000E+03  0.27500000000E+03  0.00000000000E+00 0.  1.
    9000005    2    1    2  501    0  0.38031855200E+02  0.40652802661E+01 -0.69485412946E+02  0.46318158610E+03  0.45633979728E+03 0.  0.
         13    1    3    3    0    0  0.80555173503E+01  0.22267793943E+03 -0.92635119240E+02  0.24131229017E+03  0.00000000000E+00 0.  1.
          3    1    3    3  501    0  0.29976337850E+02 -0.21861265916E+03  0.23149706294E+02  0.22186929594E+03  0.00000000000E+00 0.  1.
         21    1    1    2  502  501 -0.38031855200E+02 -0.40652802661E+01  0.33534746663E+02  0.50867747614E+02  0.00000000000E+00 0. -1.
<scales pt_clust_4="550.00000" pt_clust_5="550.00000" pt_clust_6="38.24851"></scales>
<mgrwt>
<rscale>  0 0.30000000E+03</rscale>
<asrwt>  1 0.38248510E+02</asrwt>
<pdfrwt beam="1">  1        1 0.86927030E+00 0.30000000E+03</pdfrwt>
<pdfrwt beam="2">0</pdfrwt>
<totfact> 0.25344066E-04</totfact>
</mgrwt>
<clustering>
<clus scale="   38.249">  1  6  2 -1</clus>
<clus scale="  456.340">  4  5 -1 -1</clus>
<clus scale="  300.000">  1  4  2 -1</clus>
</clustering>
</event>
<event>
 6    1  0.9462926E-012  0.3000000E+03  0.7818608E-02  0.1093470E+00
          1   -1    0    0  502    0  0.00000000000E+00  0.00000000000E+00  0.25729959173E+03  0.25729959173E+03  0.00000000000E+00 0.  1.
         13   -1    0    0    0    0 -0.00000000000E+00 -0.00000000000E+00 -0.27500000000E+03  0.27500000000E+03  0.00000000000E+00 0.  1.
    9000005    2    1    2  501    0 -0.38873192493E+02  0.13255558613E+02 -0.50478696923E+02  0.47975198345E+03  0.47531782194E+03 0.  0.
         13    1    3    3    0    0  0.90799054288E+00 -0.16936288840E+03 -0.18398129782E+03  0.25006745163E+03  0.00000000000E+00 0.  1.
          1    1    3    3  501    0 -0.39781183036E+02  0.18261844701E+03  0.13350260090E+03  0.22968453183E+03  0.00000000000E+00 0.  1.
         21    1    1    2  502  501  0.38873192493E+02 -0.13255558613E+02  0.32778288650E+02  0.52547608277E+02  0.00000000000E+00 0.  1.
<scales pt_clust_4="550.00000" pt_clust_5="550.00000" pt_clust_6="41.07110"></scales>
<mgrwt>
<rscale>  0 0.30000000E+03</rscale>
<asrwt>  1 0.41071096E+02</asrwt>
<pdfrwt beam="1">  1        1 0.93563488E+00 0.30000000E+03</pdfrwt>
<pdfrwt beam="2">0</pdfrwt>
<totfact> 0.21484292E-05</totfact>
</mgrwt>
<clustering>
<clus scale="   41.071">  1  6  2 -1</clus>
<clus scale="  475.318">  4  5 -1 -1</clus>
<clus scale="  300.000">  1  4  2 -1</clus>
</clustering>
</event>
<event>
 6    1  0.9462926E-012  0.3000000E+03  0.7818608E-02  0.1093470E+00
          1   -1    0    0  502    0  0.00000000000E+00  0.00000000000E+00  0.24856985637E+03  0.24856985637E+03  0.00000000000E+00 0.  1.
         13   -1    0    0    0    0 -0.00000000000E+00 -0.00000000000E+00 -0.27500000000E+03  0.27500000000E+03  0.00000000000E+00 0.  1.
    9000005    2    1    2  501    0 -0.30781378136E+02  0.32829161064E+01 -0.48848582680E+02  0.48534869486E+03  0.48189096359E+03 0.  0.
         13    1    3    3    0    0  0.75496513870E+02  0.35304265290E+02  0.19792751372E+03  0.21475897057E+03  0.00000000000E+00 0.  1.
          3    1    3    3  501    0 -0.10627789201E+03 -0.32021349184E+02 -0.24677609640E+03  0.27058972428E+03  0.00000000000E+00 0.  1.
         21    1    1    2  502  501  0.30781378136E+02 -0.32829161064E+01  0.22418439053E+02  0.38221161517E+02  0.00000000000E+00 0. -1.
<scales pt_clust_4="550.00000" pt_clust_5="550.00000" pt_clust_6="30.95595"></scales>
<mgrwt>
<rscale>  0 0.30000000E+03</rscale>
<asrwt>  1 0.30955949E+02</asrwt>
<pdfrwt beam="1">  1        1 0.90389039E+00 0.30000000E+03</pdfrwt>
<pdfrwt beam="2">0</pdfrwt>
<totfact> 0.99122972E-05</totfact>
</mgrwt>
<clustering>
<clus scale="   30.956">  1  6  2 -1</clus>
<clus scale="  481.891">  4  5 -1 -1</clus>
<clus scale="  300.000">  1  4  2 -1</clus>
</clustering>
</event>
<event>
 6    1  0.9462926E-012  0.3000000E+03  0.7818608E-02  0.1093470E+00
          1   -1    0    0  502    0  0.00000000000E+00  0.00000000000E+00  0.22480362552E+03  0.22480362552E+03  0.00000000000E+00 0.  1.
         13   -1    0    0    0    0 -0.00000000000E+00 -0.00000000000E+00 -0.27500000000E+03  0.27500000000E+03  0.00000000000E+00 0.  1.
    9000005    2    1    2  501    0  0.16998498887E+02 -0.25178404934E+02 -0.57500780695E+02  0.46855853967E+03  0.46402356005E+03 0.  0.
         13    1    3    3    0    0  0.19593048843E+02 -0.23628892726E+03 -0.92587521586E+02  0.25453642934E+03  0.00000000000E+00 0.  1.
          3    1    3    3  501    0 -0.25945499559E+01  0.21111052232E+03  0.35086740891E+02  0.21402211033E+03  0.00000000000E+00 0.  1.
         21    1    1    2  502  501 -0.16998498887E+02  0.25178404934E+02  0.73044062117E+01  0.31245085846E+02  0.00000000000E+00 0.  1.
<scales pt_clust_4="550.00000" pt_clust_5="550.00000" pt_clust_6="30.37929"></scales>
<mgrwt>
<rscale>  0 0.30000000E+03</rscale>
<asrwt>  1 0.30379286E+02</asrwt>
<pdfrwt beam="1">  1        1 0.81746773E+00 0.30000000E+03</pdfrwt>
<pdfrwt beam="2">0</pdfrwt>
<totfact> 0.78058748E-04</totfact>
</mgrwt>
<clustering>
<clus scale="   30.379">  1  6  2 -1</clus>
<clus scale="  464.024">  4  5 -1 -1</clus>
<clus scale="  300.000">  1  4  2 -1</clus>
</clustering>
</event>
<event>
 6    1  0.9462926E-012  0.3000000E+03  0.7818608E-02  0.1093470E+00
          1   -1    0    0  502    0  0.00000000000E+00  0.00000000000E+00  0.23873278399E+03  0.23873278399E+03  0.00000000000E+00 0.  1.
         13   -1    0    0    0    0 -0.00000000000E+00 -0.00000000000E+00 -0.27500000000E+03  0.27500000000E+03  0.00000000000E+00 0.  1.
    9000005    2    1    2  501    0 -0.43072864243E+01 -0.35617246633E+02 -0.47141283663E+02  0.47624430147E+03  0.47254544023E+03 0.  0.
         13    1    3    3    0    0  0.19183027917E+03 -0.27915530137E+01  0.11146039162E+03  0.22187849755E+03  0.00000000000E+00 0.  1.
          3    1    3    3  501    0 -0.19613756559E+03 -0.32825693620E+02 -0.15860167529E+03  0.25436580392E+03  0.00000000000E+00 0.  1.
         21    1    1    2  502  501  0.43072864243E+01  0.35617246633E+02  0.10874067649E+02  0.37488482516E+02  0.00000000000E+00 0.  1.
<scales pt_clust_4="550.00000" pt_clust_5="550.00000" pt_clust_6="35.87675"></scales>
<mgrwt>
<rscale>  0 0.30000000E+03</rscale>
<asrwt>  1 0.35876747E+02</asrwt>
<pdfrwt beam="1">  1        1 0.86811921E+00 0.30000000E+03</pdfrwt>
<pdfrwt beam="2">0</pdfrwt>
<totfact> 0.26357311E-04</totfact>
</mgrwt>
<clustering>
<clus scale="   35.877">  1  6  2 -1</clus>
<clus scale="  472.545">  4  5 -1 -1</clus>
<clus scale="  300.000">  1  4  2 -1</clus>
</clustering>
</event>
<event>
 6    1  0.9462926E-012  0.3000000E+03  0.7818608E-02  0.1093470E+00
          1   -1    0    0  502    0  0.00000000000E+00  0.00000000000E+00  0.24426645610E+03  0.24426645610E+03  0.00000000000E+00 0.  1.
         13   -1    0    0    0    0 -0.00000000000E+00 -0.00000000000E+00 -0.27500000000E+03  0.27500000000E+03  0.00000000000E+00 0.  1.
    9000005    2    1    2  501    0 -0.31664330265E+02  0.12276745896E+01 -0.45611124007E+02  0.48425960840E+03  0.48106429580E+03 0.  0.
         13    1    3    3    0    0  0.18531932973E+03 -0.13165330142E+03 -0.30661092154E+02  0.22938166517E+03  0.00000000000E+00 0.  1.
          1    1    3    3  501    0 -0.21698365999E+03  0.13288097601E+03 -0.14950031853E+02  0.25487794322E+03  0.00000000000E+00 0.  1.
         21    1    1    2  502  501  0.31664330265E+02 -0.12276745896E+01  0.14877580103E+02  0.35006847698E+02  0.00000000000E+00 0. -1.
<scales pt_clust_4="550.00000" pt_clust_5="550.00000" pt_clust_6="31.68812"></scales>
<mgrwt>
<rscale>  0 0.30000000E+03</rscale>
<asrwt>  1 0.31688121E+02</asrwt>
<pdfrwt beam="1">  1        1 0.88824166E+00 0.30000000E+03</pdfrwt>
<pdfrwt beam="2">0</pdfrwt>
<totfact> 0.15602156E-04</totfact>
</mgrwt>
<clustering>
<clus scale="   31.688">  1  6  2 -1</clus>
<clus scale="  481.064">  4  5 -1 -1</clus>
<clus scale="  300.000">  1  4  2 -1</clus>
</clustering>
</event>
<event>
 6    1  0.9462926E-012  0.3000000E+03  0.7818608E-02  0.1093470E+00
          1   -1    0    0  502    0  0.00000000000E+00  0.00000000000E+00  0.23577152998E+03  0.23577152998E+03  0.00000000000E+00 0.  1.
         13   -1    0    0    0    0 -0.00000000000E+00 -0.00000000000E+00 -0.27500000000E+03  0.27500000000E+03  0.00000000000E+00 0.  1.
    9000005    2    1    2  501    0  0.24548134841E+02  0.19635842678E+02 -0.60050354995E+02  0.47306571961E+03  0.46818474205E+03 0.  0.
         13    1    3    3    0    0  0.18011935048E+03  0.14925478587E+03 -0.11860973684E+03  0.26227512501E+03  0.00000000000E+00 0.  1.
          3    1    3    3  501    0 -0.15557121564E+03 -0.12961894320E+03  0.58559381849E+02  0.21079059460E+03  0.00000000000E+00 0.  1.
         21    1    1    2  502  501 -0.24548134841E+02 -0.19635842678E+02  0.20821884974E+02  0.37705810371E+02  0.00000000000E+00 0.  1.
<scales pt_clust_4="550.00000" pt_clust_5="550.00000" pt_clust_6="31.43529"></scales>
<mgrwt>
<rscale>  0 0.30000000E+03</rscale>
<asrwt>  1 0.31435287E+02</asrwt>
<pdfrwt beam="1">  1        1 0.85735102E+00 0.30000000E+03</pdfrwt>
<pdfrwt beam="2">0</pdfrwt>
<totfact> 0.35195912E-04</totfact>
</mgrwt>
<clustering>
<clus scale="   31.435">  1  6  2 -1</clus>
<clus scale="  468.185">  4  5 -1 -1</clus>
<clus scale="  300.000">  1  4  2 -1</clus>
</clustering>
</event>
<event>
 6    1  0.9462926E-012  0.3000000E+03  0.7818608E-02  0.1093470E+00
          1   -1    0    0  502    0  0.00000000000E+00  0.00000000000E+00  0.24054799965E+03  0.24054799965E+03  0.00000000000E+00 0.  1.
         13   -1    0    0    0    0 -0.00000000000E+00 -0.00000000000E+00 -0.27500000000E+03  0.27500000000E+03  0.00000000000E+00 0.  1.
    9000005    2    1    2  501    0  0.41735429885E+02  0.16063411515E+02 -0.46888279566E+02  0.46913097327E+03  0.46463478134E+03 0.  0.
         13    1    3    3    0    0  0.12777062856E+03 -0.14514430069E+03  0.11501848161E+03  0.22499211688E+03  0.00000000000E+00 0.  1.
          1    1    3    3  501    0 -0.86035198675E+02  0.16120771221E+03 -0.16190676118E+03  0.24413885639E+03  0.00000000000E+00 0.  1.
         21    1    1    2  502  501 -0.41735429885E+02 -0.16063411515E+02  0.12436279221E+02  0.46417026381E+02  0.00000000000E+00 0.  1.
<scales pt_clust_4="550.00000" pt_clust_5="550.00000" pt_clust_6="44.72001"></scales>
<mgrwt>
<rscale>  0 0.30000000E+03</rscale>
<asrwt>  1 0.44720010E+02</asrwt>
<pdfrwt beam="1">  1        1 0.87472000E+00 0.30000000E+03</pdfrwt>
<pdfrwt beam="2">0</pdfrwt>
<totfact> 0.21653688E-04</totfact>
</mgrwt>
<clustering>
<clus scale="   44.720">  1  6  2 -1</clus>
<clus scale="  464.635">  4  5 -1 -1</clus>
<clus scale="  300.000">  1  4  2 -1</clus>
</clustering>
</event>
<event>
 6    1  0.9462926E-012  0.3000000E+03  0.7818608E-02  0.1093470E+00
          1   -1    0    0  502    0  0.00000000000E+00  0.00000000000E+00  0.24187635576E+03  0.24187635576E+03  0.00000000000E+00 0.  1.
         13   -1    0    0    0    0 -0.00000000000E+00 -0.00000000000E+00 -0.27500000000E+03  0.27500000000E+03  0.00000000000E+00 0.  1.
    9000005    2    1    2  501    0  0.23965063707E+02 -0.19405532430E+02 -0.55858796718E+02  0.47856465878E+03  0.47429213413E+03 0.  0.
         13    1    3    3    0    0 -0.16880205871E+03  0.43180204552E+02 -0.17211783061E+03  0.24491470496E+03  0.00000000000E+00 0.  1.
          3    1    3    3  501    0  0.19276712242E+03 -0.62585736981E+02  0.11625903390E+03  0.23364995382E+03  0.00000000000E+00 0.  1.
         21    1    1    2  502  501 -0.23965063707E+02  0.19405532430E+02  0.22735152480E+02  0.38311696982E+02  0.00000000000E+00 0. -1.
<scales pt_clust_4="550.00000" pt_clust_5="550.00000" pt_clust_6="30.83665"></scales>
<mgrwt>
<rscale>  0 0.30000000E+03</rscale>
<asrwt>  1 0.30836650E+02</asrwt>
<pdfrwt beam="1">  1        1 0.87955038E+00 0.30000000E+03</pdfrwt>
<pdfrwt beam="2">0</pdfrwt>
<totfact> 0.20474183E-04</totfact>
</mgrwt>
<clustering>
<clus scale="   30.837">  1  6  2 -1</clus>
<clus scale="  474.292">  4  5 -1 -1</clus>
<clus scale="  300.000">  1  4  2 -1</clus>
</clustering>
</event>
<event>
 6    1  0.9462926E-012  0.3000000E+03  0.7818608E-02  0.1093470E+00
          1   -1    0    0  502    0  0.00000000000E+00  0.00000000000E+00  0.22564309217E+03  0.22564309217E+03  0.00000000000E+00 0.  1.
         13   -1    0    0    0    0 -0.00000000000E+00 -0.00000000000E+00 -0.27500000000E+03  0.27500000000E+03  0.00000000000E+00 0.  1.
    9000005    2    1    2  501    0 -0.26940731913E+02 -0.19989316168E+02 -0.50139329927E+02  0.46708734779E+03  0.46317519608E+03 0.  0.
         13    1    3    3    0    0  0.13189979512E+03 -0.13760718460E+03 -0.15286600055E+03  0.24433850972E+03  0.00000000000E+00 0.  1.
          1    1    3    3  501    0 -0.15884052703E+03  0.11761786844E+03  0.10272667062E+03  0.22274883807E+03  0.00000000000E+00 0.  1.
         21    1    1    2  502  501  0.26940731913E+02  0.19989316168E+02  0.78242209830E+00  0.33555744385E+02  0.00000000000E+00 0.  1.
<scales pt_clust_4="550.00000" pt_clust_5="550.00000" pt_clust_6="33.54662"></scales>
<mgrwt>
<rscale>  0 0.30000000E+03</rscale>
<asrwt>  1 0.33546621E+02</asrwt>
<pdfrwt beam="1">  1        1 0.82052034E+00 0.30000000E+03</pdfrwt>
<pdfrwt beam="2">0</pdfrwt>
<totfact> 0.72152179E-04</totfact>
</mgrwt>
<clustering>
<clus scale="   33.547">  1  6  2 -1</clus>
<clus scale="  463.175">  4  5 -1 -1</clus>
<clus scale="  300.000">  1  4  2 -1</clus>
</clustering>
</event>
<event>
 6    1  0.9462926E-012  0.3000000E+03  0.7818608E-02  0.1093470E+00
          1   -1    0    0  502    0  0.00000000000E+00  0.00000000000E+00  0.25746088301E+03  0.25746088301E+03  0.00000000000E+00 0.  1.
         13   -1    0    0    0    0 -0.00000000000E+00 -0.00000000000E+00 -0.27500000000E+03  0.27500000000E+03  0.00000000000E+00 0.  1.
    9000005    2    1    2  501    0  0.32951465575E+02 -0.41593964940E+02 -0.11772593513E+02  0.47908382993E+03  0.47599040446E+03 0.  0.
         13    1    3    3    0    0  0.57362214981E+02 -0.24404724674E+03  0.68572191084E+02  0.25990695978E+03  0.00000000000E+00 0.  1.
          3    1    3    3  501    0 -0.24410749406E+02  0.20245328180E+03 -0.80344784597E+02  0.21917687015E+03  0.00000000000E+00 0.  1.
         21    1    1    2  502  501 -0.32951465575E+02  0.41593964940E+02 -0.57665234733E+01  0.53377053084E+02  0.00000000000E+00 0. -1.
<scales pt_clust_4="550.00000" pt_clust_5="550.00000" pt_clust_6="53.06468"></scales>
<mgrwt>
<rscale>  0 0.30000000E+03</rscale>
<asrwt>  1 0.53064676E+02</asrwt>
<pdfrwt beam="1">  1        1 0.93622139E+00 0.30000000E+03</pdfrwt>
<pdfrwt beam="2">0</pdfrwt>
<totfact> 0.20188429E-05</totfact>
</mgrwt>
<clustering>
<clus scale="   53.065">  1  6  2 -1</clus>
<clus scale="  475.990">  4  5 -1 -1</clus>
<clus scale="  300.000">  1  4  2 -1</clus>
</clustering>
</event>
<event>
 6    1  0.9462926E-012  0.3000000E+03  0.7818608E-02  0.1093470E+00
          1   -1    0    0  502    0  0.00000000000E+00  0.00000000000E+00  0.23557057068E+03  0.23557057068E+03  0.00000000000E+00 0.  1.
         13   -1    0    0    0    0 -0.00000000000E+00 -0.00000000000E+00 -0.27500000000E+03  0.27500000000E+03  0.00000000000E+00 0.  1.
    9000005    2    1    2  501    0 -0.32055080811E+02  0.17330600880E+02 -0.48283383717E+02  0.47307029813E+03  0.46918689655E+03 0.  0.
         13    1    3    3    0    0 -0.40108246856E+02 -0.29163199664E+02  0.20730957965E+03  0.21315821705E+03  0.00000000000E+00 0.  1.
          1    1    3    3  501    0  0.80531660448E+01  0.46493800544E+02 -0.25559296337E+03  0.25991208109E+03  0.00000000000E+00 0.  1.
         21    1    1    2  502  501  0.32055080811E+02 -0.17330600880E+02  0.88539543958E+01  0.37500272547E+02  0.00000000000E+00 0.  1.
<scales pt_clust_4="550.00000" pt_clust_5="550.00000" pt_clust_6="36.44006"></scales>
<mgrwt>
<rscale>  0 0.30000000E+03</rscale>
<asrwt>  1 0.36440059E+02</asrwt>
<pdfrwt beam="1">  1        1 0.85662026E+00 0.30000000E+03</pdfrwt>
<pdfrwt beam="2">0</pdfrwt>
<totfact> 0.34827724E-04</totfact>
</mgrwt>
<clustering>
<clus scale="   36.440">  1  6  2 -1</clus>
<clus scale="  469.187">  4  5 -1 -1</clus>
<clus scale="  300.000">  1  4  2 -1</clus>
</clustering>
</event>
<event>
 6    1  0.9462926E-012  0.3000000E+03  0.7818608E-02  0.1093470E+00
          1   -1    0    0  502    0  0.00000000000E+00  0.00000000000E+00  0.22435808953E+03  0.22435808953E+03  0.00000000000E+00 0.  1.
         13   -1    0    0    0    0 -0.00000000000E+00 -0.00000000000E+00 -0.27500000000E+03  0.27500000000E+03  0.00000000000E+00 0.  1.
    9000005    2    1    2  501    0 -0.15357705146E+02  0.27736927112E+02 -0.63470588185E+02  0.46515617138E+03  0.45971355427E+03 0.  0.
         13    1    3    3    0    0  0.52797563889E+02 -0.13214272694E+02 -0.25343995198E+03  0.25921807232E+03  0.00000000000E+00 0.  1.
          3    1    3    3  501    0 -0.68155269035E+02  0.40951199806E+02  0.18996936380E+03  0.20593809906E+03  0.00000000000E+00 0.  1.
         21    1    1    2  502  501  0.15357705146E+02 -0.27736927112E+02  0.12828677713E+02  0.34201918145E+02  0.00000000000E+00 0. -1.
<scales pt_clust_4="550.00000" pt_clust_5="550.00000" pt_clust_6="31.70483"></scales>
<mgrwt>
<rscale>  0 0.30000000E+03</rscale>
<asrwt>  1 0.31704830E+02</asrwt>
<pdfrwt beam="1">  1        1 0.81584760E+00 0.30000000E+03</pdfrwt>
<pdfrwt beam="2">0</pdfrwt>
<totfact> 0.79829873E-04</totfact>
</mgrwt>
<clustering>
<clus scale="   31.705">  1  6  2 -1</clus>
<clus scale="  459.714">  4  5 -1 -1</clus>
<clus scale="  300.000">  1  4  2 -1</clus>
</clustering>
</event>
<event>
 6    1  0.9462926E-012  0.3000000E+03  0.7818608E-02  0.1093470E+00
          1   -1    0    0  502    0  0.00000000000E+00  0.00000000000E+00  0.22807662743E+03  0.22807662743E+03  0.00000000000E+00 0.  1.
         13   -1    0    0    0    0 -0.00000000000E+00 -0.00000000000E+00 -0.27500000000E+03  0.27500000000E+03  0.00000000000E+00 0.  1.
    9000005    2    1    2  501    0 -0.22400797171E+02 -0.22915315653E+02 -0.69518208809E+02  0.46386650080E+03  0.45750676695E+03 0.  0.
         13    1    3    3    0    0  0.78016289832E+02 -0.20500010409E+02 -0.24705170961E+03  0.25988716614E+03  0.00000000000E+00 0.  1.
          3    1    3    3  501    0 -0.10041708700E+03 -0.24153052446E+01  0.17753350080E+03  0.20397933466E+03  0.00000000000E+00 0.  1.
         21    1    1    2  502  501  0.22400797171E+02  0.22915315653E+02  0.22594836238E+02  0.39210126626E+02  0.00000000000E+00 0. -1.
<scales pt_clust_4="550.00000" pt_clust_5="550.00000" pt_clust_6="32.04540"></scales>
<mgrwt>
<rscale>  0 0.30000000E+03</rscale>
<asrwt>  1 0.32045396E+02</asrwt>
<pdfrwt beam="1">  1        1 0.82936955E+00 0.30000000E+03</pdfrwt>
<pdfrwt beam="2">0</pdfrwt>
<totfact> 0.60823890E-04</totfact>
</mgrwt>
<clustering>
<clus scale="   32.045">  1  6  2 -1</clus>
<clus scale="  457.507">  4  5 -1 -1</clus>
<clus scale="  300.000">  1  4  2 -1</clus>
</clustering>
</event>
<event>
 6    1  0.9462926E-012  0.3000000E+03  0.7818608E-02  0.1093470E+00
          1   -1    0    0  502    0  0.00000000000E+00  0.00000000000E+00  0.22259820597E+03  0.22259820597E+03  0.00000000000E+00 0.  1.
         13   -1    0    0    0    0 -0.00000000000E+00 -0.00000000000E+00 -0.27500000000E+03  0.27500000000E+03  0.00000000000E+00 0.  1.
    9000005    2    1    2  501    0 -0.29919791073E+02 -0.24470356282E+01 -0.49716844160E+02  0.46745868313E+03  0.46383690448E+03 0.  0.
         13    1    3    3    0    0  0.96153854232E+02  0.14426191724E+03 -0.16743133387E+03  0.24101932705E+03  0.00000000000E+00 0.  1.
          3    1    3    3  501    0 -0.12607364531E+03 -0.14670895287E+03  0.11771448971E+03  0.22643935608E+03  0.00000000000E+00 0.  1.
         21    1    1    2  502  501  0.29919791073E+02  0.24470356282E+01 -0.26849498737E+01  0.30139522840E+02  0.00000000000E+00 0.  1.
<scales pt_clust_4="550.00000" pt_clust_5="550.00000" pt_clust_6="30.01969"></scales>
<mgrwt>
<rscale>  0 0.30000000E+03</rscale>
<asrwt>  1 0.30019692E+02</asrwt>
<pdfrwt beam="1">  1        1 0.80944802E+00 0.30000000E+03</pdfrwt>
<pdfrwt beam="2">0</pdfrwt>
<totfact> 0.90685312E-04</totfact>
</mgrwt>
<clustering>
<clus scale="   30.020">  1  6  2 -1</clus>
<clus scale="  463.837">  4  5 -1 -1</clus>
<clus scale="  300.000">  1  4  2 -1</clus>
</clustering>
</event>
<event>
 6    1  0.9462926E-012  0.3000000E+03  0.7818608E-02  0.1093470E+00
          1   -1    0    0  502    0  0.00000000000E+00  0.00000000000E+00  0.23028776175E+03  0.23028776175E+03  0.00000000000E+00 0.  1.
         13   -1    0    0    0    0 -0.00000000000E+00 -0.00000000000E+00 -0.27500000000E+03  0.27500000000E+03  0.00000000000E+00 0.  1.
    9000005    2    1    2  501    0  0.98032741641E+01  0.29917296440E+02 -0.41170936809E+02  0.47360670075E+03  0.47076226712E+03 0.  0.
         13    1    3    3    0    0  0.12803337446E+03  0.17129922018E+03  0.10512339703E+03  0.23830001345E+03  0.00000000000E+00 0.  1.
          1    1    3    3  501    0 -0.11823010029E+03 -0.14138192374E+03 -0.14629433384E+03  0.23530668730E+03  0.00000000000E+00 0.  1.
         21    1    1    2  502  501 -0.98032741641E+01 -0.29917296440E+02 -0.35413014359E+01  0.31681061006E+02  0.00000000000E+00 0.  1.
<scales pt_clust_4="550.00000" pt_clust_5="550.00000" pt_clust_6="31.48253"></scales>
<mgrwt>
<rscale>  0 0.30000000E+03</rscale>
<asrwt>  1 0.31482532E+02</asrwt>
<pdfrwt beam="1">  1        1 0.83741004E+00 0.30000000E+03</pdfrwt>
<pdfrwt beam="2">0</pdfrwt>
<totfact> 0.53010666E-04</totfact>
</mgrwt>
<clustering>
<clus scale="   31.483">  1  6  2 -1</clus>
<clus scale="  470.762">  4  5 -1 -1</clus>
<clus scale="  300.000">  1  4  2 -1</clus>
</clustering>
</event>
<event>
 6    1  0.9462926E-012  0.3000000E+03  0.7818608E-02  0.1093470E+00
          1   -1    0    0  502    0  0.00000000000E+00  0.00000000000E+00  0.24428146910E+03  0.24428146910E+03  0.00000000000E+00 0.  1.
         13   -1    0    0    0    0 -0.00000000000E+00 -0.00000000000E+00 -0.27500000000E+03  0.27500000000E+03  0.00000000000E+00 0.  1.
    9000005    2    1    2  501    0  0.36596094333E+02  0.14405823130E+02 -0.36091877249E+02  0.47958669978E+03  0.47660673216E+03 0.  0.
         13    1    3    3    0    0 -0.30985359175E+02 -0.17541527237E+02 -0.25024322982E+03  0.25276366774E+03  0.00000000000E+00 0.  1.
          1    1    3    3  501    0  0.67581453508E+02  0.31947350367E+02  0.21415135257E+03  0.22682303204E+03  0.00000000000E+00 0.  1.
         21    1    1    2  502  501 -0.36596094333E+02 -0.14405823130E+02  0.53733463503E+01  0.39694769322E+02  0.00000000000E+00 0.  1.
<scales pt_clust_4="550.00000" pt_clust_5="550.00000" pt_clust_6="39.32940"></scales>
<mgrwt>
<rscale>  0 0.30000000E+03</rscale>
<asrwt>  1 0.39329402E+02</asrwt>
<pdfrwt beam="1">  1        1 0.88829625E+00 0.30000000E+03</pdfrwt>
<pdfrwt beam="2">0</pdfrwt>
<totfact> 0.14959400E-04</totfact>
</mgrwt>
<clustering>
<clus scale="   39.329">  1  6  2 -1</clus>
<clus scale="  476.607">  4  5 -1 -1</clus>
<clus scale="  300.000">  1  4  2 -1</clus>
</clustering>
</event>
<event>
 6    1  0.9462926E-012  0.3000000E+03  0.7818608E-02  0.1093470E+00
          1   -1    0    0  502    0  0.00000000000E+00  0.00000000000E+00  0.22663168256E+03  0.22663168256E+03  0.00000000000E+00 0.  1.
         13   -1    0    0    0    0 -0.00000000000E+00 -0.00000000000E+00 -0.27500000000E+03  0.27500000000E+03  0.00000000000E+00 0.  1.
    9000005    2    1    2  501    0 -0.15295473916E+02 -0.37481893209E+02 -0.52680880916E+02  0.46091998836E+03  0.45610647508E+03 0.  0.
         13    1    3    3    0    0  0.11499418268E+03  0.17294700341E+03 -0.49016825503E+02  0.21339394842E+03  0.00000000000E+00 0.  1.
          3    1    3    3  501    0 -0.13028965659E+03 -0.21042889662E+03 -0.36640554132E+01  0.24752603994E+03  0.00000000000E+00 0.  1.
         21    1    1    2  502  501  0.15295473916E+02  0.37481893209E+02  0.43125634749E+01  0.40711694199E+02  0.00000000000E+00 0.  1.
<scales pt_clust_4="550.00000" pt_clust_5="550.00000" pt_clust_6="40.48264"></scales>
<mgrwt>
<rscale>  0 0.30000000E+03</rscale>
<asrwt>  1 0.40482636E+02</asrwt>
<pdfrwt beam="1">  1        1 0.82411521E+00 0.30000000E+03</pdfrwt>
<pdfrwt beam="2">0</pdfrwt>
<totfact> 0.64754328E-04</totfact>
</mgrwt>
<clustering>
<clus scale="   40.483">  1  6  2 -1</clus>
<clus scale="  456.106">  4  5 -1 -1</clus>
<clus scale="  300.000">  1  4  2 -1</clus>
</clustering>
</event>
<event>
 6    1  0.9462926E-012  0.3000000E+03  0.7818608E-02  0.1093470E+00
          1   -1    0    0  502    0  0.00000000000E+00  0.00000000000E+00  0.21803629482E+03  0.21803629482E+03  0.00000000000E+00 0.  1.
         13   -1    0    0    0    0 -0.00000000000E+00 -0.00000000000E+00 -0.27500000000E+03  0.27500000000E+03  0.00000000000E+00 0.  1.
    9000005    2    1    2  501    0  0.27187226822E+02 -0.16898682714E+02 -0.49247342318E+02  0.46010829708E+03  0.45634376684E+03 0.  0.
         13    1    3    3    0    0  0.15831757215E+03 -0.18539038805E+03 -0.32484434600E+02  0.24594570158E+03  0.00000000000E+00 0.  1.
          3    1    3    3  501    0 -0.13113034533E+03  0.16849170534E+03 -0.16762907717E+02  0.21416259550E+03  0.00000000000E+00 0.  1.
         21    1    1    2  502  501 -0.27187226822E+02  0.16898682714E+02 -0.77163628601E+01  0.32927997745E+02  0.00000000000E+00 0. -1.
<scales pt_clust_4="550.00000" pt_clust_5="550.00000" pt_clust_6="32.01112"></scales>
<mgrwt>
<rscale>  0 0.30000000E+03</rscale>
<asrwt>  1 0.32011120E+02</asrwt>
<pdfrwt beam="1">  1        1 0.79285925E+00 0.30000000E+03</pdfrwt>
<pdfrwt beam="2">0</pdfrwt>
<totfact> 0.11909882E-03</totfact>
</mgrwt>
<clustering>
<clus scale="   32.011">  1  6  2 -1</clus>
<clus scale="  456.344">  4  5 -1 -1</clus>
<clus scale="  300.000">  1  4  2 -1</clus>
</clustering>
</event>
<event>
 6    1  0.9462926E-012  0.3000000E+03  0.7818608E-02  0.1093470E+00
          1   -1    0    0  502    0  0.00000000000E+00  0.00000000000E+00  0.25891565803E+03  0.25891565803E+03  0.00000000000E+00 0.  1.
         13   -1    0    0    0    0 -0.00000000000E+00 -0.00000000000E+00 -0.27500000000E+03  0.27500000000E+03  0.00000000000E+00 0.  1.
    9000005    2    1    2  501    0  0.45475421331E+01 -0.34380841639E+02 -0.63062087047E+02  0.47552361282E+03  0.47004590958E+03 0.  0.
         13    1    3    3    0    0 -0.15454516111E+03 -0.15801910077E+03 -0.13797670380E+03  0.26056057611E+03  0.00000000000E+00 0.  1.
          3    1    3    3  501    0  0.15909270325E+03  0.12363825913E+03  0.74914616752E+02  0.21496303671E+03  0.00000000000E+00 0.  1.
         21    1    1    2  502  501 -0.45475421331E+01  0.34380841639E+02  0.46977745081E+02  0.58392045213E+02  0.00000000000E+00 0.  1.
<scales pt_clust_4="550.00000" pt_clust_5="550.00000" pt_clust_6="34.68029"></scales>
<mgrwt>
<rscale>  0 0.30000000E+03</rscale>
<asrwt>  1 0.34680289E+02</asrwt>
<pdfrwt beam="1">  1        1 0.94151148E+00 0.30000000E+03</pdfrwt>
<pdfrwt beam="2">0</pdfrwt>
<totfact> 0.18071244E-05</totfact>
</mgrwt>
<clustering>
<clus scale="   34.680">  1  6  2 -1</clus>
<clus scale="  470.046">  4  5 -1 -1</clus>
<clus scale="  300.000">  1  4  2 -1</clus>
</clustering>
</event>
<event>
 6    1  0.9462926E-012  0.3000000E+03  0.7818608E-02  0.1093470E+00
          1   -1    0    0  502    0  0.00000000000E+00  0.00000000000E+00  0.22016599955E+03  0.22016599955E+03  0.00000000000E+00 0.  1.
         13   -1    0    0    0    0 -0.00000000000E+00 -0.00000000000E+00 -0.27500000000E+03  0.27500000000E+03  0.00000000000E+00 0.  1.
    9000005    2    1    2  501    0 -0.84475266241E+01 -0.30668019150E+02 -0.63757879083E+02  0.46212778358E+03  0.45660172263E+03 0.  0.
         13    1    3    3    0    0  0.24965226064E+02 -0.22770177899E+03 -0.11428443242E+03  0.25599276193E+03  0.00000000000E+00 0.  1.
          3    1    3    3  501    0 -0.33412752688E+02  0.19703375984E+03  0.50526553335E+02  0.20613502165E+03  0.00000000000E+00 0.  1.
         21    1    1    2  502  501  0.84475266241E+01  0.30668019150E+02  0.89238786344E+01  0.33038215971E+02  0.00000000000E+00 0.  1.
<scales pt_clust_4="550.00000" pt_clust_5="550.00000" pt_clust_6="31.81019"></scales>
<mgrwt>
<rscale>  0 0.30000000E+03</rscale>
<asrwt>  1 0.31810189E+02</asrwt>
<pdfrwt beam="1">  1        1 0.80060363E+00 0.30000000E+03</pdfrwt>
<pdfrwt beam="2">0</pdfrwt>
<totfact> 0.10453310E-03</totfact>
</mgrwt>
<clustering>
<clus scale="   31.810">  1  6  2 -1</clus>
<clus scale="  456.602">  4  5 -1 -1</clus>
<clus scale="  300.000">  1  4  2 -1</clus>
</clustering>
</event>
<event>
 6    1  0.9462926E-012  0.3000000E+03  0.7818608E-02  0.1093470E+00
          1   -1    0    0  502    0  0.00000000000E+00  0.00000000000E+00  0.23793687372E+03  0.23793687372E+03  0.00000000000E+00 0.  1.
         13   -1    0    0    0    0 -0.00000000000E+00 -0.00000000000E+00 -0.27500000000E+03  0.27500000000E+03  0.00000000000E+00 0.  1.
    9000005    2    1    2  501    0 -0.23126631991E+02 -0.19238995399E+02 -0.39590249771E+02  0.48274802802E+03  0.48018047715E+03 0.  0.
         13    1    3    3    0    0  0.84208812057E+02 -0.10064844183E+03 -0.22085705052E+03  0.25690284085E+03  0.00000000000E+00 0.  1.
          1    1    3    3  501    0 -0.10733544405E+03  0.81409446429E+02  0.18126680075E+03  0.22584518718E+03  0.00000000000E+00 0.  1.
         21    1    1    2  502  501  0.23126631991E+02  0.19238995399E+02  0.25271234889E+01  0.30188845695E+02  0.00000000000E+00 0.  1.
<scales pt_clust_4="550.00000" pt_clust_5="550.00000" pt_clust_6="30.08289"></scales>
<mgrwt>
<rscale>  0 0.30000000E+03</rscale>
<asrwt>  1 0.30082886E+02</asrwt>
<pdfrwt beam="1">  1        1 0.86522500E+00 0.30000000E+03</pdfrwt>
<pdfrwt beam="2">0</pdfrwt>
<totfact> 0.29239372E-04</totfact>
</mgrwt>
<clustering>
<clus scale="   30.083">  1  6  2 -1</clus>
<clus scale="  480.180">  4  5 -1 -1</clus>
<clus scale="  300.000">  1  4  2 -1</clus>
</clustering>
</event>
<event>
 6    1  0.9462926E-012  0.3000000E+03  0.7818608E-02  0.1093470E+00
          1   -1    0    0  502    0  0.00000000000E+00  0.00000000000E+00  0.22488947308E+03  0.22488947308E+03  0.00000000000E+00 0.  1.
         13   -1    0    0    0    0 -0.00000000000E+00 -0.00000000000E+00 -0.27500000000E+03  0.27500000000E+03  0.00000000000E+00 0.  1.
    9000005    2    1    2  501    0  0.28760177525E+02  0.90014673369E+01 -0.65345425329E+02  0.46612149483E+03  0.46053343973E+03 0.  0.
         13    1    3    3    0    0 -0.50306033767E+02 -0.36961810403E+02 -0.25127683411E+03  0.25891488915E+03  0.00000000000E+00 0.  1.
          3    1    3    3  501    0  0.79066211292E+02  0.45963277740E+02  0.18593140878E+03  0.20720660569E+03  0.00000000000E+00 0.  1.
         21    1    1    2  502  501 -0.28760177525E+02 -0.90014673369E+01  0.15234898410E+02  0.33767978249E+02  0.00000000000E+00 0. -1.
<scales pt_clust_4="550.00000" pt_clust_5="550.00000" pt_clust_6="30.13593"></scales>
<mgrwt>
<rscale>  0 0.30000000E+03</rscale>
<asrwt>  1 0.30135929E+02</asrwt>
<pdfrwt beam="1">  1        1 0.81777990E+00 0.30000000E+03</pdfrwt>
<pdfrwt beam="2">0</pdfrwt>
<totfact> 0.77715148E-04</totfact>
</mgrwt>
<clustering>
<clus scale="   30.136">  1  6  2 -1</clus>
<clus scale="  460.533">  4  5 -1 -1</clus>
<clus scale="  300.000">  1  4  2 -1</clus>
</clustering>
</event>
<event>
 6    1  0.9462926E-012  0.3000000E+03  0.7818608E-02  0.1093470E+00
          1   -1    0    0  502    0  0.00000000000E+00  0.00000000000E+00  0.25542842620E+03  0.25542842620E+03  0.00000000000E+00 0.  1.
         13   -1    0    0    0    0 -0.00000000000E+00 -0.00000000000E+00 -0.27500000000E+03  0.27500000000E+03  0.00000000000E+00 0.  1.
    9000005    2    1    2  501    0  0.45434067731E+02 -0.54620877165E+01 -0.72879407065E+01  0.48304724265E+03  0.48081954582E+03 0.  0.
         13    1    3    3    0    0  0.92996552065E+02  0.32352981510E+02 -0.23106380411E+03  0.25116838113E+03  0.00000000000E+00 0.  1.
          1    1    3    3  501    0 -0.47562484334E+02 -0.37815069226E+02  0.22377586341E+03  0.23187886152E+03  0.00000000000E+00 0.  1.
         21    1    1    2  502  501 -0.45434067731E+02  0.54620877165E+01 -0.12283633090E+02  0.47381183551E+02  0.00000000000E+00 0.  1.
<scales pt_clust_4="550.00000" pt_clust_5="550.00000" pt_clust_6="45.76124"></scales>
<mgrwt>
<rscale>  0 0.30000000E+03</rscale>
<asrwt>  1 0.45761239E+02</asrwt>
<pdfrwt beam="1">  1        1 0.92883064E+00 0.30000000E+03</pdfrwt>
<pdfrwt beam="2">0</pdfrwt>
<totfact> 0.26194346E-05</totfact>
</mgrwt>
<clustering>
<clus scale="   45.761">  1  6  2 -1</clus>
<clus scale="  480.820">  4  5 -1 -1</clus>
<clus scale="  300.000">  1  4  2 -1</clus>
</clustering>
</event>
<event>
 6    1  0.9462926E-012  0.3000000E+03  0.7818608E-02  0.1093470E+00
          1   -1    0    0  502    0  0.00000000000E+00  0.00000000000E+00  0.22555625889E+03  0.22555625889E+03  0.00000000000E+00 0.  1.
         13   -1    0    0    0    0 -0.00000000000E+00 -0.00000000000E+00 -0.27500000000E+03  0.27500000000E+03  0.00000000000E+00 0.  1.
    9000005    2    1    2  501    0 -0.17107368092E+02  0.29639769863E+02 -0.62905615373E+02  0.46378126658E+03  0.45821912748E+03 0.  0.
         13    1    3    3    0    0 -0.20123783439E+03 -0.90654028433E+02  0.34214517827E+02  0.22335051397E+03  0.00000000000E+00 0.  1.
          3    1    3    3  501    0  0.18413046630E+03  0.12029379830E+03 -0.97120133200E+02  0.24043075261E+03  0.00000000000E+00 0.  1.
         21    1    1    2  502  501  0.17107368092E+02 -0.29639769863E+02  0.13461874263E+02  0.36774992308E+02  0.00000000000E+00 0.  1.
<scales pt_clust_4="550.00000" pt_clust_5="550.00000" pt_clust_6="34.22248"></scales>
<mgrwt>
<rscale>  0 0.30000000E+03</rscale>
<asrwt>  1 0.34222478E+02</asrwt>
<pdfrwt beam="1">  1        1 0.82020458E+00 0.30000000E+03</pdfrwt>
<pdfrwt beam="2">0</pdfrwt>
<totfact> 0.72338205E-04</totfact>
</mgrwt>
<clustering>
<clus scale="   34.222">  1  6  2 -1</clus>
<clus scale="  458.219">  4  5 -1 -1</clus>
<clus scale="  300.000">  1  4  2 -1</clus>
</clustering>
</event>
<event>
 6    1  0.9462926E-012  0.3000000E+03  0.7818608E-02  0.1093470E+00
          1   -1    0    0  502    0  0.00000000000E+00  0.00000000000E+00  0.23806498612E+03  0.23806498612E+03  0.00000000000E+00 0.  1.
         13   -1    0    0    0    0 -0.00000000000E+00 -0.00000000000E+00 -0.27500000000E+03  0.27500000000E+03  0.00000000000E+00 0.  1.
    9000005    2    1    2  501    0  0.85977133231E+01  0.35255839197E+02 -0.45383609064E+02  0.47580544194E+03  0.47224384775E+03 0.  0.
         13    1    3    3    0    0  0.65193071036E+02  0.67059762963E+02  0.20063637035E+03  0.22136418280E+03  0.00000000000E+00 0.  1.
          3    1    3    3  501    0 -0.56595357713E+02 -0.31803923766E+02 -0.24601997941E+03  0.25444125914E+03  0.00000000000E+00 0.  1.
         21    1    1    2  502  501 -0.85977133231E+01 -0.35255839197E+02  0.84485951827E+01  0.37259544179E+02  0.00000000000E+00 0. -1.
<scales pt_clust_4="550.00000" pt_clust_5="550.00000" pt_clust_6="36.28905"></scales>
<mgrwt>
<rscale>  0 0.30000000E+03</rscale>
<asrwt>  1 0.36289046E+02</asrwt>
<pdfrwt beam="1">  1        1 0.86569086E+00 0.30000000E+03</pdfrwt>
<pdfrwt beam="2">0</pdfrwt>
<totfact> 0.27897772E-04</totfact>
</mgrwt>
<clustering>
<clus scale="   36.289">  1  6  2 -1</clus>
<clus scale="  472.244">  4  5 -1 -1</clus>
<clus scale="  300.000">  1  4  2 -1</clus>
</clustering>
</event>
<event>
 6    1  0.9462926E-012  0.3000000E+03  0.7818608E-02  0.1093470E+00
          1   -1    0    0  502    0  0.00000000000E+00  0.00000000000E+00  0.24137389250E+03  0.24137389250E+03  0.00000000000E+00 0.  1.
         13   -1    0    0    0    0 -0.00000000000E+00 -0.00000000000E+00 -0.27500000000E+03  0.27500000000E+03  0.00000000000E+00 0.  1.
    9000005    2    1    2  501    0 -0.36443110830E+02 -0.56720937776E+01 -0.26375525370E+02  0.47878607644E+03  0.47663420532E+03 0.  0.
         13    1    3    3    0    0 -0.23286765078E+03 -0.10293708537E+03 -0.45983245567E+02  0.25872349177E+03  0.00000000000E+00 0.  1.
          3    1    3    3  501    0  0.19642453995E+03  0.97264991588E+02  0.19607720198E+02  0.22006258467E+03  0.00000000000E+00 0.  1.
         21    1    1    2  502  501  0.36443110830E+02  0.56720937776E+01 -0.72505821293E+01  0.37587816058E+02  0.00000000000E+00 0.  1.
<scales pt_clust_4="550.00000" pt_clust_5="550.00000" pt_clust_6="36.88190"></scales>
<mgrwt>
<rscale>  0 0.30000000E+03</rscale>
<asrwt>  1 0.36881897E+02</asrwt>
<pdfrwt beam="1">  1        1 0.87772325E+00 0.30000000E+03</pdfrwt>
<pdfrwt beam="2">0</pdfrwt>
<totfact> 0.20798660E-04</totfact>
</mgrwt>
<clustering>
<clus scale="   36.882">  1  6  2 -1</clus>
<clus scale="  476.634">  4  5 -1 -1</clus>
<clus scale="  300.000">  1  4  2 -1</clus>
</clustering>
</event>
<event>
 6    1  0.9462926E-012  0.3000000E+03  0.7818608E-02  0.1093470E+00
          1   -1    0    0  502    0  0.00000000000E+00  0.00000000000E+00  0.22066603281E+03  0.22066603281E+03  0.00000000000E+00 0.  1.
         13   -1    0    0    0    0 -0.00000000000E+00 -0.00000000000E+00 -0.27500000000E+03  0.27500000000E+03  0.00000000000E+00 0.  1.
    9000005    2    1    2  501    0  0.26890477386E+02 -0.18460482375E+02 -0.52395496997E+02  0.46299119768E+03  0.45885910021E+03 0.  0.
         13    1    3    3    0    0  0.16728647321E+03  0.15538685910E+03  0.17143006585E+02  0.22896227370E+03  0.00000000000E+00 0.  1.
          3    1    3    3  501    0 -0.14039599583E+03 -0.17384734148E+03 -0.69538503582E+02  0.23402892399E+03  0.00000000000E+00 0.  1.
         21    1    1    2  502  501 -0.26890477386E+02  0.18460482375E+02 -0.19384701966E+01  0.32674835123E+02  0.00000000000E+00 0. -1.
<scales pt_clust_4="550.00000" pt_clust_5="550.00000" pt_clust_6="32.61728"></scales>
<mgrwt>
<rscale>  0 0.30000000E+03</rscale>
<asrwt>  1 0.32617284E+02</asrwt>
<pdfrwt beam="1">  1        1 0.80242194E+00 0.30000000E+03</pdfrwt>
<pdfrwt beam="2">0</pdfrwt>
<totfact> 0.10091866E-03</totfact>
</mgrwt>
<clustering>
<clus scale="   32.617">  1  6  2 -1</clus>
<clus scale="  458.859">  4  5 -1 -1</clus>
<clus scale="  300.000">  1  4  2 -1</clus>
</clustering>
</event>
<event>
 6    1  0.9462926E-012  0.3000000E+03  0.7818608E-02  0.1093470E+00
          1   -1    0    0  502    0  0.00000000000E+00  0.00000000000E+00  0.23026372421E+03  0.23026372421E+03  0.00000000000E+00 0.  1.
         13   -1    0    0    0    0 -0.00000000000E+00 -0.00000000000E+00 -0.27500000000E+03  0.27500000000E+03  0.00000000000E+00 0.  1.
    9000005    2    1    2  501    0 -0.11548241316E+02 -0.31054943416E+02 -0.49790500933E+02  0.47174780889E+03  0.46794137434E+03 0.  0.
         13    1    3    3    0    0 -0.17003754841E+03 -0.15405472886E+03 -0.12033568340E+03  0.25908744480E+03  0.00000000000E+00 0.  1.
          3    1    3    3  501    0  0.15848930710E+03  0.12299978544E+03  0.70545182466E+02  0.21266036409E+03  0.00000000000E+00 0.  1.
         21    1    1    2  502  501  0.11548241316E+02  0.31054943416E+02  0.50542251408E+01  0.33515915321E+02  0.00000000000E+00 0. -1.
<scales pt_clust_4="550.00000" pt_clust_5="550.00000" pt_clust_6="33.13263"></scales>
<mgrwt>
<rscale>  0 0.30000000E+03</rscale>
<asrwt>  1 0.33132633E+02</asrwt>
<pdfrwt beam="1">  1        1 0.83732263E+00 0.30000000E+03</pdfrwt>
<pdfrwt beam="2">0</pdfrwt>
<totfact> 0.52576050E-04</totfact>
</mgrwt>
<clustering>
<clus scale="   33.133">  1  6  2 -1</clus>
<clus scale="  467.941">  4  5 -1 -1</clus>
<clus scale="  300.000">  1  4  2 -1</clus>
</clustering>
</event>
<event>
 6    1  0.9462926E-012  0.3000000E+03  0.7818608E-02  0.1093470E+00
          1   -1    0    0  502    0  0.00000000000E+00  0.00000000000E+00  0.24718243493E+03  0.24718243493E+03  0.00000000000E+00 0.  1.
         13   -1    0    0    0    0 -0.00000000000E+00 -0.00000000000E+00 -0.27500000000E+03  0.27500000000E+03  0.00000000000E+00 0.  1.
    9000005    2    1    2  501    0  0.35083199590E+02 -0.38327151091E+01 -0.39978301110E+02  0.48485410655E+03  0.48191256414E+03 0.  0.
         13    1    3    3    0    0  0.71778715592E+02 -0.21253017235E+03 -0.12469046062E+03  0.25664950641E+03  0.00000000000E+00 0.  1.
          3    1    3    3  501    0 -0.36695516003E+02  0.20869745724E+03  0.84712159510E+02  0.22820460014E+03  0.00000000000E+00 0.  1.
         21    1    1    2  502  501 -0.35083199590E+02  0.38327151091E+01  0.12160736036E+02  0.37328328378E+02  0.00000000000E+00 0.  1.
<scales pt_clust_4="550.00000" pt_clust_5="550.00000" pt_clust_6="35.29193"></scales>
<mgrwt>
<rscale>  0 0.30000000E+03</rscale>
<asrwt>  1 0.35291934E+02</asrwt>
<pdfrwt beam="1">  1        1 0.89884522E+00 0.30000000E+03</pdfrwt>
<pdfrwt beam="2">0</pdfrwt>
<totfact> 0.11389734E-04</totfact>
</mgrwt>
<clustering>
<clus scale="   35.292">  1  6  2 -1</clus>
<clus scale="  481.913">  4  5 -1 -1</clus>
<clus scale="  300.000">  1  4  2 -1</clus>
</clustering>
</event>
<event>
 6    1  0.9462926E-012  0.3000000E+03  0.7818608E-02  0.1093470E+00
          1   -1    0    0  502    0  0.00000000000E+00  0.00000000000E+00  0.22990024227E+03  0.22990024227E+03  0.00000000000E+00 0.  1.
         13   -1    0    0    0    0 -0.00000000000E+00 -0.00000000000E+00 -0.27500000000E+03  0.27500000000E+03  0.00000000000E+00 0.  1.
    9000005    2    1    2  501    0 -0.12022058679E+02 -0.28545239368E+02 -0.35130676428E+02  0.47236190845E+03  0.47003430464E+03 0.  0.
         13    1    3    3    0    0 -0.23222370899E+03  0.16008580071E+02 -0.74224092284E+02  0.24432220842E+03  0.00000000000E+00 0.  1.
          3    1    3    3  501    0  0.22020165031E+03 -0.44553819439E+02  0.39093415855E+02  0.22803970003E+03  0.00000000000E+00 0.  1.
         21    1    1    2  502  501  0.12022058679E+02  0.28545239368E+02 -0.99690813052E+01  0.32538333816E+02  0.00000000000E+00 0. -1.
<scales pt_clust_4="550.00000" pt_clust_5="550.00000" pt_clust_6="30.97356"></scales>
<mgrwt>
<rscale>  0 0.30000000E+03</rscale>
<asrwt>  1 0.30973562E+02</asrwt>
<pdfrwt beam="1">  1        1 0.83600088E+00 0.30000000E+03</pdfrwt>
<pdfrwt beam="2">0</pdfrwt>
<totfact> 0.54444125E-04</totfact>
</mgrwt>
<clustering>
<clus scale="   30.974">  1  6  2 -1</clus>
<clus scale="  470.034">  4  5 -1 -1</clus>
<clus scale="  300.000">  1  4  2 -1</clus>
</clustering>
</event>
<event>
 6    1  0.9462926E-012  0.3000000E+03  0.7818608E-02  0.1093470E+00
          1   -1    0    0  502    0  0.00000000000E+00  0.00000000000E+00  0.22691543948E+03  0.22691543948E+03  0.00000000000E+00 0.  1.
         13   -1    0    0    0    0 -0.00000000000E+00 -0.00000000000E+00 -0.27500000000E+03  0.27500000000E+03  0.00000000000E+00 0.  1.
    9000005    2    1    2  501    0 -0.20333359050E+02  0.26439719369E+02 -0.66620325097E+02  0.46375683863E+03  0.45773314650E+03 0.  0.
         13    1    3    3    0    0  0.20955647944E+03 -0.29598683400E+02 -0.81218186490E+02  0.22668567213E+03  0.00000000000E+00 0.  1.
          3    1    3    3  501    0 -0.22988983849E+03  0.56038402769E+02  0.14597861394E+02  0.23707116649E+03  0.00000000000E+00 0.  1.
         21    1    1    2  502  501  0.20333359050E+02 -0.26439719369E+02  0.18535764578E+02  0.38158600853E+02  0.00000000000E+00 0. -1.
<scales pt_clust_4="550.00000" pt_clust_5="550.00000" pt_clust_6="33.35422"></scales>
<mgrwt>
<rscale>  0 0.30000000E+03</rscale>
<asrwt>  1 0.33354224E+02</asrwt>
<pdfrwt beam="1">  1        1 0.82514705E+00 0.30000000E+03</pdfrwt>
<pdfrwt beam="2">0</pdfrwt>
<totfact> 0.65712029E-04</totfact>
</mgrwt>
<clustering>
<clus scale="   33.354">  1  6  2 -1</clus>
<clus scale="  457.733">  4  5 -1 -1</clus>
<clus scale="  300.000">  1  4  2 -1</clus>
</clustering>
</event>
<event>
 6    1  0.9462926E-012  0.3000000E+03  0.7818608E-02  0.1093470E+00
          1   -1    0    0  502    0  0.00000000000E+00  0.00000000000E+00  0.24368127753E+03  0.24368127753E+03  0.00000000000E+00 0.  1.
         13   -1    0    0    0    0 -0.00000000000E+00 -0.00000000000E+00 -0.27500000000E+03  0.27500000000E+03  0.00000000000E+00 0.  1.
    9000005    2    1    2  501    0 -0.20057043524E+01  0.34695584266E+02 -0.25651652857E+02  0.48346875000E+03  0.48153527234E+03 0.  0.
         13    1    3    3    0    0 -0.16474952356E+03  0.10283101472E+03  0.14161058622E+03  0.24035428273E+03  0.00000000000E+00 0.  1.
          1    1    3    3  501    0  0.16274381920E+03 -0.68135430455E+02 -0.16726223907E+03  0.24311446726E+03  0.00000000000E+00 0.  1.
         21    1    1    2  502  501  0.20057043524E+01 -0.34695584266E+02 -0.56670696098E+01  0.35212527536E+02  0.00000000000E+00 0. -1.
<scales pt_clust_4="550.00000" pt_clust_5="550.00000" pt_clust_6="34.75353"></scales>
<mgrwt>
<rscale>  0 0.30000000E+03</rscale>
<asrwt>  1 0.34753527E+02</asrwt>
<pdfrwt beam="1">  1        1 0.88611374E+00 0.30000000E+03</pdfrwt>
<pdfrwt beam="2">0</pdfrwt>
<totfact> 0.16404180E-04</totfact>
</mgrwt>
<clustering>
<clus scale="   34.754">  1  6  2 -1</clus>
<clus scale="  481.535">  4  5 -1 -1</clus>
<clus scale="  300.000">  1  4  2 -1</clus>
</clustering>
</event>
<event>
 6    1  0.9462926E-012  0.3000000E+03  0.7818608E-02  0.1093470E+00
          1   -1    0    0  502    0  0.00000000000E+00  0.00000000000E+00  0.22991912800E+03  0.22991912800E+03  0.00000000000E+00 0.  1.
         13   -1    0    0    0    0 -0.00000000000E+00 -0.00000000000E+00 -0.27500000000E+03  0.27500000000E+03  0.00000000000E+00 0.  1.
    9000005    2    1    2  501    0 -0.35107968555E+02  0.16568311305E+02 -0.33791850322E+02  0.46448992560E+03  0.46162963883E+03 0.  0.
         13    1    3    3    0    0  0.46464981454E+01 -0.13680687434E+03  0.16234399944E+03  0.21235179530E+03  0.00000000000E+00 0.  1.
          3    1    3    3  501    0 -0.39754466701E+02  0.15337518565E+03 -0.19613584976E+03  0.25213813031E+03  0.00000000000E+00 0.  1.
         21    1    1    2  502  501  0.35107968555E+02 -0.16568311305E+02 -0.11289021681E+02  0.40429202392E+02  0.00000000000E+00 0.  1.
<scales pt_clust_4="550.00000" pt_clust_5="550.00000" pt_clust_6="38.82113"></scales>
<mgrwt>
<rscale>  0 0.30000000E+03</rscale>
<asrwt>  1 0.38821127E+02</asrwt>
<pdfrwt beam="1">  1        1 0.83606956E+00 0.30000000E+03</pdfrwt>
<pdfrwt beam="2">0</pdfrwt>
<totfact> 0.52128332E-04</totfact>
</mgrwt>
<clustering>
<clus scale="   38.821">  1  6  2 -1</clus>
<clus scale="  461.630">  4  5 -1 -1</clus>
<clus scale="  300.000">  1  4  2 -1</clus>
</clustering>
</event>
<event>
 6    1  0.9462926E-012  0.3000000E+03  0.7818608E-02  0.1093470E+00
          1   -1    0    0  502    0  0.00000000000E+00  0.00000000000E+00  0.23929523318E+03  0.23929523318E+03  0.00000000000E+00 0.  1.
         13   -1    0    0    0    0 -0.00000000000E+00 -0.00000000000E+00 -0.27500000000E+03  0.27500000000E+03  0.00000000000E+00 0.  1.
    9000005    2    1    2  501    0 -0.20550208396E+01 -0.49984253957E+02 -0.36360869758E+02  0.46426445040E+03  0.46012685023E+03 0.  0.
         13    1    3    3    0    0 -0.12490377969E+03  0.76500342203E+02 -0.18337631373E+03  0.23469156136E+03  0.00000000000E+00 0.  1.
          3    1    3    3  501    0  0.12284875885E+03 -0.12648459616E+03  0.14701544397E+03  0.22957288904E+03  0.00000000000E+00 0.  1.
         21    1    1    2  502  501  0.20550208396E+01  0.49984253957E+02  0.65610294004E+00  0.50030782778E+02  0.00000000000E+00 0. -1.
<scales pt_clust_4="550.00000" pt_clust_5="550.00000" pt_clust_6="50.02648"></scales>
<mgrwt>
<rscale>  0 0.30000000E+03</rscale>
<asrwt>  1 0.50026481E+02</asrwt>
<pdfrwt beam="1">  1        1 0.87016448E+00 0.30000000E+03</pdfrwt>
<pdfrwt beam="2">0</pdfrwt>
<totfact> 0.23647305E-04</totfact>
</mgrwt>
<clustering>
<clus scale="   50.026">  1  6  2 -1</clus>
<clus scale="  460.127">  4  5 -1 -1</clus>
<clus scale="  300.000">  1  4  2 -1</clus>
</clustering>
</event>
<event>
 6    1  0.9462926E-012  0.3000000E+03  0.7818608E-02  0.1093470E+00
          1   -1    0    0  502    0  0.00000000000E+00  0.00000000000E+00  0.24274322445E+03  0.24274322445E+03  0.00000000000E+00 0.  1.
         13   -1    0    0    0    0 -0.00000000000E+00 -0.00000000000E+00 -0.27500000000E+03  0.27500000000E+03  0.00000000000E+00 0.  1.
    9000005    2    1    2  501    0 -0.14095405121E+02  0.29751369557E+02 -0.27958459898E+02  0.48454232155E+03  0.48261347003E+03 0.  0.
         13    1    3    3    0    0 -0.49435598362E+02  0.62093423705E+02 -0.24745856596E+03  0.25987538075E+03  0.00000000000E+00 0.  1.
          1    1    3    3  501    0  0.35340193242E+02 -0.32342054148E+02  0.21950010606E+03  0.22466694080E+03  0.00000000000E+00 0.  1.
         21    1    1    2  502  501  0.14095405121E+02 -0.29751369557E+02 -0.42983156537E+01  0.33200902901E+02  0.00000000000E+00 0. -1.
<scales pt_clust_4="550.00000" pt_clust_5="550.00000" pt_clust_6="32.92151"></scales>
<mgrwt>
<rscale>  0 0.30000000E+03</rscale>
<asrwt>  1 0.32921505E+02</asrwt>
<pdfrwt beam="1">  1        1 0.88270263E+00 0.30000000E+03</pdfrwt>
<pdfrwt beam="2">0</pdfrwt>
<totfact> 0.18437241E-04</totfact>
</mgrwt>
<clustering>
<clus scale="   32.922">  1  6  2 -1</clus>
<clus scale="  482.613">  4  5 -1 -1</clus>
<clus scale="  300.000">  1  4  2 -1</clus>
</clustering>
</event>
<event>
 6    1  0.9462926E-012  0.3000000E+03  0.7818608E-02  0.1093470E+00
          1   -1    0    0  502    0  0.00000000000E+00  0.00000000000E+00  0.24302176634E+03  0.24302176634E+03  0.00000000000E+00 0.  1.
         13   -1    0    0    0    0 -0.00000000000E+00 -0.00000000000E+00 -0.27500000000E+03  0.27500000000E+03  0.00000000000E+00 0.  1.
    9000005    2    1    2  501    0 -0.35371190642E+02 -0.35154707020E+01 -0.52990451644E+02  0.47673020587E+03  0.47244070692E+03 0.  0.
         13    1    3    3    0    0  0.20096411850E+03  0.77560174502E+02  0.20250795070E+02  0.21636139280E+03  0.00000000000E+00 0.  1.
          3    1    3    3  501    0 -0.23633530915E+03 -0.81075645204E+02 -0.73241246714E+02  0.26036881306E+03  0.00000000000E+00 0.  1.
         21    1    1    2  502  501  0.35371190642E+02  0.35154707020E+01  0.21012217981E+02  0.41291560471E+02  0.00000000000E+00 0.  1.
<scales pt_clust_4="550.00000" pt_clust_5="550.00000" pt_clust_6="35.54546"></scales>
<mgrwt>
<rscale>  0 0.30000000E+03</rscale>
<asrwt>  1 0.35545459E+02</asrwt>
<pdfrwt beam="1">  1        1 0.88371551E+00 0.30000000E+03</pdfrwt>
<pdfrwt beam="2">0</pdfrwt>
<totfact> 0.17616197E-04</totfact>
</mgrwt>
<clustering>
<clus scale="   35.545">  1  6  2 -1</clus>
<clus scale="  472.441">  4  5 -1 -1</clus>
<clus scale="  300.000">  1  4  2 -1</clus>
</clustering>
</event>
<event>
 6    1  0.9462926E-012  0.3000000E+03  0.7818608E-02  0.1093470E+00
          1   -1    0    0  502    0  0.00000000000E+00  0.00000000000E+00  0.23175290567E+03  0.23175290567E+03  0.00000000000E+00 0.  1.
         13   -1    0    0    0    0 -0.00000000000E+00 -0.00000000000E+00 -0.27500000000E+03  0.27500000000E+03  0.00000000000E+00 0.  1.
    9000005    2    1    2  501    0  0.31817950529E+02 -0.81305109339E+00 -0.70856768365E+02  0.46461815602E+03  0.45807893015E+03 0.  0.
         13    1    3    3    0    0 -0.15226035399E+03 -0.94061403438E+02 -0.15978620769E+03  0.23992164384E+03  0.00000000000E+00 0.  1.
          1    1    3    3  501    0  0.18407830451E+03  0.93248352344E+02  0.88929439326E+02  0.22469651218E+03  0.00000000000E+00 0.  1.
         21    1    1    2  502  501 -0.31817950529E+02  0.81305109339E+00  0.27609674031E+02  0.42134749650E+02  0.00000000000E+00 0. -1.
<scales pt_clust_4="550.00000" pt_clust_5="550.00000" pt_clust_6="31.82834"></scales>
<mgrwt>
<rscale>  0 0.30000000E+03</rscale>
<asrwt>  1 0.31828337E+02</asrwt>
<pdfrwt beam="1">  1        1 0.84273784E+00 0.30000000E+03</pdfrwt>
<pdfrwt beam="2">0</pdfrwt>
<totfact> 0.48098036E-04</totfact>
</mgrwt>
<clustering>
<clus scale="   31.828">  1  6  2 -1</clus>
<clus scale="  458.079">  4  5 -1 -1</clus>
<clus scale="  300.000">  1  4  2 -1</clus>
</clustering>
</event>
<event>
 6    1  0.9462926E-012  0.3000000E+03  0.7818608E-02  0.1093470E+00
          1   -1    0    0  502    0  0.00000000000E+00  0.00000000000E+00  0.23790192867E+03  0.23790192867E+03  0.00000000000E+00 0.  1.
         13   -1    0    0    0    0 -0.00000000000E+00 -0.00000000000E+00 -0.27500000000E+03  0.27500000000E+03  0.00000000000E+00 0.  1.
    9000005    2    1    2  501    0  0.38305686973E+02 -0.74573361944E+01 -0.57972290320E+02  0.46864505874E+03  0.46340529466E+03 0.  0.
         13    1    3    3    0    0  0.31940064896E+02 -0.19539228030E+03 -0.16013686259E+03  0.25464117049E+03  0.00000000000E+00 0.  1.
          3    1    3    3  501    0  0.63656220770E+01  0.18793494411E+03  0.10216457227E+03  0.21400388825E+03  0.00000000000E+00 0.  1.
         21    1    1    2  502  501 -0.38305686973E+02  0.74573361944E+01  0.20874218994E+02  0.44256869933E+02  0.00000000000E+00 0. -1.
<scales pt_clust_4="550.00000" pt_clust_5="550.00000" pt_clust_6="39.02483"></scales>
<mgrwt>
<rscale>  0 0.30000000E+03</rscale>
<asrwt>  1 0.39024832E+02</asrwt>
<pdfrwt beam="1">  1        1 0.86509792E+00 0.30000000E+03</pdfrwt>
<pdfrwt beam="2">0</pdfrwt>
<totfact> 0.27932180E-04</totfact>
</mgrwt>
<clustering>
<clus scale="   39.025">  1  6  2 -1</clus>
<clus scale="  463.405">  4  5 -1 -1</clus>
<clus scale="  300.000">  1  4  2 -1</clus>
</clustering>
</event>
<event>
 6    1  0.9462926E-012  0.3000000E+03  0.7818608E-02  0.1093470E+00
          1   -1    0    0  502    0  0.00000000000E+00  0.00000000000E+00  0.22044225136E+03  0.22044225136E+03  0.00000000000E+00 0.  1.
         13   -1    0    0    0    0 -0.00000000000E+00 -0.00000000000E+00 -0.27500000000E+03  0.27500000000E+03  0.00000000000E+00 0.  1.
    9000005    2    1    2  501    0  0.30553491378E+02  0.19711262173E+00 -0.66721729970E+02  0.46255582360E+03  0.45669743377E+03 0.  0.
         13    1    3    3    0    0 -0.12979405965E+03  0.13898006619E+03 -0.14220793744E+03  0.23745537305E+03  0.00000000000E+00 0.  1.
          3    1    3    3  501    0  0.16034755102E+03 -0.13878295357E+03  0.75486207469E+02  0.22510045055E+03  0.00000000000E+00 0.  1.
         21    1    1    2  502  501 -0.30553491378E+02 -0.19711262173E+00  0.12163981327E+02  0.32886427755E+02  0.00000000000E+00 0. -1.
<scales pt_clust_4="550.00000" pt_clust_5="550.00000" pt_clust_6="30.55413"></scales>
<mgrwt>
<rscale>  0 0.30000000E+03</rscale>
<asrwt>  1 0.30554127E+02</asrwt>
<pdfrwt beam="1">  1        1 0.80160819E+00 0.30000000E+03</pdfrwt>
<pdfrwt beam="2">0</pdfrwt>
<totfact> 0.10358930E-03</totfact>
</mgrwt>
<clustering>
<clus scale="   30.554">  1  6  2 -1</clus>
<clus scale="  456.697">  4  5 -1 -1</clus>
<clus scale="  300.000">  1  4  2 -1</clus>
</clustering>
</event>
<event>
 6    1  0.9462926E-012  0.3000000E+03  0.7818608E-02  0.1093470E+00
          1   -1    0    0  502    0  0.00000000000E+00  0.00000000000E+00  0.25351938752E+03  0.25351938752E+03  0.00000000000E+00 0.  1.
         13   -1    0    0    0    0 -0.00000000000E+00 -0.00000000000E+00 -0.27500000000E+03  0.27500000000E+03  0.00000000000E+00 0.  1.
    9000005    2    1    2  501    0 -0.20230806546E+02 -0.37633725963E+02 -0.62252479053E+02  0.46946070512E+03  0.46334911205E+03 0.  0.
         13    1    3    3    0    0 -0.12608559346E+03 -0.11582467353E+03 -0.21042886104E+03  0.27128073546E+03  0.00000000000E+00 0.  1.
          3    1    3    3  501    0  0.10585478691E+03  0.78190947563E+02  0.14817638198E+03  0.19817996965E+03  0.00000000000E+00 0.  1.
         21    1    1    2  502  501  0.20230806546E+02  0.37633725963E+02  0.40771866571E+02  0.59058682402E+02  0.00000000000E+00 0. -1.
<scales pt_clust_4="550.00000" pt_clust_5="550.00000" pt_clust_6="42.72684"></scales>
<mgrwt>
<rscale>  0 0.30000000E+03</rscale>
<asrwt>  1 0.42726840E+02</asrwt>
<pdfrwt beam="1">  1        1 0.92188868E+00 0.30000000E+03</pdfrwt>
<pdfrwt beam="2">0</pdfrwt>
<totfact> 0.36710201E-05</totfact>
</mgrwt>
<clustering>
<clus scale="   42.727">  1  6  2 -1</clus>
<clus scale="  463.349">  4  5 -1 -1</clus>
<clus scale="  300.000">  1  4  2 -1</clus>
</clustering>
</event>
<event>
 6    1  0.9462926E-012  0.3000000E+03  0.7818608E-02  0.1093470E+00
          1   -1    0    0  502    0  0.00000000000E+00  0.00000000000E+00  0.25301323872E+03  0.25301323872E+03  0.00000000000E+00 0.  1.
         13   -1    0    0    0    0 -0.00000000000E+00 -0.00000000000E+00 -0.27500000000E+03  0.27500000000E+03  0.00000000000E+00 0.  1.
    9000005    2    1    2  501    0 -0.23815762499E+02 -0.30108939449E+02 -0.27457392344E+02  0.48923609878E+03  0.48695411814E+03 0.  0.
         13    1    3    3    0    0  0.15981328630E+03 -0.18580231978E+03 -0.39241696356E+02  0.24819891065E+03  0.00000000000E+00 0.  1.
          3    1    3    3  501    0 -0.18362904880E+03  0.15569338033E+03  0.11784304012E+02  0.24103718813E+03  0.00000000000E+00 0.  1.
         21    1    1    2  502  501  0.23815762499E+02  0.30108939449E+02  0.54706310666E+01  0.38777139946E+02  0.00000000000E+00 0. -1.
<scales pt_clust_4="550.00000" pt_clust_5="550.00000" pt_clust_6="38.38931"></scales>
<mgrwt>
<rscale>  0 0.30000000E+03</rscale>
<asrwt>  1 0.38389306E+02</asrwt>
<pdfrwt beam="1">  1        1 0.92004814E+00 0.30000000E+03</pdfrwt>
<pdfrwt beam="2">0</pdfrwt>
<totfact> 0.40990943E-05</totfact>
</mgrwt>
<clustering>
<clus scale="   38.389">  1  6  2 -1</clus>
<clus scale="  486.954">  4  5 -1 -1</clus>
<clus scale="  300.000">  1  4  2 -1</clus>
</clustering>
</event>
<event>
 6    1  0.9462926E-012  0.3000000E+03  0.7818608E-02  0.1093470E+00
          1   -1    0    0  502    0  0.00000000000E+00  0.00000000000E+00  0.23137541953E+03  0.23137541953E+03  0.00000000000E+00 0.  1.
         13   -1    0    0    0    0 -0.00000000000E+00 -0.00000000000E+00 -0.27500000000E+03  0.27500000000E+03  0.00000000000E+00 0.  1.
    9000005    2    1    2  501    0  0.18605345256E+02 -0.27882315926E+02 -0.65144810692E+02  0.46654198229E+03  0.46075372214E+03 0.  0.
         13    1    3    3    0    0  0.23773654791E+03 -0.18044695181E+02 -0.25510685776E+01  0.23843402691E+03  0.00000000000E+00 0.  1.
          1    1    3    3  501    0 -0.21913120265E+03 -0.98376207449E+01 -0.62593742114E+02  0.22810795539E+03  0.00000000000E+00 0.  1.
         21    1    1    2  502  501 -0.18605345256E+02  0.27882315926E+02  0.21520230224E+02  0.39833437240E+02  0.00000000000E+00 0.  1.
<scales pt_clust_4="550.00000" pt_clust_5="550.00000" pt_clust_6="33.51988"></scales>
<mgrwt>
<rscale>  0 0.30000000E+03</rscale>
<asrwt>  1 0.33519881E+02</asrwt>
<pdfrwt beam="1">  1        1 0.84136516E+00 0.30000000E+03</pdfrwt>
<pdfrwt beam="2">0</pdfrwt>
<totfact> 0.48887165E-04</totfact>
</mgrwt>
<clustering>
<clus scale="   33.520">  1  6  2 -1</clus>
<clus scale="  460.754">  4  5 -1 -1</clus>
<clus scale="  300.000">  1  4  2 -1</clus>
</clustering>
</event>
<event>
 6    1  0.9462926E-012  0.3000000E+03  0.7818608E-02  0.1093470E+00
          1   -1    0    0  502    0  0.00000000000E+00  0.00000000000E+00  0.21964152817E+03  0.21964152817E+03  0.00000000000E+00 0.  1.
         13   -1    0    0    0    0 -0.00000000000E+00 -0.00000000000E+00 -0.27500000000E+03  0.27500000000E+03  0.00000000000E+00 0.  1.
    9000005    2    1    2  501    0 -0.25923625623E+01  0.30308767520E+02 -0.39398439514E+02  0.46028946325E+03  0.45759022194E+03 0.  0.
         13    1    3    3    0    0  0.14015870319E+03  0.23243541495E+02 -0.19998325411E+03  0.24531209963E+03  0.00000000000E+00 0.  1.
          1    1    3    3  501    0 -0.14275106576E+03  0.70652260242E+01  0.16058481459E+03  0.21497736362E+03  0.00000000000E+00 0.  1.
         21    1    1    2  502  501  0.25923625623E+01 -0.30308767520E+02 -0.15960032320E+02  0.34352064914E+02  0.00000000000E+00 0.  1.
<scales pt_clust_4="550.00000" pt_clust_5="550.00000" pt_clust_6="30.41945"></scales>
<mgrwt>
<rscale>  0 0.30000000E+03</rscale>
<asrwt>  1 0.30419445E+02</asrwt>
<pdfrwt beam="1">  1        1 0.79869647E+00 0.30000000E+03</pdfrwt>
<pdfrwt beam="2">0</pdfrwt>
<totfact> 0.10883436E-03</totfact>
</mgrwt>
<clustering>
<clus scale="   30.419">  1  6  2 -1</clus>
<clus scale="  457.590">  4  5 -1 -1</clus>
<clus scale="  300.000">  1  4  2 -1</clus>
</clustering>
</event>
<event>
 6    1  0.9462926E-012  0.3000000E+03  0.7818608E-02  0.1093470E+00
          1   -1    0    0  502    0  0.00000000000E+00  0.00000000000E+00  0.23508596676E+03  0.23508596676E+03  0.00000000000E+00 0.  1.
         13   -1    0    0    0    0 -0.00000000000E+00 -0.00000000000E+00 -0.27500000000E+03  0.27500000000E+03  0.00000000000E+00 0.  1.
    9000005    2    1    2  501    0 -0.27096329434E+02  0.23025865738E+02 -0.67369577886E+02  0.46516149132E+03  0.45888141324E+03 0.  0.
         13    1    3    3    0    0  0.90002498060E+02  0.11214187203E+03  0.14668293123E+03  0.20540723316E+03  0.00000000000E+00 0.  1.
          3    1    3    3  501    0 -0.11709882749E+03 -0.89116006289E+02 -0.21405250911E+03  0.25975425817E+03  0.00000000000E+00 0.  1.
         21    1    1    2  502  501  0.27096329434E+02 -0.23025865738E+02  0.27455544650E+02  0.44924475443E+02  0.00000000000E+00 0. -1.
<scales pt_clust_4="550.00000" pt_clust_5="550.00000" pt_clust_6="35.55842"></scales>
<mgrwt>
<rscale>  0 0.30000000E+03</rscale>
<asrwt>  1 0.35558425E+02</asrwt>
<pdfrwt beam="1">  1        1 0.85485806E+00 0.30000000E+03</pdfrwt>
<pdfrwt beam="2">0</pdfrwt>
<totfact> 0.36443884E-04</totfact>
</mgrwt>
<clustering>
<clus scale="   35.558">  1  6  2 -1</clus>
<clus scale="  458.881">  4  5 -1 -1</clus>
<clus scale="  300.000">  1  4  2 -1</clus>
</clustering>
</event>
<event>
 6    1  0.9462926E-012  0.3000000E+03  0.7818608E-02  0.1093470E+00
          1   -1    0    0  502    0  0.00000000000E+00  0.00000000000E+00  0.22860419281E+03  0.22860419281E+03  0.00000000000E+00 0.  1.
         13   -1    0    0    0    0 -0.00000000000E+00 -0.00000000000E+00 -0.27500000000E+03  0.27500000000E+03  0.00000000000E+00 0.  1.
    9000005    2    1    2  501    0 -0.30236317099E+02 -0.51864862407E+01 -0.27711251991E+02  0.46768418288E+03  0.46585346077E+03 0.  0.
         13    1    3    3    0    0  0.24194733482E+02 -0.20492622205E+03  0.94846411641E+02  0.22710346411E+03  0.00000000000E+00 0.  1.
          1    1    3    3  501    0 -0.54431050581E+02  0.19973973580E+03 -0.12255766363E+03  0.24058071876E+03  0.00000000000E+00 0.  1.
         21    1    1    2  502  501  0.30236317099E+02  0.51864862407E+01 -0.18684555194E+02  0.35920009939E+02  0.00000000000E+00 0. -1.
<scales pt_clust_4="550.00000" pt_clust_5="550.00000" pt_clust_6="30.67793"></scales>
<mgrwt>
<rscale>  0 0.30000000E+03</rscale>
<asrwt>  1 0.30677931E+02</asrwt>
<pdfrwt beam="1">  1        1 0.83128797E+00 0.30000000E+03</pdfrwt>
<pdfrwt beam="2">0</pdfrwt>
<totfact> 0.59161636E-04</totfact>
</mgrwt>
<clustering>
<clus scale="   30.678">  1  6  2 -1</clus>
<clus scale="  465.853">  4  5 -1 -1</clus>
<clus scale="  300.000">  1  4  2 -1</clus>
</clustering>
</event>
<event>
 6    1  0.9462926E-012  0.3000000E+03  0.7818608E-02  0.1093470E+00
          1   -1    0    0  502    0  0.00000000000E+00  0.00000000000E+00  0.22567991995E+03  0.22567991995E+03  0.00000000000E+00 0.  1.
         13   -1    0    0    0    0 -0.00000000000E+00 -0.00000000000E+00 -0.27500000000E+03  0.27500000000E+03  0.00000000000E+00 0.  1.
    9000005    2    1    2  501    0  0.38336774196E+02 -0.43710373095E+01 -0.51116839510E+02  0.46205295311E+03  0.45759281678E+03 0.  0.
         13    1    3    3    0    0 -0.45359546022E+02 -0.20357623423E+03 -0.11310622252E+03  0.23726312215E+03  0.00000000000E+00 0.  1.
          3    1    3    3  501    0  0.83696320219E+02  0.19920519692E+03  0.61989383013E+02  0.22478983096E+03  0.00000000000E+00 0.  1.
         21    1    1    2  502  501 -0.38336774196E+02  0.43710373095E+01  0.17967594584E+01  0.38626966843E+02  0.00000000000E+00 0. -1.
<scales pt_clust_4="550.00000" pt_clust_5="550.00000" pt_clust_6="38.58516"></scales>
<mgrwt>
<rscale>  0 0.30000000E+03</rscale>
<asrwt>  1 0.38585155E+02</asrwt>
<pdfrwt beam="1">  1        1 0.82065425E+00 0.30000000E+03</pdfrwt>
<pdfrwt beam="2">0</pdfrwt>
<totfact> 0.70108464E-04</totfact>
</mgrwt>
<clustering>
<clus scale="   38.585">  1  6  2 -1</clus>
<clus scale="  457.593">  4  5 -1 -1</clus>
<clus scale="  300.000">  1  4  2 -1</clus>
</clustering>
</event>
<event>
 6    1  0.9462926E-012  0.3000000E+03  0.7818608E-02  0.1093470E+00
          1   -1    0    0  502    0  0.00000000000E+00  0.00000000000E+00  0.23735630360E+03  0.23735630360E+03  0.00000000000E+00 0.  1.
         13   -1    0    0    0    0 -0.00000000000E+00 -0.00000000000E+00 -0.27500000000E+03  0.27500000000E+03  0.00000000000E+00 0.  1.
    9000005    2    1    2  501    0 -0.29272972702E+02  0.22884015042E+02 -0.44835489107E+02  0.47451047216E+03  0.47092396629E+03 0.  0.
         13    1    3    3    0    0  0.47022004874E+02  0.16250081405E+03  0.14781937046E+03  0.22465117358E+03  0.00000000000E+00 0.  1.
          3    1    3    3  501    0 -0.76294977576E+02 -0.13961679901E+03 -0.19265485957E+03  0.24985929857E+03  0.00000000000E+00 0.  1.
         21    1    1    2  502  501  0.29272972702E+02 -0.22884015042E+02  0.71917927061E+01  0.37845831443E+02  0.00000000000E+00 0. -1.
<scales pt_clust_4="550.00000" pt_clust_5="550.00000" pt_clust_6="37.15623"></scales>
<mgrwt>
<rscale>  0 0.30000000E+03</rscale>
<asrwt>  1 0.37156225E+02</asrwt>
<pdfrwt beam="1">  1        1 0.86311383E+00 0.30000000E+03</pdfrwt>
<pdfrwt beam="2">0</pdfrwt>
<totfact> 0.29611344E-04</totfact>
</mgrwt>
<clustering>
<clus scale="   37.156">  1  6  2 -1</clus>
<clus scale="  470.924">  4  5 -1 -1</clus>
<clus scale="  300.000">  1  4  2 -1</clus>
</clustering>
</event>
<event>
 6    1  0.9462926E-012  0.3000000E+03  0.7818608E-02  0.1093470E+00
          1   -1    0    0  502    0  0.00000000000E+00  0.00000000000E+00  0.22685660922E+03  0.22685660922E+03  0.00000000000E+00 0.  1.
         13   -1    0    0    0    0 -0.00000000000E+00 -0.00000000000E+00 -0.27500000000E+03  0.27500000000E+03  0.00000000000E+00 0.  1.
    9000005    2    1    2  501    0  0.29398524607E+02  0.11232071156E+02 -0.45359700672E+02  0.47026259710E+03  0.46701067987E+03 0.  0.
         13    1    3    3    0    0  0.63724330233E+02  0.22030127856E+03  0.54986258857E+02  0.23583242411E+03  0.00000000000E+00 0.  1.
          1    1    3    3  501    0 -0.34325805625E+02 -0.20906920740E+03 -0.10034595953E+03  0.23443017299E+03  0.00000000000E+00 0.  1.
         21    1    1    2  502  501 -0.29398524607E+02 -0.11232071156E+02 -0.27836901040E+01  0.31594012125E+02  0.00000000000E+00 0.  1.
<scales pt_clust_4="550.00000" pt_clust_5="550.00000" pt_clust_6="31.47114"></scales>
<mgrwt>
<rscale>  0 0.30000000E+03</rscale>
<asrwt>  1 0.31471140E+02</asrwt>
<pdfrwt beam="1">  1        1 0.82493312E+00 0.30000000E+03</pdfrwt>
<pdfrwt beam="2">0</pdfrwt>
<totfact> 0.66733350E-04</totfact>
</mgrwt>
<clustering>
<clus scale="   31.471">  1  6  2 -1</clus>
<clus scale="  467.011">  4  5 -1 -1</clus>
<clus scale="  300.000">  1  4  2 -1</clus>
</clustering>
</event>
<event>
 6    1  0.9462926E-012  0.3000000E+03  0.7818608E-02  0.1093470E+00
          1   -1    0    0  502    0  0.00000000000E+00  0.00000000000E+00  0.24753989722E+03  0.24753989722E+03  0.00000000000E+00 0.  1.
         13   -1    0    0    0    0 -0.00000000000E+00 -0.00000000000E+00 -0.27500000000E+03  0.27500000000E+03  0.00000000000E+00 0.  1.
    9000005    2    1    2  501    0  0.32112524561E+02  0.20054793919E+02 -0.39798320905E+02  0.48271979401E+03  0.47958428268E+03 0.  0.
         13    1    3    3    0    0 -0.10822789384E+03 -0.29630594389E+02 -0.22120889230E+03  0.24804157547E+03  0.00000000000E+00 0.  1.
          3    1    3    3  501    0  0.14034041840E+03  0.49685388307E+02  0.18141057139E+03  0.23467821855E+03  0.00000000000E+00 0.  1.
         21    1    1    2  502  501 -0.32112524561E+02 -0.20054793919E+02  0.12338218122E+02  0.39820103205E+02  0.00000000000E+00 0.  1.
<scales pt_clust_4="550.00000" pt_clust_5="550.00000" pt_clust_6="37.86039"></scales>
<mgrwt>
<rscale>  0 0.30000000E+03</rscale>
<asrwt>  1 0.37860388E+02</asrwt>
<pdfrwt beam="1">  1        1 0.90014508E+00 0.30000000E+03</pdfrwt>
<pdfrwt beam="2">0</pdfrwt>
<totfact> 0.10838500E-04</totfact>
</mgrwt>
<clustering>
<clus scale="   37.860">  1  6  2 -1</clus>
<clus scale="  479.584">  4  5 -1 -1</clus>
<clus scale="  300.000">  1  4  2 -1</clus>
</clustering>
</event>
<event>
 6    1  0.9462926E-012  0.3000000E+03  0.7818608E-02  0.1093470E+00
          1   -1    0    0  502    0  0.00000000000E+00  0.00000000000E+00  0.24294397767E+03  0.24294397767E+03  0.00000000000E+00 0.  1.
         13   -1    0    0    0    0 -0.00000000000E+00 -0.00000000000E+00 -0.27500000000E+03  0.27500000000E+03  0.00000000000E+00 0.  1.
    9000005    2    1    2  501    0  0.57958143908E+01 -0.43225910918E+02 -0.35492903846E+02  0.47419602922E+03  0.47085035528E+03 0.  0.
         13    1    3    3    0    0 -0.19902275690E+03 -0.11557439247E+03 -0.94982454578E+02  0.24897623308E+03  0.00000000000E+00 0.  1.
          1    1    3    3  501    0  0.20481857129E+03  0.72348481557E+02  0.59489550732E+02  0.22521979614E+03  0.00000000000E+00 0.  1.
         21    1    1    2  502  501 -0.57958143908E+01  0.43225910918E+02  0.34368815187E+01  0.43747948452E+02  0.00000000000E+00 0. -1.
<scales pt_clust_4="550.00000" pt_clust_5="550.00000" pt_clust_6="43.61274"></scales>
<mgrwt>
<rscale>  0 0.30000000E+03</rscale>
<asrwt>  1 0.43612737E+02</asrwt>
<pdfrwt beam="1">  1        1 0.88343265E+00 0.30000000E+03</pdfrwt>
<pdfrwt beam="2">0</pdfrwt>
<totfact> 0.17118143E-04</totfact>
</mgrwt>
<clustering>
<clus scale="   43.613">  1  6  2 -1</clus>
<clus scale="  470.850">  4  5 -1 -1</clus>
<clus scale="  300.000">  1  4  2 -1</clus>
</clustering>
</event>
<event>
 6    1  0.9462926E-012  0.3000000E+03  0.7818608E-02  0.1093470E+00
          1   -1    0    0  502    0  0.00000000000E+00  0.00000000000E+00  0.22078112160E+03  0.22078112160E+03  0.00000000000E+00 0.  1.
         13   -1    0    0    0    0 -0.00000000000E+00 -0.00000000000E+00 -0.27500000000E+03  0.27500000000E+03  0.00000000000E+00 0.  1.
    9000005    2    1    2  501    0  0.29322905620E+02 -0.64047842191E+01 -0.35216064425E+02  0.46025703126E+03  0.45792522269E+03 0.  0.
         13    1    3    3    0    0  0.81838209342E+02 -0.36051845659E+02 -0.23506835960E+03  0.25150419831E+03  0.00000000000E+00 0.  1.
          1    1    3    3  501    0 -0.52515303722E+02  0.29647061440E+02  0.19985229518E+03  0.20875283295E+03  0.00000000000E+00 0.  1.
         21    1    1    2  502  501 -0.29322905620E+02  0.64047842191E+01 -0.19002813980E+02  0.35524090334E+02  0.00000000000E+00 0. -1.
<scales pt_clust_4="550.00000" pt_clust_5="550.00000" pt_clust_6="30.01425"></scales>
<mgrwt>
<rscale>  0 0.30000000E+03</rscale>
<asrwt>  1 0.30014246E+02</asrwt>
<pdfrwt beam="1">  1        1 0.80284044E+00 0.30000000E+03</pdfrwt>
<pdfrwt beam="2">0</pdfrwt>
<totfact> 0.10181392E-03</totfact>
</mgrwt>
<clustering>
<clus scale="   30.014">  1  6  2 -1</clus>
<clus scale="  457.925">  4  5 -1 -1</clus>
<clus scale="  300.000">  1  4  2 -1</clus>
</clustering>
</event>
<event>
 6    1  0.9462926E-012  0.3000000E+03  0.7818608E-02  0.1093470E+00
          1   -1    0    0  502    0  0.00000000000E+00  0.00000000000E+00  0.24013140435E+03  0.24013140435E+03  0.00000000000E+00 0.  1.
         13   -1    0    0    0    0 -0.00000000000E+00 -0.00000000000E+00 -0.27500000000E+03  0.27500000000E+03  0.00000000000E+00 0.  1.
    9000005    2    1    2  501    0 -0.31799551634E+02  0.13936769092E+02 -0.66230456151E+02  0.46834453321E+03  0.46233611524E+03 0.  0.
         13    1    3    3    0    0  0.29963748228E+01  0.23432773047E+03 -0.71971888344E+02  0.24514978328E+03  0.00000000000E+00 0.  1.
          1    1    3    3  501    0 -0.34795926457E+02 -0.22039096138E+03  0.57414321930E+01  0.22319474993E+03  0.00000000000E+00 0.  1.
         21    1    1    2  502  501  0.31799551634E+02 -0.13936769092E+02  0.31361860502E+02  0.46786871139E+02  0.00000000000E+00 0. -1.
<scales pt_clust_4="550.00000" pt_clust_5="550.00000" pt_clust_6="34.71952"></scales>
<mgrwt>
<rscale>  0 0.30000000E+03</rscale>
<asrwt>  1 0.34719519E+02</asrwt>
<pdfrwt beam="1">  1        1 0.87320511E+00 0.30000000E+03</pdfrwt>
<pdfrwt beam="2">0</pdfrwt>
<totfact> 0.23518924E-04</totfact>
</mgrwt>
<clustering>
<clus scale="   34.720">  1  6  2 -1</clus>
<clus scale="  462.336">  4  5 -1 -1</clus>
<clus scale="  300.000">  1  4  2 -1</clus>
</clustering>
</event>
<event>
 6    1  0.9462926E-012  0.3000000E+03  0.7818608E-02  0.1093470E+00
          1   -1    0    0  502    0  0.00000000000E+00  0.00000000000E+00  0.24279237080E+03  0.24279237080E+03  0.00000000000E+00 0.  1.
         13   -1    0    0    0    0 -0.00000000000E+00 -0.00000000000E+00 -0.27500000000E+03  0.27500000000E+03  0.00000000000E+00 0.  1.
    9000005    2    1    2  501    0 -0.76443707524E+01 -0.29334398135E+02 -0.60443211700E+02  0.47636542984E+03  0.47154183016E+03 0.  0.
         13    1    3    3    0    0  0.17621753058E+03 -0.89774292715E+02 -0.16394658584E+03  0.25688620969E+03  0.00000000000E+00 0.  1.
          1    1    3    3  501    0 -0.18386190134E+03  0.60439894580E+02  0.10350337414E+03  0.21947922015E+03  0.00000000000E+00 0.  1.
         21    1    1    2  502  501  0.76443707524E+01  0.29334398135E+02  0.28235582501E+02  0.41426940960E+02  0.00000000000E+00 0. -1.
<scales pt_clust_4="550.00000" pt_clust_5="550.00000" pt_clust_6="30.31408"></scales>
<mgrwt>
<rscale>  0 0.30000000E+03</rscale>
<asrwt>  1 0.30314078E+02</asrwt>
<pdfrwt beam="1">  1        1 0.88288135E+00 0.30000000E+03</pdfrwt>
<pdfrwt beam="2">0</pdfrwt>
<totfact> 0.18627788E-04</totfact>
</mgrwt>
<clustering>
<clus scale="   30.314">  1  6  2 -1</clus>
<clus scale="  471.542">  4  5 -1 -1</clus>
<clus scale="  300.000">  1  4  2 -1</clus>
</clustering>
</event>
<event>
 6    1  0.9462926E-012  0.3000000E+03  0.7818608E-02  0.1093470E+00
          1   -1    0    0  502    0  0.00000000000E+00  0.00000000000E+00  0.23249974913E+03  0.23249974913E+03  0.00000000000E+00 0.  1.
         13   -1    0    0    0    0 -0.00000000000E+00 -0.00000000000E+00 -0.27500000000E+03  0.27500000000E+03  0.00000000000E+00 0.  1.
    9000005    2    1    2  501    0 -0.14306610576E+02  0.32525703240E+02 -0.36135027181E+02  0.47140104347E+03  0.46866896966E+03 0.  0.
         13    1    3    3    0    0 -0.18389888636E+02 -0.21373728177E+03  0.29405892336E+02  0.21653295391E+03  0.00000000000E+00 0.  1.
          3    1    3    3  501    0  0.40832780597E+01  0.24626298501E+03 -0.65540919516E+02  0.25486808956E+03  0.00000000000E+00 0.  1.
         21    1    1    2  502  501  0.14306610576E+02 -0.32525703240E+02 -0.63652236921E+01  0.36098705656E+02  0.00000000000E+00 0. -1.
<scales pt_clust_4="550.00000" pt_clust_5="550.00000" pt_clust_6="35.53311"></scales>
<mgrwt>
<rscale>  0 0.30000000E+03</rscale>
<asrwt>  1 0.35533108E+02</asrwt>
<pdfrwt beam="1">  1        1 0.84545363E+00 0.30000000E+03</pdfrwt>
<pdfrwt beam="2">0</pdfrwt>
<totfact> 0.44644172E-04</totfact>
</mgrwt>
<clustering>
<clus scale="   35.533">  1  6  2 -1</clus>
<clus scale="  468.669">  4  5 -1 -1</clus>
<clus scale="  300.000">  1  4  2 -1</clus>
</clustering>
</event>
<event>
 6    1  0.9462926E-012  0.3000000E+03  0.7818608E-02  0.1093470E+00
          1   -1    0    0  502    0  0.00000000000E+00  0.00000000000E+00  0.24358868775E+03  0.24358868775E+03  0.00000000000E+00 0.  1.
         13   -1    0    0    0    0 -0.00000000000E+00 -0.00000000000E+00 -0.27500000000E+03  0.27500000000E+03  0.00000000000E+00 0.  1.
    9000005    2    1    2  501    0 -0.28152714390E+02  0.12293238228E+02 -0.60719533614E+02  0.47613081600E+03  0.47124302982E+03 0.  0.
         13    1    3    3    0    0 -0.32417983404E+02 -0.22269375188E+03  0.23965873650E+02  0.22631349026E+03  0.00000000000E+00 0.  1.
          1    1    3    3  501    0  0.42652690138E+01  0.23498699011E+03 -0.84685407264E+02  0.24981732574E+03  0.00000000000E+00 0.  1.
         21    1    1    2  502  501  0.28152714390E+02 -0.12293238228E+02  0.29308221361E+02  0.42457871743E+02  0.00000000000E+00 0.  1.
<scales pt_clust_4="550.00000" pt_clust_5="550.00000" pt_clust_6="30.71968"></scales>
<mgrwt>
<rscale>  0 0.30000000E+03</rscale>
<asrwt>  1 0.30719685E+02</asrwt>
<pdfrwt beam="1">  1        1 0.88577705E+00 0.30000000E+03</pdfrwt>
<pdfrwt beam="2">0</pdfrwt>
<totfact> 0.16972637E-04</totfact>
</mgrwt>
<clustering>
<clus scale="   30.720">  1  6  2 -1</clus>
<clus scale="  471.243">  4  5 -1 -1</clus>
<clus scale="  300.000">  1  4  2 -1</clus>
</clustering>
</event>
<event>
 6    1  0.9462926E-012  0.3000000E+03  0.7818608E-02  0.1093470E+00
          1   -1    0    0  502    0  0.00000000000E+00  0.00000000000E+00  0.23433900819E+03  0.23433900819E+03  0.00000000000E+00 0.  1.
         13   -1    0    0    0    0 -0.00000000000E+00 -0.00000000000E+00 -0.27500000000E+03  0.27500000000E+03  0.00000000000E+00 0.  1.
    9000005    2    1    2  501    0  0.88984429112E+00 -0.40129996714E+02 -0.63179300038E+02  0.46331420331E+03  0.45722775350E+03 0.  0.
         13    1    3    3    0    0  0.52916135746E+02 -0.21336161682E+03  0.78640908348E+02  0.23346881894E+03  0.00000000000E+00 0.  1.
          3    1    3    3  501    0 -0.52026291455E+02  0.17323162010E+03 -0.14182020839E+03  0.22984538436E+03  0.00000000000E+00 0.  1.
         21    1    1    2  502  501 -0.88984429112E+00  0.40129996714E+02  0.22518308227E+02  0.46024804883E+02  0.00000000000E+00 0. -1.
<scales pt_clust_4="550.00000" pt_clust_5="550.00000" pt_clust_6="40.13986"></scales>
<mgrwt>
<rscale>  0 0.30000000E+03</rscale>
<asrwt>  1 0.40139861E+02</asrwt>
<pdfrwt beam="1">  1        1 0.85214185E+00 0.30000000E+03</pdfrwt>
<pdfrwt beam="2">0</pdfrwt>
<totfact> 0.37867444E-04</totfact>
</mgrwt>
<clustering>
<clus scale="   40.140">  1  6  2 -1</clus>
<clus scale="  457.228">  4  5 -1 -1</clus>
<clus scale="  300.000">  1  4  2 -1</clus>
</clustering>
</event>
<event>
 6    1  0.9462926E-012  0.3000000E+03  0.7818608E-02  0.1093470E+00
          1   -1    0    0  502    0  0.00000000000E+00  0.00000000000E+00  0.24725795176E+03  0.24725795176E+03  0.00000000000E+00 0.  1.
         13   -1    0    0    0    0 -0.00000000000E+00 -0.00000000000E+00 -0.27500000000E+03  0.27500000000E+03  0.00000000000E+00 0.  1.
    9000005    2    1    2  501    0  0.21131941165E+02  0.25161351697E+02 -0.57584852574E+02  0.47787050390E+03  0.47324893101E+03 0.  0.
         13    1    3    3    0    0 -0.86375869441E+02 -0.44454216487E+02 -0.23774329330E+03  0.25682453484E+03  0.00000000000E+00 0.  1.
          1    1    3    3  501    0  0.10750781061E+03  0.69615568184E+02  0.18015844073E+03  0.22104596907E+03  0.00000000000E+00 0.  1.
         21    1    1    2  502  501 -0.21131941165E+02 -0.25161351697E+02  0.29842804330E+02  0.44387447853E+02  0.00000000000E+00 0.  1.
<scales pt_clust_4="550.00000" pt_clust_5="550.00000" pt_clust_6="32.85807"></scales>
<mgrwt>
<rscale>  0 0.30000000E+03</rscale>
<asrwt>  1 0.32858067E+02</asrwt>
<pdfrwt beam="1">  1        1 0.89911982E+00 0.30000000E+03</pdfrwt>
<pdfrwt beam="2">0</pdfrwt>
<totfact> 0.11457204E-04</totfact>
</mgrwt>
<clustering>
<clus scale="   32.858">  1  6  2 -1</clus>
<clus scale="  473.249">  4  5 -1 -1</clus>
<clus scale="  300.000">  1  4  2 -1</clus>
</clustering>
</event>
<event>
 6    1  0.9462926E-012  0.3000000E+03  0.7818608E-02  0.1093470E+00
          1   -1    0    0  502    0  0.00000000000E+00  0.00000000000E+00  0.23251874342E+03  0.23251874342E+03  0.00000000000E+00 0.  1.
         13   -1    0    0    0    0 -0.00000000000E+00 -0.00000000000E+00 -0.27500000000E+03  0.27500000000E+03  0.00000000000E+00 0.  1.
    9000005    2    1    2  501    0  0.19550859529E+02  0.26752838333E+02 -0.64875053127E+02  0.46752583666E+03  0.46181563958E+03 0.  0.
         13    1    3    3    0    0  0.68016139831E+02  0.11788479428E+03  0.16598100594E+03  0.21464555512E+03  0.00000000000E+00 0.  1.
          3    1    3    3  501    0 -0.48465280302E+02 -0.91131955943E+02 -0.23085605906E+03  0.25288028155E+03  0.00000000000E+00 0.  1.
         21    1    1    2  502  501 -0.19550859529E+02 -0.26752838333E+02  0.22393796548E+02  0.39992906759E+02  0.00000000000E+00 0.  1.
<scales pt_clust_4="550.00000" pt_clust_5="550.00000" pt_clust_6="33.13534"></scales>
<mgrwt>
<rscale>  0 0.30000000E+03</rscale>
<asrwt>  1 0.33135336E+02</asrwt>
<pdfrwt beam="1">  1        1 0.84552270E+00 0.30000000E+03</pdfrwt>
<pdfrwt beam="2">0</pdfrwt>
<totfact> 0.45170153E-04</totfact>
</mgrwt>
<clustering>
<clus scale="   33.135">  1  6  2 -1</clus>
<clus scale="  461.816">  4  5 -1 -1</clus>
<clus scale="  300.000">  1  4  2 -1</clus>
</clustering>
</event>
<event>
 6    1  0.9462926E-012  0.3000000E+03  0.7818608E-02  0.1093470E+00
          1   -1    0    0  502    0  0.00000000000E+00  0.00000000000E+00  0.24986462735E+03  0.24986462735E+03  0.00000000000E+00 0.  1.
         13   -1    0    0    0    0 -0.00000000000E+00 -0.00000000000E+00 -0.27500000000E+03  0.27500000000E+03  0.00000000000E+00 0.  1.
    9000005    2    1    2  501    0  0.46037537869E+02  0.24511820138E+01 -0.76250927215E+01  0.47554857429E+03  0.47324712496E+03 0.  0.
         13    1    3    3    0    0  0.15188438935E+03 -0.12246833799E+03 -0.15966413542E+03  0.25211108202E+03  0.00000000000E+00 0.  1.
          1    1    3    3  501    0 -0.10584685149E+03  0.12491952001E+03  0.15203904270E+03  0.22343749227E+03  0.00000000000E+00 0.  1.
         21    1    1    2  502  501 -0.46037537869E+02 -0.24511820138E+01 -0.17510279926E+02  0.49316053059E+02  0.00000000000E+00 0. -1.
<scales pt_clust_4="550.00000" pt_clust_5="550.00000" pt_clust_6="46.10277"></scales>
<mgrwt>
<rscale>  0 0.30000000E+03</rscale>
<asrwt>  1 0.46102769E+02</asrwt>
<pdfrwt beam="1">  1        1 0.90859864E+00 0.30000000E+03</pdfrwt>
<pdfrwt beam="2">0</pdfrwt>
<totfact> 0.73785909E-05</totfact>
</mgrwt>
<clustering>
<clus scale="   46.103">  1  6  2 -1</clus>
<clus scale="  473.247">  4  5 -1 -1</clus>
<clus scale="  300.000">  1  4  2 -1</clus>
</clustering>
</event>
<event>
 6    1  0.9462926E-012  0.3000000E+03  0.7818608E-02  0.1093470E+00
          1   -1    0    0  502    0  0.00000000000E+00  0.00000000000E+00  0.23369089756E+03  0.23369089756E+03  0.00000000000E+00 0.  1.
         13   -1    0    0    0    0 -0.00000000000E+00 -0.00000000000E+00 -0.27500000000E+03  0.27500000000E+03  0.00000000000E+00 0.  1.
    9000005    2    1    2  501    0 -0.26612738482E+02  0.14903722320E+02 -0.27404241593E+02  0.47516920394E+03  0.47339668474E+03 0.  0.
         13    1    3    3    0    0 -0.32120200701E+02 -0.15559298115E+03  0.15741932104E+03  0.22365537264E+03  0.00000000000E+00 0.  1.
          3    1    3    3  501    0  0.55074622187E+01  0.17049670347E+03 -0.18482356263E+03  0.25151383130E+03  0.00000000000E+00 0.  1.
         21    1    1    2  502  501  0.26612738482E+02 -0.14903722320E+02 -0.13904860842E+02  0.33521693626E+02  0.00000000000E+00 0.  1.
<scales pt_clust_4="550.00000" pt_clust_5="550.00000" pt_clust_6="30.50180"></scales>
<mgrwt>
<rscale>  0 0.30000000E+03</rscale>
<asrwt>  1 0.30501799E+02</asrwt>
<pdfrwt beam="1">  1        1 0.84978508E+00 0.30000000E+03</pdfrwt>
<pdfrwt beam="2">0</pdfrwt>
<totfact> 0.41967564E-04</totfact>
</mgrwt>
<clustering>
<clus scale="   30.502">  1  6  2 -1</clus>
<clus scale="  473.397">  4  5 -1 -1</clus>
<clus scale="  300.000">  1  4  2 -1</clus>
</clustering>
</event>
<event>
 6    1  0.9462926E-012  0.3000000E+03  0.7818608E-02  0.1093470E+00
          1   -1    0    0  502    0  0.00000000000E+00  0.00000000000E+00  0.24073046014E+03  0.24073046014E+03  0.00000000000E+00 0.  1.
         13   -1    0    0    0    0 -0.00000000000E+00 -0.00000000000E+00 -0.27500000000E+03  0.27500000000E+03  0.00000000000E+00 0.  1.
    9000005    2    1    2  501    0 -0.25784831426E+02  0.17354537336E+02 -0.69865203665E+02  0.46847489137E+03  0.46219210256E+03 0.  0.
         13    1    3    3    0    0 -0.24182413358E+02  0.13449245319E+03  0.16004087008E+03  0.21044260305E+03  0.00000000000E+00 0.  1.
          3    1    3    3  501    0 -0.16024180677E+01 -0.11713791586E+03 -0.22990607374E+03  0.25803228833E+03  0.00000000000E+00 0.  1.
         21    1    1    2  502  501  0.25784831426E+02 -0.17354537336E+02  0.35595663809E+02  0.47255568771E+02  0.00000000000E+00 0.  1.
<scales pt_clust_4="550.00000" pt_clust_5="550.00000" pt_clust_6="31.08114"></scales>
<mgrwt>
<rscale>  0 0.30000000E+03</rscale>
<asrwt>  1 0.31081144E+02</asrwt>
<pdfrwt beam="1">  1        1 0.87538349E+00 0.30000000E+03</pdfrwt>
<pdfrwt beam="2">0</pdfrwt>
<totfact> 0.22788849E-04</totfact>
</mgrwt>
<clustering>
<clus scale="   31.081">  1  6  2 -1</clus>
<clus scale="  462.192">  4  5 -1 -1</clus>
<clus scale="  300.000">  1  4  2 -1</clus>
</clustering>
</event>
<event>
 6    1  0.9462926E-012  0.3000000E+03  0.7818608E-02  0.1093470E+00
          1   -1    0    0  502    0  0.00000000000E+00  0.00000000000E+00  0.23477911066E+03  0.23477911066E+03  0.00000000000E+00 0.  1.
         13   -1    0    0    0    0 -0.00000000000E+00 -0.00000000000E+00 -0.27500000000E+03  0.27500000000E+03  0.00000000000E+00 0.  1.
    9000005    2    1    2  501    0  0.20845891165E+02  0.24978002330E+02 -0.43842265768E+02  0.47704432570E+03  0.47391000479E+03 0.  0.
         13    1    3    3    0    0 -0.20333355867E+03  0.91128215502E+02  0.44410084841E+02  0.22720286833E+03  0.00000000000E+00 0.  1.
          1    1    3    3  501    0  0.22417944984E+03 -0.66150213171E+02 -0.88252350609E+02  0.24984145737E+03  0.00000000000E+00 0.  1.
         21    1    1    2  502  501 -0.20845891165E+02 -0.24978002330E+02  0.36213764233E+01  0.32734784956E+02  0.00000000000E+00 0. -1.
<scales pt_clust_4="550.00000" pt_clust_5="550.00000" pt_clust_6="32.53386"></scales>
<mgrwt>
<rscale>  0 0.30000000E+03</rscale>
<asrwt>  1 0.32533856E+02</asrwt>
<pdfrwt beam="1">  1        1 0.85374222E+00 0.30000000E+03</pdfrwt>
<pdfrwt beam="2">0</pdfrwt>
<totfact> 0.38000907E-04</totfact>
</mgrwt>
<clustering>
<clus scale="   32.534">  1  6  2 -1</clus>
<clus scale="  473.910">  4  5 -1 -1</clus>
<clus scale="  300.000">  1  4  2 -1</clus>
</clustering>
</event>
<event>
 6    1  0.9462926E-012  0.3000000E+03  0.7818608E-02  0.1093470E+00
          1   -1    0    0  502    0  0.00000000000E+00  0.00000000000E+00  0.22983950886E+03  0.22983950886E+03  0.00000000000E+00 0.  1.
         13   -1    0    0    0    0 -0.00000000000E+00 -0.00000000000E+00 -0.27500000000E+03  0.27500000000E+03  0.00000000000E+00 0.  1.
    9000005    2    1    2  501    0  0.96134691803E+01 -0.34167599222E+02 -0.55715713057E+02  0.46780903038E+03  0.46312115542E+03 0.  0.
         13    1    3    3    0    0 -0.13258185118E+03 -0.60948468376E+02  0.15455977835E+03  0.21255914034E+03  0.00000000000E+00 0.  1.
          1    1    3    3  501    0  0.14219532036E+03  0.26780869154E+02 -0.21027549140E+03  0.25524989005E+03  0.00000000000E+00 0.  1.
         21    1    1    2  502  501 -0.96134691803E+01  0.34167599222E+02  0.10555221915E+02  0.37030478473E+02  0.00000000000E+00 0. -1.
<scales pt_clust_4="550.00000" pt_clust_5="550.00000" pt_clust_6="35.49428"></scales>
<mgrwt>
<rscale>  0 0.30000000E+03</rscale>
<asrwt>  1 0.35494276E+02</asrwt>
<pdfrwt beam="1">  1        1 0.83578003E+00 0.30000000E+03</pdfrwt>
<pdfrwt beam="2">0</pdfrwt>
<totfact> 0.53256839E-04</totfact>
</mgrwt>
<clustering>
<clus scale="   35.494">  1  6  2 -1</clus>
<clus scale="  463.121">  4  5 -1 -1</clus>
<clus scale="  300.000">  1  4  2 -1</clus>
</clustering>
</event>
<event>
 6    1  0.9462926E-012  0.3000000E+03  0.7818608E-02  0.1093470E+00
          1   -1    0    0  502    0  0.00000000000E+00  0.00000000000E+00  0.23748254032E+03  0.23748254032E+03  0.00000000000E+00 0.  1.
         13   -1    0    0    0    0 -0.00000000000E+00 -0.00000000000E+00 -0.27500000000E+03  0.27500000000E+03  0.00000000000E+00 0.  1.
    9000005    2    1    2  501    0  0.12612481630E+00  0.40129763715E+02 -0.33646407486E+02  0.47216630428E+03  0.46925315589E+03 0.  0.
         13    1    3    3    0    0 -0.47320780219E+02  0.65054821477E+02 -0.24304783309E+03  0.25601491208E+03  0.00000000000E+00 0.  1.
          1    1    3    3  501    0  0.47446905036E+02 -0.24925057762E+02  0.20940142561E+03  0.21615139219E+03  0.00000000000E+00 0.  1.
         21    1    1    2  502  501 -0.12612481630E+00 -0.40129763715E+02 -0.38710521965E+01  0.40316236040E+02  0.00000000000E+00 0.  1.
<scales pt_clust_4="550.00000" pt_clust_5="550.00000" pt_clust_6="40.12998"></scales>
<mgrwt>
<rscale>  0 0.30000000E+03</rscale>
<asrwt>  1 0.40129982E+02</asrwt>
<pdfrwt beam="1">  1        1 0.86357287E+00 0.30000000E+03</pdfrwt>
<pdfrwt beam="2">0</pdfrwt>
<totfact> 0.28863515E-04</totfact>
</mgrwt>
<clustering>
<clus scale="   40.130">  1  6  2 -1</clus>
<clus scale="  469.253">  4  5 -1 -1</clus>
<clus scale="  300.000">  1  4  2 -1</clus>
</clustering>
</event>
<event>
 6    1  0.9462926E-012  0.3000000E+03  0.7818608E-02  0.1093470E+00
          1   -1    0    0  502    0  0.00000000000E+00  0.00000000000E+00  0.22502237644E+03  0.22502237644E+03  0.00000000000E+00 0.  1.
         13   -1    0    0    0    0 -0.00000000000E+00 -0.00000000000E+00 -0.27500000000E+03  0.27500000000E+03  0.00000000000E+00 0.  1.
    9000005    2    1    2  501    0 -0.33337436136E+02  0.84255451879E+01 -0.41514661769E+02  0.46461056793E+03  0.46147279251E+03 0.  0.
         13    1    3    3    0    0 -0.15181181306E+03  0.19148172629E+03 -0.13025487203E+02  0.24470746087E+03  0.00000000000E+00 0.  1.
          1    1    3    3  501    0  0.11847437692E+03 -0.18305618111E+03 -0.28489174566E+02  0.21990310706E+03  0.00000000000E+00 0.  1.
         21    1    1    2  502  501  0.33337436136E+02 -0.84255451879E+01 -0.84629617886E+01  0.35411808512E+02  0.00000000000E+00 0.  1.
<scales pt_clust_4="550.00000" pt_clust_5="550.00000" pt_clust_6="34.38569"></scales>
<mgrwt>
<rscale>  0 0.30000000E+03</rscale>
<asrwt>  1 0.34385689E+02</asrwt>
<pdfrwt beam="1">  1        1 0.81826319E+00 0.30000000E+03</pdfrwt>
<pdfrwt beam="2">0</pdfrwt>
<totfact> 0.75089532E-04</totfact>
</mgrwt>
<clustering>
<clus scale="   34.386">  1  6  2 -1</clus>
<clus scale="  461.473">  4  5 -1 -1</clus>
<clus scale="  300.000">  1  4  2 -1</clus>
</clustering>
</event>
<event>
 6    1  0.9462926E-012  0.3000000E+03  0.7818608E-02  0.1093470E+00
          1   -1    0    0  502    0  0.00000000000E+00  0.00000000000E+00  0.25256393091E+03  0.25256393091E+03  0.00000000000E+00 0.  1.
         13   -1    0    0    0    0 -0.00000000000E+00 -0.00000000000E+00 -0.27500000000E+03  0.27500000000E+03  0.00000000000E+00 0.  1.
    9000005    2    1    2  501    0  0.31684279133E+02  0.14056703481E+02 -0.72439362582E+02  0.46672139795E+03  0.45976071776E+03 0.  0.
         13    1    3    3    0    0  0.13055622967E+03  0.44953745274E+02 -0.23581950755E+03  0.27327021144E+03  0.00000000000E+00 0.  1.
          1    1    3    3  501    0 -0.98871950540E+02 -0.30897041792E+02  0.16338014496E+03  0.19345118651E+03  0.00000000000E+00 0.  1.
         21    1    1    2  502  501 -0.31684279133E+02 -0.14056703481E+02  0.50003293496E+02  0.60842532963E+02  0.00000000000E+00 0.  1.
<scales pt_clust_4="550.00000" pt_clust_5="550.00000" pt_clust_6="34.66244"></scales>
<mgrwt>
<rscale>  0 0.30000000E+03</rscale>
<asrwt>  1 0.34662436E+02</asrwt>
<pdfrwt beam="1">  1        1 0.91841429E+00 0.30000000E+03</pdfrwt>
<pdfrwt beam="2">0</pdfrwt>
<totfact> 0.45370366E-05</totfact>
</mgrwt>
<clustering>
<clus scale="   34.662">  1  6  2 -1</clus>
<clus scale="  459.761">  4  5 -1 -1</clus>
<clus scale="  300.000">  1  4  2 -1</clus>
</clustering>
</event>
<event>
 6    1  0.9462926E-012  0.3000000E+03  0.7818608E-02  0.1093470E+00
          1   -1    0    0  502    0  0.00000000000E+00  0.00000000000E+00  0.22490692161E+03  0.22490692161E+03  0.00000000000E+00 0.  1.
         13   -1    0    0    0    0 -0.00000000000E+00 -0.00000000000E+00 -0.27500000000E+03  0.27500000000E+03  0.00000000000E+00 0.  1.
    9000005    2    1    2  501    0 -0.23180884886E+02  0.22102883146E+02 -0.66723067657E+02  0.46381748534E+03  0.45787421971E+03 0.  0.
         13    1    3    3    0    0  0.11532531598E+03 -0.17981206872E+03 -0.42121465971E+02  0.21773039857E+03  0.00000000000E+00 0.  1.
          1    1    3    3  501    0 -0.13850620087E+03  0.20191495187E+03 -0.24601601686E+02  0.24608708677E+03  0.00000000000E+00 0.  1.
         21    1    1    2  502  501  0.23180884886E+02 -0.22102883146E+02  0.16629989265E+02  0.36089436272E+02  0.00000000000E+00 0.  1.
<scales pt_clust_4="550.00000" pt_clust_5="550.00000" pt_clust_6="32.02953"></scales>
<mgrwt>
<rscale>  0 0.30000000E+03</rscale>
<asrwt>  1 0.32029531E+02</asrwt>
<pdfrwt beam="1">  1        1 0.81784335E+00 0.30000000E+03</pdfrwt>
<pdfrwt beam="2">0</pdfrwt>
<totfact> 0.76720895E-04</totfact>
</mgrwt>
<clustering>
<clus scale="   32.030">  1  6  2 -1</clus>
<clus scale="  457.874">  4  5 -1 -1</clus>
<clus scale="  300.000">  1  4  2 -1</clus>
</clustering>
</event>
<event>
 6    1  0.9462926E-012  0.3000000E+03  0.7818608E-02  0.1093470E+00
          1   -1    0    0  502    0  0.00000000000E+00  0.00000000000E+00  0.23525749419E+03  0.23525749419E+03  0.00000000000E+00 0.  1.
         13   -1    0    0    0    0 -0.00000000000E+00 -0.00000000000E+00 -0.27500000000E+03  0.27500000000E+03  0.00000000000E+00 0.  1.
    9000005    2    1    2  501    0 -0.41326525975E+02 -0.53900553780E+01 -0.44837823920E+02  0.46827063062E+03  0.46425210673E+03 0.  0.
         13    1    3    3    0    0  0.10987529842E+03  0.60149088937E+02 -0.20385516098E+03  0.23926433240E+03  0.00000000000E+00 0.  1.
          3    1    3    3  501    0 -0.15120182439E+03 -0.65539144315E+02  0.15901733706E+03  0.22900629822E+03  0.00000000000E+00 0.  1.
         21    1    1    2  502  501  0.41326525975E+02  0.53900553780E+01  0.50953181131E+01  0.41986863575E+02  0.00000000000E+00 0.  1.
<scales pt_clust_4="550.00000" pt_clust_5="550.00000" pt_clust_6="41.67655"></scales>
<mgrwt>
<rscale>  0 0.30000000E+03</rscale>
<asrwt>  1 0.41676546E+02</asrwt>
<pdfrwt beam="1">  1        1 0.85548180E+00 0.30000000E+03</pdfrwt>
<pdfrwt beam="2">0</pdfrwt>
<totfact> 0.34893750E-04</totfact>
</mgrwt>
<clustering>
<clus scale="   41.677">  1  6  2 -1</clus>
<clus scale="  464.252">  4  5 -1 -1</clus>
<clus scale="  300.000">  1  4  2 -1</clus>
</clustering>
</event>
<event>
 6    1  0.9462926E-012  0.3000000E+03  0.7818608E-02  0.1093470E+00
          1   -1    0    0  502    0  0.00000000000E+00  0.00000000000E+00  0.23731943007E+03  0.23731943007E+03  0.00000000000E+00 0.  1.
         13   -1    0    0    0    0 -0.00000000000E+00 -0.00000000000E+00 -0.27500000000E+03  0.27500000000E+03  0.00000000000E+00 0.  1.
    9000005    2    1    2  501    0  0.15969960718E+02  0.29668341973E+02 -0.34669923805E+02  0.47849171731E+03  0.47604313855E+03 0.  0.
         13    1    3    3    0    0  0.36853567681E+02  0.18019253266E+03  0.15142079855E+03  0.23823474245E+03  0.00000000000E+00 0.  1.
          3    1    3    3  501    0 -0.20883606964E+02 -0.15052419069E+03 -0.18609072235E+03  0.24025697486E+03  0.00000000000E+00 0.  1.
         21    1    1    2  502  501 -0.15969960718E+02 -0.29668341973E+02 -0.30106461202E+01  0.33827712763E+02  0.00000000000E+00 0.  1.
<scales pt_clust_4="550.00000" pt_clust_5="550.00000" pt_clust_6="33.69349"></scales>
<mgrwt>
<rscale>  0 0.30000000E+03</rscale>
<asrwt>  1 0.33693490E+02</asrwt>
<pdfrwt beam="1">  1        1 0.86297975E+00 0.30000000E+03</pdfrwt>
<pdfrwt beam="2">0</pdfrwt>
<totfact> 0.30258036E-04</totfact>
</mgrwt>
<clustering>
<clus scale="   33.693">  1  6  2 -1</clus>
<clus scale="  476.043">  4  5 -1 -1</clus>
<clus scale="  300.000">  1  4  2 -1</clus>
</clustering>
</event>
<event>
 6    1  0.9462926E-012  0.3000000E+03  0.7818608E-02  0.1093470E+00
          1   -1    0    0  502    0  0.00000000000E+00  0.00000000000E+00  0.25012687203E+03  0.25012687203E+03  0.00000000000E+00 0.  1.
         13   -1    0    0    0    0 -0.00000000000E+00 -0.00000000000E+00 -0.27500000000E+03  0.27500000000E+03  0.00000000000E+00 0.  1.
    9000005    2    1    2  501    0 -0.13871352228E+02  0.30563683602E+02 -0.36992974671E+02  0.48944152697E+03  0.48688599793E+03 0.  0.
         13    1    3    3    0    0 -0.23155531856E+03 -0.23102031695E+02  0.67197605928E+02  0.24221289739E+03  0.00000000000E+00 0.  1.
          1    1    3    3  501    0  0.21768396633E+03  0.53665715297E+02 -0.10419058060E+03  0.24722862957E+03  0.00000000000E+00 0.  1.
         21    1    1    2  502  501  0.13871352228E+02 -0.30563683602E+02  0.12119846696E+02  0.35685345058E+02  0.00000000000E+00 0.  1.
<scales pt_clust_4="550.00000" pt_clust_5="550.00000" pt_clust_6="33.56416"></scales>
<mgrwt>
<rscale>  0 0.30000000E+03</rscale>
<asrwt>  1 0.33564165E+02</asrwt>
<pdfrwt beam="1">  1        1 0.90955226E+00 0.30000000E+03</pdfrwt>
<pdfrwt beam="2">0</pdfrwt>
<totfact> 0.74251984E-05</totfact>
</mgrwt>
<clustering>
<clus scale="   33.564">  1  6  2 -1</clus>
<clus scale="  486.886">  4  5 -1 -1</clus>
<clus scale="  300.000">  1  4  2 -1</clus>
</clustering>
</event>
<event>
 6    1  0.9462926E-012  0.3000000E+03  0.7818608E-02  0.1093470E+00
          1   -1    0    0  502    0  0.00000000000E+00  0.00000000000E+00  0.22131236871E+03  0.22131236871E+03  0.00000000000E+00 0.  1.
         13   -1    0    0    0    0 -0.00000000000E+00 -0.00000000000E+00 -0.27500000000E+03  0.27500000000E+03  0.00000000000E+00 0.  1.
    9000005    2    1    2  501    0  0.10343709139E+02  0.28779581104E+02 -0.67146549142E+02  0.46289981004E+03  0.45698174850E+03 0.  0.
         13    1    3    3    0    0  0.22380135355E+02  0.24166362398E+03 -0.13725193728E+02  0.24308549639E+03  0.00000000000E+00 0.  1.
          3    1    3    3  501    0 -0.12036426216E+02 -0.21288404288E+03 -0.53421355415E+02  0.21981431364E+03  0.00000000000E+00 0.  1.
         21    1    1    2  502  501 -0.10343709139E+02 -0.28779581104E+02  0.13458917853E+02  0.33412558673E+02  0.00000000000E+00 0.  1.
<scales pt_clust_4="550.00000" pt_clust_5="550.00000" pt_clust_6="30.58197"></scales>
<mgrwt>
<rscale>  0 0.30000000E+03</rscale>
<asrwt>  1 0.30581965E+02</asrwt>
<pdfrwt beam="1">  1        1 0.80477225E+00 0.30000000E+03</pdfrwt>
<pdfrwt beam="2">0</pdfrwt>
<totfact> 0.98149762E-04</totfact>
</mgrwt>
<clustering>
<clus scale="   30.582">  1  6  2 -1</clus>
<clus scale="  456.982">  4  5 -1 -1</clus>
<clus scale="  300.000">  1  4  2 -1</clus>
</clustering>
</event>
<event>
 6    1  0.9462926E-012  0.3000000E+03  0.7818608E-02  0.1093470E+00
          1   -1    0    0  502    0  0.00000000000E+00  0.00000000000E+00  0.23794269221E+03  0.23794269221E+03  0.00000000000E+00 0.  1.
         13   -1    0    0    0    0 -0.00000000000E+00 -0.00000000000E+00 -0.27500000000E+03  0.27500000000E+03  0.00000000000E+00 0.  1.
    9000005    2    1    2  501    0  0.62051695065E+01  0.31678660624E+02 -0.67835443202E+02  0.46834072715E+03  0.46227626771E+03 0.  0.
         13    1    3    3    0    0 -0.60390956993E+00  0.19798949680E+03 -0.18003531490E+03  0.26760590457E+03  0.00000000000E+00 0.  1.
          3    1    3    3  501    0  0.68090790765E+01 -0.16631083618E+03  0.11219987170E+03  0.20073482258E+03  0.00000000000E+00 0.  1.
         21    1    1    2  502  501 -0.62051695065E+01 -0.31678660624E+02  0.30778135407E+02  0.44601965054E+02  0.00000000000E+00 0.  1.
<scales pt_clust_4="550.00000" pt_clust_5="550.00000" pt_clust_6="32.28067"></scales>
<mgrwt>
<rscale>  0 0.30000000E+03</rscale>
<asrwt>  1 0.32280670E+02</asrwt>
<pdfrwt beam="1">  1        1 0.86524615E+00 0.30000000E+03</pdfrwt>
<pdfrwt beam="2">0</pdfrwt>
<totfact> 0.28832673E-04</totfact>
</mgrwt>
<clustering>
<clus scale="   32.281">  1  6  2 -1</clus>
<clus scale="  462.276">  4  5 -1 -1</clus>
<clus scale="  300.000">  1  4  2 -1</clus>
</clustering>
</event>
<event>
 6    1  0.9462926E-012  0.3000000E+03  0.7818608E-02  0.1093470E+00
          1   -1    0    0  502    0  0.00000000000E+00  0.00000000000E+00  0.24881848014E+03  0.24881848014E+03  0.00000000000E+00 0.  1.
         13   -1    0    0    0    0 -0.00000000000E+00 -0.00000000000E+00 -0.27500000000E+03  0.27500000000E+03  0.00000000000E+00 0.  1.
    9000005    2    1    2  501    0  0.24887501110E+02 -0.48103773360E+02 -0.21682190176E+02  0.46947140395E+03  0.46583250319E+03 0.  0.
         13    1    3    3    0    0  0.24094895968E+03 -0.72107862342E+02 -0.75181638832E+01  0.25161968876E+03  0.00000000000E+00 0.  1.
          3    1    3    3  501    0 -0.21606145857E+03  0.24004088982E+02 -0.14164026293E+02  0.21785171519E+03  0.00000000000E+00 0.  1.
         21    1    1    2  502  501 -0.24887501110E+02  0.48103773360E+02 -0.44993296862E+01  0.54347076192E+02  0.00000000000E+00 0.  1.
<scales pt_clust_4="550.00000" pt_clust_5="550.00000" pt_clust_6="54.16054"></scales>
<mgrwt>
<rscale>  0 0.30000000E+03</rscale>
<asrwt>  1 0.54160536E+02</asrwt>
<pdfrwt beam="1">  1        1 0.90479447E+00 0.30000000E+03</pdfrwt>
<pdfrwt beam="2">0</pdfrwt>
<totfact> 0.86246473E-05</totfact>
</mgrwt>
<clustering>
<clus scale="   54.161">  1  6  2 -1</clus>
<clus scale="  465.833">  4  5 -1 -1</clus>
<clus scale="  300.000">  1  4  2 -1</clus>
</clustering>
</event>
<event>
 6    1  0.9462926E-012  0.3000000E+03  0.7818608E-02  0.1093470E+00
          1   -1    0    0  502    0  0.00000000000E+00  0.00000000000E+00  0.25902351861E+03  0.25902351861E+03  0.00000000000E+00 0.  1.
         13   -1    0    0    0    0 -0.00000000000E+00 -0.00000000000E+00 -0.27500000000E+03  0.27500000000E+03  0.00000000000E+00 0.  1.
    9000005    2    1    2  501    0 -0.24703279728E+00 -0.40201501180E+02 -0.47529652619E+02  0.48291750784E+03  0.47888832704E+03 0.  0.
         13    1    3    3    0    0  0.16417866663E+03 -0.19261767323E+03  0.29178474289E+01  0.25311008761E+03  0.00000000000E+00 0.  1.
          1    1    3    3  501    0 -0.16442569943E+03  0.15241617205E+03 -0.50447500047E+02  0.22980742023E+03  0.00000000000E+00 0.  1.
         21    1    1    2  502  501  0.24703279728E+00  0.40201501180E+02  0.31553171230E+02  0.51106010772E+02  0.00000000000E+00 0.  1.
<scales pt_clust_4="550.00000" pt_clust_5="550.00000" pt_clust_6="40.20226"></scales>
<mgrwt>
<rscale>  0 0.30000000E+03</rscale>
<asrwt>  1 0.40202260E+02</asrwt>
<pdfrwt beam="1">  1        1 0.94190370E+00 0.30000000E+03</pdfrwt>
<pdfrwt beam="2">0</pdfrwt>
<totfact> 0.17304588E-05</totfact>
</mgrwt>
<clustering>
<clus scale="   40.202">  1  6  2 -1</clus>
<clus scale="  478.888">  4  5 -1 -1</clus>
<clus scale="  300.000">  1  4  2 -1</clus>
</clustering>
</event>
<event>
 6    1  0.9462926E-012  0.3000000E+03  0.7818608E-02  0.1093470E+00
          1   -1    0    0  502    0  0.00000000000E+00  0.00000000000E+00  0.25493979350E+03  0.25493979350E+03  0.00000000000E+00 0.  1.
         13   -1    0    0    0    0 -0.00000000000E+00 -0.00000000000E+00 -0.27500000000E+03  0.27500000000E+03  0.00000000000E+00 0.  1.
    9000005    2    1    2  501    0  0.33590024470E+02  0.94817397626E+01 -0.53969045773E+02  0.48127766743E+03  0.47696681450E+03 0.  0.
         13    1    3    3    0    0  0.64000717764E+02 -0.87801226380E+02  0.18888305374E+03  0.21790354568E+03  0.00000000000E+00 0.  1.
          1    1    3    3  501    0 -0.30410693294E+02  0.97282966143E+02 -0.24285209952E+03  0.26337412175E+03  0.00000000000E+00 0.  1.
         21    1    1    2  502  501 -0.33590024470E+02 -0.94817397626E+01  0.33908839276E+02  0.48662126072E+02  0.00000000000E+00 0.  1.
<scales pt_clust_4="550.00000" pt_clust_5="550.00000" pt_clust_6="34.90262"></scales>
<mgrwt>
<rscale>  0 0.30000000E+03</rscale>
<asrwt>  1 0.34902624E+02</asrwt>
<pdfrwt beam="1">  1        1 0.92705379E+00 0.30000000E+03</pdfrwt>
<pdfrwt beam="2">0</pdfrwt>
<totfact> 0.29763011E-05</totfact>
</mgrwt>
<clustering>
<clus scale="   34.903">  1  6  2 -1</clus>
<clus scale="  476.967">  4  5 -1 -1</clus>
<clus scale="  300.000">  1  4  2 -1</clus>
</clustering>
</event>
<event>
 6    1  0.9462926E-012  0.3000000E+03  0.7818608E-02  0.1093470E+00
          1   -1    0    0  502    0  0.00000000000E+00  0.00000000000E+00  0.23633841835E+03  0.23633841835E+03  0.00000000000E+00 0.  1.
         13   -1    0    0    0    0 -0.00000000000E+00 -0.00000000000E+00 -0.27500000000E+03  0.27500000000E+03  0.00000000000E+00 0.  1.
    9000005    2    1    2  501    0 -0.37343925752E+02  0.13107073136E+02 -0.38742088994E+02  0.47176101775E+03  0.46849881991E+03 0.  0.
         13    1    3    3    0    0 -0.21593860864E+03  0.10261775667E+03  0.63467028802E+02  0.24736198259E+03  0.00000000000E+00 0.  1.
          1    1    3    3  501    0  0.17859468289E+03 -0.89510683533E+02 -0.10220911780E+03  0.22439903516E+03  0.00000000000E+00 0.  1.
         21    1    1    2  502  501  0.37343925752E+02 -0.13107073136E+02  0.80507346495E-01  0.39577400600E+02  0.00000000000E+00 0. -1.
<scales pt_clust_4="550.00000" pt_clust_5="550.00000" pt_clust_6="39.57732"></scales>
<mgrwt>
<rscale>  0 0.30000000E+03</rscale>
<asrwt>  1 0.39577319E+02</asrwt>
<pdfrwt beam="1">  1        1 0.85941243E+00 0.30000000E+03</pdfrwt>
<pdfrwt beam="2">0</pdfrwt>
<totfact> 0.32077826E-04</totfact>
</mgrwt>
<clustering>
<clus scale="   39.577">  1  6  2 -1</clus>
<clus scale="  468.499">  4  5 -1 -1</clus>
<clus scale="  300.000">  1  4  2 -1</clus>
</clustering>
</event>
<event>
 6    1  0.9462926E-012  0.3000000E+03  0.7818608E-02  0.1093470E+00
          1   -1    0    0  502    0  0.00000000000E+00  0.00000000000E+00  0.22420163704E+03  0.22420163704E+03  0.00000000000E+00 0.  1.
         13   -1    0    0    0    0 -0.00000000000E+00 -0.00000000000E+00 -0.27500000000E+03  0.27500000000E+03  0.00000000000E+00 0.  1.
    9000005    2    1    2  501    0  0.14823482081E+02  0.26521442400E+02 -0.59064045274E+02  0.46771443278E+03  0.46297419653E+03 0.  0.
         13    1    3    3    0    0  0.13088406831E+03  0.19053025612E+03  0.53704403839E+02  0.23731114771E+03  0.00000000000E+00 0.  1.
          1    1    3    3  501    0 -0.11606058623E+03 -0.16400881372E+03 -0.11276844911E+03  0.23040328507E+03  0.00000000000E+00 0.  1.
         21    1    1    2  502  501 -0.14823482081E+02 -0.26521442400E+02  0.82656823102E+01  0.31487204259E+02  0.00000000000E+00 0. -1.
<scales pt_clust_4="550.00000" pt_clust_5="550.00000" pt_clust_6="30.38293"></scales>
<mgrwt>
<rscale>  0 0.30000000E+03</rscale>
<asrwt>  1 0.30382932E+02</asrwt>
<pdfrwt beam="1">  1        1 0.81527868E+00 0.30000000E+03</pdfrwt>
<pdfrwt beam="2">0</pdfrwt>
<totfact> 0.81344114E-04</totfact>
</mgrwt>
<clustering>
<clus scale="   30.383">  1  6  2 -1</clus>
<clus scale="  462.974">  4  5 -1 -1</clus>
<clus scale="  300.000">  1  4  2 -1</clus>
</clustering>
</event>
<event>
 6    1  0.9462926E-012  0.3000000E+03  0.7818608E-02  0.1093470E+00
          1   -1    0    0  502    0  0.00000000000E+00  0.00000000000E+00  0.23434139240E+03  0.23434139240E+03  0.00000000000E+00 0.  1.
         13   -1    0    0    0    0 -0.00000000000E+00 -0.00000000000E+00 -0.27500000000E+03  0.27500000000E+03  0.00000000000E+00 0.  1.
    9000005    2    1    2  501    0  0.25925203486E+02  0.25043445841E+02 -0.58304098295E+02  0.46920844213E+03  0.46417443266E+03 0.  0.
         13    1    3    3    0    0 -0.20794640070E+03  0.64111641410E+01  0.45005047125E+02  0.21285737680E+03  0.00000000000E+00 0.  1.
          1    1    3    3  501    0  0.23387160419E+03  0.18632281700E+02 -0.10330914542E+03  0.25635106533E+03  0.00000000000E+00 0.  1.
         21    1    1    2  502  501 -0.25925203486E+02 -0.25043445841E+02  0.17645490692E+02  0.40132950267E+02  0.00000000000E+00 0. -1.
<scales pt_clust_4="550.00000" pt_clust_5="550.00000" pt_clust_6="36.04567"></scales>
<mgrwt>
<rscale>  0 0.30000000E+03</rscale>
<asrwt>  1 0.36045670E+02</asrwt>
<pdfrwt beam="1">  1        1 0.85215052E+00 0.30000000E+03</pdfrwt>
<pdfrwt beam="2">0</pdfrwt>
<totfact> 0.38617936E-04</totfact>
</mgrwt>
<clustering>
<clus scale="   36.046">  1  6  2 -1</clus>
<clus scale="  464.174">  4  5 -1 -1</clus>
<clus scale="  300.000">  1  4  2 -1</clus>
</clustering>
</event>
<event>
 6    1  0.9462926E-012  0.3000000E+03  0.7818608E-02  0.1093470E+00
          1   -1    0    0  502    0  0.00000000000E+00  0.00000000000E+00  0.23502540965E+03  0.23502540965E+03  0.00000000000E+00 0.  1.
         13   -1    0    0    0    0 -0.00000000000E+00 -0.00000000000E+00 -0.27500000000E+03  0.27500000000E+03  0.00000000000E+00 0.  1.
    9000005    2    1    2  501    0  0.30375689286E+02 -0.22360843168E+02 -0.42477544789E+01  0.45807257905E+03  0.45649726664E+03 0.  0.
         13    1    3    3    0    0 -0.12739583604E+03 -0.15437094104E+03  0.10406326463E+03  0.22558645687E+03  0.00000000000E+00 0.  1.
          3    1    3    3  501    0  0.15777152533E+03  0.13201009787E+03 -0.10831101911E+03  0.23248612218E+03  0.00000000000E+00 0.  1.
         21    1    1    2  502  501 -0.30375689286E+02  0.22360843168E+02 -0.35726835868E+02  0.51952830605E+02  0.00000000000E+00 0.  1.
<scales pt_clust_4="550.00000" pt_clust_5="550.00000" pt_clust_6="37.71858"></scales>
<mgrwt>
<rscale>  0 0.30000000E+03</rscale>
<asrwt>  1 0.37718579E+02</asrwt>
<pdfrwt beam="1">  1        1 0.85463785E+00 0.30000000E+03</pdfrwt>
<pdfrwt beam="2">0</pdfrwt>
<totfact> 0.36228036E-04</totfact>
</mgrwt>
<clustering>
<clus scale="   37.719">  1  6  2 -1</clus>
<clus scale="  456.497">  4  5 -1 -1</clus>
<clus scale="  300.000">  1  4  2 -1</clus>
</clustering>
</event>
<event>
 6    1  0.9462926E-012  0.3000000E+03  0.7818608E-02  0.1093470E+00
          1   -1    0    0  502    0  0.00000000000E+00  0.00000000000E+00  0.23973502635E+03  0.23973502635E+03  0.00000000000E+00 0.  1.
         13   -1    0    0    0    0 -0.00000000000E+00 -0.00000000000E+00 -0.27500000000E+03  0.27500000000E+03  0.00000000000E+00 0.  1.
    9000005    2    1    2  501    0 -0.19920850274E+02  0.25138723279E+02 -0.69434170262E+02  0.46787001082E+03  0.46157604719E+03 0.  0.
         13    1    3    3    0    0 -0.22422644982E+03  0.21615366370E+02  0.50609808053E+02  0.23088108960E+03  0.00000000000E+00 0.  1.
          3    1    3    3  501    0  0.20430559955E+03  0.35233569091E+01 -0.12004397831E+03  0.23698892122E+03  0.00000000000E+00 0.  1.
         21    1    1    2  502  501  0.19920850274E+02 -0.25138723279E+02  0.34169196608E+02  0.46865015529E+02  0.00000000000E+00 0.  1.
<scales pt_clust_4="550.00000" pt_clust_5="550.00000" pt_clust_6="32.07485"></scales>
<mgrwt>
<rscale>  0 0.30000000E+03</rscale>
<asrwt>  1 0.32074845E+02</asrwt>
<pdfrwt beam="1">  1        1 0.87176373E+00 0.30000000E+03</pdfrwt>
<pdfrwt beam="2">0</pdfrwt>
<totfact> 0.24699591E-04</totfact>
</mgrwt>
<clustering>
<clus scale="   32.075">  1  6  2 -1</clus>
<clus scale="  461.576">  4  5 -1 -1</clus>
<clus scale="  300.000">  1  4  2 -1</clus>
</clustering>
</event>
<event>
 6    1  0.9462926E-012  0.3000000E+03  0.7818608E-02  0.1093470E+00
          1   -1    0    0  502    0  0.00000000000E+00  0.00000000000E+00  0.25554222268E+03  0.25554222268E+03  0.00000000000E+00 0.  1.
         13   -1    0    0    0    0 -0.00000000000E+00 -0.00000000000E+00 -0.27500000000E+03  0.27500000000E+03  0.00000000000E+00 0.  1.
    9000005    2    1    2  501    0 -0.49298302092E+02 -0.25336799360E+02 -0.14459043461E+02  0.47488916049E+03  0.47142165290E+03 0.  0.
         13    1    3    3    0    0  0.45830958949E+01 -0.24618924202E+03  0.86768263695E+01  0.24638472958E+03  0.00000000000E+00 0.  1.
          3    1    3    3  501    0 -0.53881397987E+02  0.22085244266E+03 -0.23135869830E+02  0.22850443092E+03  0.00000000000E+00 0.  1.
         21    1    1    2  502  501  0.49298302092E+02  0.25336799360E+02 -0.49987338559E+01  0.55653062190E+02  0.00000000000E+00 0. -1.
<scales pt_clust_4="550.00000" pt_clust_5="550.00000" pt_clust_6="55.42814"></scales>
<mgrwt>
<rscale>  0 0.30000000E+03</rscale>
<asrwt>  1 0.55428143E+02</asrwt>
<pdfrwt beam="1">  1        1 0.92924445E+00 0.30000000E+03</pdfrwt>
<pdfrwt beam="2">0</pdfrwt>
<totfact> 0.24914407E-05</totfact>
</mgrwt>
<clustering>
<clus scale="   55.428">  1  6  2 -1</clus>
<clus scale="  471.422">  4  5 -1 -1</clus>
<clus scale="  300.000">  1  4  2 -1</clus>
</clustering>
</event>
<event>
 6    1  0.9462926E-012  0.3000000E+03  0.7818608E-02  0.1093470E+00
          1   -1    0    0  502    0  0.00000000000E+00  0.00000000000E+00  0.23107001966E+03  0.23107001966E+03  0.00000000000E+00 0.  1.
         13   -1    0    0    0    0 -0.00000000000E+00 -0.00000000000E+00 -0.27500000000E+03  0.27500000000E+03  0.00000000000E+00 0.  1.
    9000005    2    1    2  501    0 -0.31522692731E+02  0.11227509216E+02 -0.62963773795E+02  0.46757297544E+03  0.46210422356E+03 0.  0.
         13    1    3    3    0    0 -0.22189625357E+03  0.96326209354E+02 -0.88294211881E+02  0.25751224012E+03  0.00000000000E+00 0.  1.
          3    1    3    3  501    0  0.19037356084E+03 -0.85098700137E+02  0.25330438086E+02  0.21006073533E+03  0.00000000000E+00 0.  1.
         21    1    1    2  502  501  0.31522692731E+02 -0.11227509216E+02  0.19033793453E+02  0.38497044217E+02  0.00000000000E+00 0. -1.
<scales pt_clust_4="550.00000" pt_clust_5="550.00000" pt_clust_6="33.46247"></scales>
<mgrwt>
<rscale>  0 0.30000000E+03</rscale>
<asrwt>  1 0.33462473E+02</asrwt>
<pdfrwt beam="1">  1        1 0.84025462E+00 0.30000000E+03</pdfrwt>
<pdfrwt beam="2">0</pdfrwt>
<totfact> 0.49899519E-04</totfact>
</mgrwt>
<clustering>
<clus scale="   33.462">  1  6  2 -1</clus>
<clus scale="  462.104">  4  5 -1 -1</clus>
<clus scale="  300.000">  1  4  2 -1</clus>
</clustering>
</event>
<event>
 6    1  0.9462926E-012  0.3000000E+03  0.7818608E-02  0.1093470E+00
          1   -1    0    0  502    0  0.00000000000E+00  0.00000000000E+00  0.23072542775E+03  0.23072542775E+03  0.00000000000E+00 0.  1.
         13   -1    0    0    0    0 -0.00000000000E+00 -0.00000000000E+00 -0.27500000000E+03  0.27500000000E+03  0.00000000000E+00 0.  1.
    9000005    2    1    2  501    0 -0.24779298237E+02 -0.22481953650E+02 -0.29610995695E+02  0.46919499744E+03  0.46706282521E+03 0.  0.
         13    1    3    3    0    0  0.50619046200E+02 -0.18343210746E+02 -0.23984362063E+03  0.24581237474E+03  0.00000000000E+00 0.  1.
          1    1    3    3  501    0 -0.75398344437E+02 -0.41387429033E+01  0.21023262493E+03  0.22338262270E+03  0.00000000000E+00 0.  1.
         21    1    1    2  502  501  0.24779298237E+02  0.22481953650E+02 -0.14663576559E+02  0.36530430308E+02  0.00000000000E+00 0.  1.
<scales pt_clust_4="550.00000" pt_clust_5="550.00000" pt_clust_6="33.45823"></scales>
<mgrwt>
<rscale>  0 0.30000000E+03</rscale>
<asrwt>  1 0.33458227E+02</asrwt>
<pdfrwt beam="1">  1        1 0.83900156E+00 0.30000000E+03</pdfrwt>
<pdfrwt beam="2">0</pdfrwt>
<totfact> 0.51006234E-04</totfact>
</mgrwt>
<clustering>
<clus scale="   33.458">  1  6  2 -1</clus>
<clus scale="  467.063">  4  5 -1 -1</clus>
<clus scale="  300.000">  1  4  2 -1</clus>
</clustering>
</event>
<event>
 6    1  0.9462926E-012  0.3000000E+03  0.7818608E-02  0.1093470E+00
          1   -1    0    0  502    0  0.00000000000E+00  0.00000000000E+00  0.24201812182E+03  0.24201812182E+03  0.00000000000E+00 0.  1.
         13   -1    0    0    0    0 -0.00000000000E+00 -0.00000000000E+00 -0.27500000000E+03  0.27500000000E+03  0.00000000000E+00 0.  1.
    9000005    2    1    2  501    0 -0.30184595641E+02 -0.10033586343E+02 -0.18160520355E+02  0.48192602419E+03  0.48053210675E+03 0.  0.
         13    1    3    3    0    0 -0.42904612597E+01  0.22079597347E+03 -0.90474551130E+02  0.23865228757E+03  0.00000000000E+00 0.  1.
          3    1    3    3  501    0 -0.25894134381E+02 -0.23082955982E+03  0.72314030775E+02  0.24327373662E+03  0.00000000000E+00 0.  1.
         21    1    1    2  502  501  0.30184595641E+02  0.10033586343E+02 -0.14821357820E+02  0.35092097636E+02  0.00000000000E+00 0. -1.
<scales pt_clust_4="550.00000" pt_clust_5="550.00000" pt_clust_6="31.80855"></scales>
<mgrwt>
<rscale>  0 0.30000000E+03</rscale>
<asrwt>  1 0.31808547E+02</asrwt>
<pdfrwt beam="1">  1        1 0.88006590E+00 0.30000000E+03</pdfrwt>
<pdfrwt beam="2">0</pdfrwt>
<totfact> 0.20059467E-04</totfact>
</mgrwt>
<clustering>
<clus scale="   31.809">  1  6  2 -1</clus>
<clus scale="  480.532">  4  5 -1 -1</clus>
<clus scale="  300.000">  1  4  2 -1</clus>
</clustering>
</event>
<event>
 6    1  0.9462926E-012  0.3000000E+03  0.7818608E-02  0.1093470E+00
          1   -1    0    0  502    0  0.00000000000E+00  0.00000000000E+00  0.25162805512E+03  0.25162805512E+03  0.00000000000E+00 0.  1.
         13   -1    0    0    0    0 -0.00000000000E+00 -0.00000000000E+00 -0.27500000000E+03  0.27500000000E+03  0.00000000000E+00 0.  1.
    9000005    2    1    2  501    0  0.72786817056E+01  0.37547440272E+02 -0.24256575278E+02  0.48837139492E+03  0.48626684902E+03 0.  0.
         13    1    3    3    0    0 -0.55656680395E+02 -0.14199129689E+03  0.16174285864E+03  0.22230597559E+03  0.00000000000E+00 0.  1.
          3    1    3    3  501    0  0.62935362101E+02  0.17953873716E+03 -0.18599943392E+03  0.26606541933E+03  0.00000000000E+00 0.  1.
         21    1    1    2  502  501 -0.72786817056E+01 -0.37547440272E+02  0.88463039449E+00  0.38256660195E+02  0.00000000000E+00 0.  1.
<scales pt_clust_4="550.00000" pt_clust_5="550.00000" pt_clust_6="38.24643"></scales>
<mgrwt>
<rscale>  0 0.30000000E+03</rscale>
<asrwt>  1 0.38246431E+02</asrwt>
<pdfrwt beam="1">  1        1 0.91501111E+00 0.30000000E+03</pdfrwt>
<pdfrwt beam="2">0</pdfrwt>
<totfact> 0.53230862E-05</totfact>
</mgrwt>
<clustering>
<clus scale="   38.246">  1  6  2 -1</clus>
<clus scale="  486.267">  4  5 -1 -1</clus>
<clus scale="  300.000">  1  4  2 -1</clus>
</clustering>
</event>
<event>
 6    1  0.9462926E-012  0.3000000E+03  0.7818608E-02  0.1093470E+00
          1   -1    0    0  502    0  0.00000000000E+00  0.00000000000E+00  0.23486848728E+03  0.23486848728E+03  0.00000000000E+00 0.  1.
         13   -1    0    0    0    0 -0.00000000000E+00 -0.00000000000E+00 -0.27500000000E+03  0.27500000000E+03  0.00000000000E+00 0.  1.
    9000005    2    1    2  501    0  0.38539696214E+01  0.34531790595E+02 -0.59978709697E+02  0.46985337924E+03  0.46471222786E+03 0.  0.
         13    1    3    3    0    0  0.19259368377E+03 -0.82403737453E+02  0.59434196314E+02  0.21775014734E+03  0.00000000000E+00 0.  1.
          3    1    3    3  501    0 -0.18873971415E+03  0.11693552805E+03 -0.11941290601E+03  0.25210323191E+03  0.00000000000E+00 0.  1.
         21    1    1    2  502  501 -0.38539696214E+01 -0.34531790595E+02  0.19847196981E+02  0.40015108042E+02  0.00000000000E+00 0.  1.
<scales pt_clust_4="550.00000" pt_clust_5="550.00000" pt_clust_6="34.74619"></scales>
<mgrwt>
<rscale>  0 0.30000000E+03</rscale>
<asrwt>  1 0.34746189E+02</asrwt>
<pdfrwt beam="1">  1        1 0.85406723E+00 0.30000000E+03</pdfrwt>
<pdfrwt beam="2">0</pdfrwt>
<totfact> 0.37261017E-04</totfact>
</mgrwt>
<clustering>
<clus scale="   34.746">  1  6  2 -1</clus>
<clus scale="  464.712">  4  5 -1 -1</clus>
<clus scale="  300.000">  1  4  2 -1</clus>
</clustering>
</event>
<event>
 6    1  0.9462926E-012  0.3000000E+03  0.7818608E-02  0.1093470E+00
          1   -1    0    0  502    0  0.00000000000E+00  0.00000000000E+00  0.24646132673E+03  0.24646132673E+03  0.00000000000E+00 0.  1.
         13   -1    0    0    0    0 -0.00000000000E+00 -0.00000000000E+00 -0.27500000000E+03  0.27500000000E+03  0.00000000000E+00 0.  1.
    9000005    2    1    2  501    0 -0.28163135576E+02 -0.30621158250E+02 -0.28322353172E+02  0.47985766905E+03  0.47721107418E+03 0.  0.
         13    1    3    3    0    0 -0.96453062028E+02 -0.21609914384E+03 -0.11609977148E+03  0.26359284907E+03  0.00000000000E+00 0.  1.
          1    1    3    3  501    0  0.68289926453E+02  0.18547798559E+03  0.87777418311E+02  0.21626481998E+03  0.00000000000E+00 0.  1.
         21    1    1    2  502  501  0.28163135576E+02  0.30621158250E+02 -0.21632009983E+00  0.41603657681E+02  0.00000000000E+00 0.  1.
<scales pt_clust_4="550.00000" pt_clust_5="550.00000" pt_clust_6="41.60310"></scales>
<mgrwt>
<rscale>  0 0.30000000E+03</rscale>
<asrwt>  1 0.41603095E+02</asrwt>
<pdfrwt beam="1">  1        1 0.89622301E+00 0.30000000E+03</pdfrwt>
<pdfrwt beam="2">0</pdfrwt>
<totfact> 0.11836415E-04</totfact>
</mgrwt>
<clustering>
<clus scale="   41.603">  1  6  2 -1</clus>
<clus scale="  477.211">  4  5 -1 -1</clus>
<clus scale="  300.000">  1  4  2 -1</clus>
</clustering>
</event>
<event>
 6    1  0.9462926E-012  0.3000000E+03  0.7818608E-02  0.1093470E+00
          1   -1    0    0  502    0  0.00000000000E+00  0.00000000000E+00  0.24057193970E+03  0.24057193970E+03  0.00000000000E+00 0.  1.
         13   -1    0    0    0    0 -0.00000000000E+00 -0.00000000000E+00 -0.27500000000E+03  0.27500000000E+03  0.00000000000E+00 0.  1.
    9000005    2    1    2  501    0  0.29726359641E+02  0.11982959166E+02 -0.32439487352E+02  0.48345960266E+03  0.48130408194E+03 0.  0.
         13    1    3    3    0    0  0.24834391737E+03 -0.48950202394E+02  0.64345514420E+01  0.25320392386E+03  0.00000000000E+00 0.  1.
          3    1    3    3  501    0 -0.21861755773E+03  0.60933161560E+02 -0.38874038794E+02  0.23025567879E+03  0.00000000000E+00 0.  1.
         21    1    1    2  502  501 -0.29726359641E+02 -0.11982959166E+02 -0.19885729496E+01  0.32112337042E+02  0.00000000000E+00 0.  1.
<scales pt_clust_4="550.00000" pt_clust_5="550.00000" pt_clust_6="32.05071"></scales>
<mgrwt>
<rscale>  0 0.30000000E+03</rscale>
<asrwt>  1 0.32050706E+02</asrwt>
<pdfrwt beam="1">  1        1 0.87480705E+00 0.30000000E+03</pdfrwt>
<pdfrwt beam="2">0</pdfrwt>
<totfact> 0.22976743E-04</totfact>
</mgrwt>
<clustering>
<clus scale="   32.051">  1  6  2 -1</clus>
<clus scale="  481.304">  4  5 -1 -1</clus>
<clus scale="  300.000">  1  4  2 -1</clus>
</clustering>
</event>
<event>
 6    1  0.9462926E-012  0.3000000E+03  0.7818608E-02  0.1093470E+00
          1   -1    0    0  502    0  0.00000000000E+00  0.00000000000E+00  0.22714668851E+03  0.22714668851E+03  0.00000000000E+00 0.  1.
         13   -1    0    0    0    0 -0.00000000000E+00 -0.00000000000E+00 -0.27500000000E+03  0.27500000000E+03  0.00000000000E+00 0.  1.
    9000005    2    1    2  501    0 -0.29550168985E+02 -0.11764651652E+02 -0.65113315128E+02  0.46595929787E+03  0.46028980431E+03 0.  0.
         13    1    3    3    0    0  0.17752809819E+03 -0.90245192020E+02  0.64539270326E+02  0.20934597618E+03  0.00000000000E+00 0.  1.
          1    1    3    3  501    0 -0.20707826718E+03  0.78480540368E+02 -0.12965258545E+03  0.25661332169E+03  0.00000000000E+00 0.  1.
         21    1    1    2  502  501  0.29550168985E+02  0.11764651652E+02  0.17260003638E+02  0.36187390637E+02  0.00000000000E+00 0.  1.
<scales pt_clust_4="550.00000" pt_clust_5="550.00000" pt_clust_6="31.80597"></scales>
<mgrwt>
<rscale>  0 0.30000000E+03</rscale>
<asrwt>  1 0.31805967E+02</asrwt>
<pdfrwt beam="1">  1        1 0.82598796E+00 0.30000000E+03</pdfrwt>
<pdfrwt beam="2">0</pdfrwt>
<totfact> 0.65173548E-04</totfact>
</mgrwt>
<clustering>
<clus scale="   31.806">  1  6  2 -1</clus>
<clus scale="  460.290">  4  5 -1 -1</clus>
<clus scale="  300.000">  1  4  2 -1</clus>
</clustering>
</event>
<event>
 6    1  0.9462926E-012  0.3000000E+03  0.7818608E-02  0.1093470E+00
          1   -1    0    0  502    0  0.00000000000E+00  0.00000000000E+00  0.22523586517E+03  0.22523586517E+03  0.00000000000E+00 0.  1.
         13   -1    0    0    0    0 -0.00000000000E+00 -0.00000000000E+00 -0.27500000000E+03  0.27500000000E+03  0.00000000000E+00 0.  1.
    9000005    2    1    2  501    0 -0.33418967801E+01  0.36441053028E+02 -0.50365230881E+02  0.46363695895E+03  0.45943819454E+03 0.  0.
         13    1    3    3    0    0  0.10599939280E+03 -0.17516988122E+03  0.40484498618E+02  0.20870877602E+03  0.00000000000E+00 0.  1.
          1    1    3    3  501    0 -0.10934128958E+03  0.21161093425E+03 -0.90849729499E+02  0.25492818293E+03  0.00000000000E+00 0.  1.
         21    1    1    2  502  501  0.33418967801E+01 -0.36441053028E+02  0.60109604884E+00  0.36598906218E+02  0.00000000000E+00 0. -1.
<scales pt_clust_4="550.00000" pt_clust_5="550.00000" pt_clust_6="36.59397"></scales>
<mgrwt>
<rscale>  0 0.30000000E+03</rscale>
<asrwt>  1 0.36593970E+02</asrwt>
<pdfrwt beam="1">  1        1 0.81903951E+00 0.30000000E+03</pdfrwt>
<pdfrwt beam="2">0</pdfrwt>
<totfact> 0.73107887E-04</totfact>
</mgrwt>
<clustering>
<clus scale="   36.594">  1  6  2 -1</clus>
<clus scale="  459.438">  4  5 -1 -1</clus>
<clus scale="  300.000">  1  4  2 -1</clus>
</clustering>
</event>
<event>
 6    1  0.9462926E-012  0.3000000E+03  0.7818608E-02  0.1093470E+00
          1   -1    0    0  502    0  0.00000000000E+00  0.00000000000E+00  0.25948439233E+03  0.25948439233E+03  0.00000000000E+00 0.  1.
         13   -1    0    0    0    0 -0.00000000000E+00 -0.00000000000E+00 -0.27500000000E+03  0.27500000000E+03  0.00000000000E+00 0.  1.
    9000005    2    1    2  501    0 -0.47746182548E+02  0.40984560520E+02 -0.38608291864E+02  0.46745675465E+03  0.46159049505E+03 0.  0.
         13    1    3    3    0    0  0.11480649924E+03  0.15672379515E+03  0.10572714705E+03  0.22118116976E+03  0.00000000000E+00 0.  1.
          1    1    3    3  501    0 -0.16255268179E+03 -0.11573923463E+03 -0.14433543891E+03  0.24627558489E+03  0.00000000000E+00 0.  1.
         21    1    1    2  502  501  0.47746182548E+02 -0.40984560520E+02  0.23092684189E+02  0.67027637673E+02  0.00000000000E+00 0.  1.
<scales pt_clust_4="550.00000" pt_clust_5="550.00000" pt_clust_6="62.92402"></scales>
<mgrwt>
<rscale>  0 0.30000000E+03</rscale>
<asrwt>  1 0.62924019E+02</asrwt>
<pdfrwt beam="1">  1        1 0.94357961E+00 0.30000000E+03</pdfrwt>
<pdfrwt beam="2">0</pdfrwt>
<totfact> 0.14908614E-05</totfact>
</mgrwt>
<clustering>
<clus scale="   62.924">  1  6  2 -1</clus>
<clus scale="  461.590">  4  5 -1 -1</clus>
<clus scale="  300.000">  1  4  2 -1</clus>
</clustering>
</event>
<event>
 6    1  0.9462926E-012  0.3000000E+03  0.7818608E-02  0.1093470E+00
          1   -1    0    0  502    0  0.00000000000E+00  0.00000000000E+00  0.22927230429E+03  0.22927230429E+03  0.00000000000E+00 0.  1.
         13   -1    0    0    0    0 -0.00000000000E+00 -0.00000000000E+00 -0.27500000000E+03  0.27500000000E+03  0.00000000000E+00 0.  1.
    9000005    2    1    2  501    0  0.12127300623E+01 -0.32537975229E+02 -0.62630154655E+02  0.46758601714E+03  0.46222716992E+03 0.  0.
         13    1    3    3    0    0  0.82694851332E+02 -0.20819965680E+03 -0.13420141335E+03  0.26114278637E+03  0.00000000000E+00 0.  1.
          3    1    3    3  501    0 -0.81482121270E+02  0.17566168157E+03  0.71571258691E+02  0.20644323077E+03  0.00000000000E+00 0.  1.
         21    1    1    2  502  501 -0.12127300623E+01  0.32537975229E+02  0.16902458942E+02  0.36686287145E+02  0.00000000000E+00 0. -1.
<scales pt_clust_4="550.00000" pt_clust_5="550.00000" pt_clust_6="32.56057"></scales>
<mgrwt>
<rscale>  0 0.30000000E+03</rscale>
<asrwt>  1 0.32560567E+02</asrwt>
<pdfrwt beam="1">  1        1 0.83371747E+00 0.30000000E+03</pdfrwt>
<pdfrwt beam="2">0</pdfrwt>
<totfact> 0.56044801E-04</totfact>
</mgrwt>
<clustering>
<clus scale="   32.561">  1  6  2 -1</clus>
<clus scale="  462.227">  4  5 -1 -1</clus>
<clus scale="  300.000">  1  4  2 -1</clus>
</clustering>
</event>
<event>
 6    1  0.9462926E-012  0.3000000E+03  0.7818608E-02  0.1093470E+00
          1   -1    0    0  502    0  0.00000000000E+00  0.00000000000E+00  0.22497494798E+03  0.22497494798E+03  0.00000000000E+00 0.  1.
         13   -1    0    0    0    0 -0.00000000000E+00 -0.00000000000E+00 -0.27500000000E+03  0.27500000000E+03  0.00000000000E+00 0.  1.
    9000005    2    1    2  501    0 -0.29624662757E+02  0.99711533586E+01 -0.54848092313E+02  0.46834732935E+03  0.46407312262E+03 0.  0.
         13    1    3    3    0    0 -0.20642671200E+03 -0.79477199089E+02 -0.12983955294E+03  0.25648961404E+03  0.00000000000E+00 0.  1.
          3    1    3    3  501    0  0.17680204924E+03  0.89448352448E+02  0.74991460624E+02  0.21185771531E+03  0.00000000000E+00 0.  1.
         21    1    1    2  502  501  0.29624662757E+02 -0.99711533586E+01  0.48230402959E+01  0.31627618634E+02  0.00000000000E+00 0. -1.
<scales pt_clust_4="550.00000" pt_clust_5="550.00000" pt_clust_6="31.25771"></scales>
<mgrwt>
<rscale>  0 0.30000000E+03</rscale>
<asrwt>  1 0.31257712E+02</asrwt>
<pdfrwt beam="1">  1        1 0.81809072E+00 0.30000000E+03</pdfrwt>
<pdfrwt beam="2">0</pdfrwt>
<totfact> 0.76712746E-04</totfact>
</mgrwt>
<clustering>
<clus scale="   31.258">  1  6  2 -1</clus>
<clus scale="  464.073">  4  5 -1 -1</clus>
<clus scale="  300.000">  1  4  2 -1</clus>
</clustering>
</event>
<event>
 6    1  0.9462926E-012  0.3000000E+03  0.7818608E-02  0.1093470E+00
          1   -1    0    0  502    0  0.00000000000E+00  0.00000000000E+00  0.23894215822E+03  0.23894215822E+03  0.00000000000E+00 0.  1.
         13   -1    0    0    0    0 -0.00000000000E+00 -0.00000000000E+00 -0.27500000000E+03  0.27500000000E+03  0.00000000000E+00 0.  1.
    9000005    2    1    2  501    0  0.28774786291E+02  0.15177414129E+02 -0.57956948284E+02  0.47472592317E+03  0.47005037183E+03 0.  0.
         13    1    3    3    0    0  0.58365217281E+02 -0.19087803346E+03 -0.14742667873E+03  0.24814420777E+03  0.00000000000E+00 0.  1.
          3    1    3    3  501    0 -0.29590430991E+02  0.20605544759E+03  0.89469730449E+02  0.22658171540E+03  0.00000000000E+00 0.  1.
         21    1    1    2  502  501 -0.28774786291E+02 -0.15177414129E+02  0.21899106509E+02  0.39216235051E+02  0.00000000000E+00 0.  1.
<scales pt_clust_4="550.00000" pt_clust_5="550.00000" pt_clust_6="32.53217"></scales>
<mgrwt>
<rscale>  0 0.30000000E+03</rscale>
<asrwt>  1 0.32532172E+02</asrwt>
<pdfrwt beam="1">  1        1 0.86888058E+00 0.30000000E+03</pdfrwt>
<pdfrwt beam="2">0</pdfrwt>
<totfact> 0.26364268E-04</totfact>
</mgrwt>
<clustering>
<clus scale="   32.532">  1  6  2 -1</clus>
<clus scale="  470.050">  4  5 -1 -1</clus>
<clus scale="  300.000">  1  4  2 -1</clus>
</clustering>
</event>
<event>
 6    1  0.9462926E-012  0.3000000E+03  0.7818608E-02  0.1093470E+00
          1   -1    0    0  502    0  0.00000000000E+00  0.00000000000E+00  0.23657369237E+03  0.23657369237E+03  0.00000000000E+00 0.  1.
         13   -1    0    0    0    0 -0.00000000000E+00 -0.00000000000E+00 -0.27500000000E+03  0.27500000000E+03  0.00000000000E+00 0.  1.
    9000005    2    1    2  501    0 -0.27856842148E+02  0.20131163817E+02 -0.19855603783E+02  0.47250787032E+03  0.47083773755E+03 0.  0.
         13    1    3    3    0    0 -0.41304092263E+02 -0.94996617239E+02  0.19928587020E+03  0.22460018563E+03  0.00000000000E+00 0.  1.
          3    1    3    3  501    0  0.13447250115E+02  0.11512778106E+03 -0.21914147398E+03  0.24790768469E+03  0.00000000000E+00 0.  1.
         21    1    1    2  502  501  0.27856842148E+02 -0.20131163817E+02 -0.18570703847E+02  0.39065822050E+02  0.00000000000E+00 0. -1.
<scales pt_clust_4="550.00000" pt_clust_5="550.00000" pt_clust_6="34.36959"></scales>
<mgrwt>
<rscale>  0 0.30000000E+03</rscale>
<asrwt>  1 0.34369588E+02</asrwt>
<pdfrwt beam="1">  1        1 0.86026797E+00 0.30000000E+03</pdfrwt>
<pdfrwt beam="2">0</pdfrwt>
<totfact> 0.32243507E-04</totfact>
</mgrwt>
<clustering>
<clus scale="   34.370">  1  6  2 -1</clus>
<clus scale="  470.838">  4  5 -1 -1</clus>
<clus scale="  300.000">  1  4  2 -1</clus>
</clustering>
</event>
<event>
 6    1  0.9462926E-012  0.3000000E+03  0.7818608E-02  0.1093470E+00
          1   -1    0    0  502    0  0.00000000000E+00  0.00000000000E+00  0.23375945093E+03  0.23375945093E+03  0.00000000000E+00 0.  1.
         13   -1    0    0    0    0 -0.00000000000E+00 -0.00000000000E+00 -0.27500000000E+03  0.27500000000E+03  0.00000000000E+00 0.  1.
    9000005    2    1    2  501    0  0.38598250253E+02  0.19860428033E+02 -0.53963404368E+02  0.46352525401E+03  0.45832232170E+03 0.  0.
         13    1    3    3    0    0  0.15575116372E+03  0.96228179535E+02  0.13569399721E+03  0.22788406793E+03  0.00000000000E+00 0.  1.
          3    1    3    3  501    0 -0.11715291347E+03 -0.76367751501E+02 -0.18965740158E+03  0.23564118608E+03  0.00000000000E+00 0.  1.
         21    1    1    2  502  501 -0.38598250253E+02 -0.19860428033E+02  0.12722855297E+02  0.45234196922E+02  0.00000000000E+00 0.  1.
<scales pt_clust_4="550.00000" pt_clust_5="550.00000" pt_clust_6="43.40808"></scales>
<mgrwt>
<rscale>  0 0.30000000E+03</rscale>
<asrwt>  1 0.43408081E+02</asrwt>
<pdfrwt beam="1">  1        1 0.85003437E+00 0.30000000E+03</pdfrwt>
<pdfrwt beam="2">0</pdfrwt>
<totfact> 0.39094209E-04</totfact>
</mgrwt>
<clustering>
<clus scale="   43.408">  1  6  2 -1</clus>
<clus scale="  458.322">  4  5 -1 -1</clus>
<clus scale="  300.000">  1  4  2 -1</clus>
</clustering>
</event>
<event>
 6    1  0.9462926E-012  0.3000000E+03  0.7818608E-02  0.1093470E+00
          1   -1    0    0  502    0  0.00000000000E+00  0.00000000000E+00  0.24245879682E+03  0.24245879682E+03  0.00000000000E+00 0.  1.
         13   -1    0    0    0    0 -0.00000000000E+00 -0.00000000000E+00 -0.27500000000E+03  0.27500000000E+03  0.00000000000E+00 0.  1.
    9000005    2    1    2  501    0  0.28012220322E+02  0.15510460332E+02 -0.70900372486E+02  0.46749196045E+03  0.46097354740E+03 0.  0.
         13    1    3    3    0    0 -0.16290182926E+03 -0.13084472475E+03 -0.87141057469E+02  0.22638664243E+03  0.00000000000E+00 0.  1.
          1    1    3    3  501    0  0.19091404958E+03  0.14635518509E+03  0.16240684983E+02  0.24110531802E+03  0.00000000000E+00 0.  1.
         21    1    1    2  502  501 -0.28012220322E+02 -0.15510460332E+02  0.38359169311E+02  0.49966836375E+02  0.00000000000E+00 0. -1.
<scales pt_clust_4="550.00000" pt_clust_5="550.00000" pt_clust_6="32.01966"></scales>
<mgrwt>
<rscale>  0 0.30000000E+03</rscale>
<asrwt>  1 0.32019664E+02</asrwt>
<pdfrwt beam="1">  1        1 0.88166835E+00 0.30000000E+03</pdfrwt>
<pdfrwt beam="2">0</pdfrwt>
<totfact> 0.19121043E-04</totfact>
</mgrwt>
<clustering>
<clus scale="   32.020">  1  6  2 -1</clus>
<clus scale="  460.974">  4  5 -1 -1</clus>
<clus scale="  300.000">  1  4  2 -1</clus>
</clustering>
</event>
<event>
 6    1  0.9462926E-012  0.3000000E+03  0.7818608E-02  0.1093470E+00
          1   -1    0    0  502    0  0.00000000000E+00  0.00000000000E+00  0.24140182815E+03  0.24140182815E+03  0.00000000000E+00 0.  1.
         13   -1    0    0    0    0 -0.00000000000E+00 -0.00000000000E+00 -0.27500000000E+03  0.27500000000E+03  0.00000000000E+00 0.  1.
    9000005    2    1    2  501    0  0.34696539606E+02 -0.98835692443E+00 -0.43109887490E+02  0.48041155940E+03  0.47721271703E+03 0.  0.
         13    1    3    3    0    0 -0.17418460217E+03  0.90847448177E+02 -0.13074601922E+03  0.23598316892E+03  0.00000000000E+00 0.  1.
          3    1    3    3  501    0  0.20888114177E+03 -0.91835805101E+02  0.87636131732E+02  0.24442839048E+03  0.00000000000E+00 0.  1.
         21    1    1    2  502  501 -0.34696539606E+02  0.98835692443E+00  0.95117156365E+01  0.35990268746E+02  0.00000000000E+00 0.  1.
<scales pt_clust_4="550.00000" pt_clust_5="550.00000" pt_clust_6="34.71061"></scales>
<mgrwt>
<rscale>  0 0.30000000E+03</rscale>
<asrwt>  1 0.34710614E+02</asrwt>
<pdfrwt beam="1">  1        1 0.87782483E+00 0.30000000E+03</pdfrwt>
<pdfrwt beam="2">0</pdfrwt>
<totfact> 0.20979162E-04</totfact>
</mgrwt>
<clustering>
<clus scale="   34.711">  1  6  2 -1</clus>
<clus scale="  477.213">  4  5 -1 -1</clus>
<clus scale="  300.000">  1  4  2 -1</clus>
</clustering>
</event>
<event>
 6    1  0.9462926E-012  0.3000000E+03  0.7818608E-02  0.1093470E+00
          1   -1    0    0  502    0  0.00000000000E+00  0.00000000000E+00  0.24524821206E+03  0.24524821206E+03  0.00000000000E+00 0.  1.
         13   -1    0    0    0    0 -0.00000000000E+00 -0.00000000000E+00 -0.27500000000E+03  0.27500000000E+03  0.00000000000E+00 0.  1.
    9000005    2    1    2  501    0 -0.29580960350E+02 -0.15911740250E+02 -0.52037146180E+02  0.47993873569E+03  0.47592552857E+03 0.  0.
         13    1    3    3    0    0  0.20046190974E+03  0.21056691041E+02 -0.12330426150E+03  0.23628859981E+03  0.00000000000E+00 0.  1.
          3    1    3    3  501    0 -0.23004287009E+03 -0.36968431292E+02  0.71267115317E+02  0.24365013589E+03  0.00000000000E+00 0.  1.
         21    1    1    2  502  501  0.29580960350E+02  0.15911740250E+02  0.22285358237E+02  0.40309476364E+02  0.00000000000E+00 0.  1.
<scales pt_clust_4="550.00000" pt_clust_5="550.00000" pt_clust_6="33.58894"></scales>
<mgrwt>
<rscale>  0 0.30000000E+03</rscale>
<asrwt>  1 0.33588937E+02</asrwt>
<pdfrwt beam="1">  1        1 0.89181168E+00 0.30000000E+03</pdfrwt>
<pdfrwt beam="2">0</pdfrwt>
<totfact> 0.13844919E-04</totfact>
</mgrwt>
<clustering>
<clus scale="   33.589">  1  6  2 -1</clus>
<clus scale="  475.926">  4  5 -1 -1</clus>
<clus scale="  300.000">  1  4  2 -1</clus>
</clustering>
</event>
<event>
 6    1  0.9462926E-012  0.3000000E+03  0.7818608E-02  0.1093470E+00
          1   -1    0    0  502    0  0.00000000000E+00  0.00000000000E+00  0.23106151279E+03  0.23106151279E+03  0.00000000000E+00 0.  1.
         13   -1    0    0    0    0 -0.00000000000E+00 -0.00000000000E+00 -0.27500000000E+03  0.27500000000E+03  0.00000000000E+00 0.  1.
    9000005    2    1    2  501    0 -0.34739414152E+02  0.13357441338E+02 -0.26562707928E+02  0.46498638844E+03  0.46273266132E+03 0.  0.
         13    1    3    3    0    0  0.12419578760E+03  0.12142742624E+03  0.13011213942E+03  0.21702161719E+03  0.00000000000E+00 0.  1.
          3    1    3    3  501    0 -0.15893520175E+03 -0.10806998491E+03 -0.15667484735E+03  0.24796477126E+03  0.00000000000E+00 0.  1.
         21    1    1    2  502  501  0.34739414152E+02 -0.13357441338E+02 -0.17375779280E+02  0.41075124350E+02  0.00000000000E+00 0. -1.
<scales pt_clust_4="550.00000" pt_clust_5="550.00000" pt_clust_6="37.21894"></scales>
<mgrwt>
<rscale>  0 0.30000000E+03</rscale>
<asrwt>  1 0.37218940E+02</asrwt>
<pdfrwt beam="1">  1        1 0.84022368E+00 0.30000000E+03</pdfrwt>
<pdfrwt beam="2">0</pdfrwt>
<totfact> 0.48944686E-04</totfact>
</mgrwt>
<clustering>
<clus scale="   37.219">  1  6  2 -1</clus>
<clus scale="  462.733">  4  5 -1 -1</clus>
<clus scale="  300.000">  1  4  2 -1</clus>
</clustering>
</event>
<event>
 6    1  0.9462926E-012  0.3000000E+03  0.7818608E-02  0.1093470E+00
          1   -1    0    0  502    0  0.00000000000E+00  0.00000000000E+00  0.23816690447E+03  0.23816690447E+03  0.00000000000E+00 0.  1.
         13   -1    0    0    0    0 -0.00000000000E+00 -0.00000000000E+00 -0.27500000000E+03  0.27500000000E+03  0.00000000000E+00 0.  1.
    9000005    2    1    2  501    0 -0.13071072808E+02 -0.28973899169E+02 -0.62431785439E+02  0.47235474081E+03  0.46713053160E+03 0.  0.
         13    1    3    3    0    0 -0.82176212721E+02 -0.95934719842E+02  0.17519442021E+03  0.21598491911E+03  0.00000000000E+00 0.  1.
          1    1    3    3  501    0  0.69105139913E+02  0.66960820673E+02 -0.23762620565E+03  0.25636982170E+03  0.00000000000E+00 0.  1.
         21    1    1    2  502  501  0.13071072808E+02  0.28973899169E+02  0.25598689907E+02  0.40812163656E+02  0.00000000000E+00 0. -1.
<scales pt_clust_4="550.00000" pt_clust_5="550.00000" pt_clust_6="31.78584"></scales>
<mgrwt>
<rscale>  0 0.30000000E+03</rscale>
<asrwt>  1 0.31785842E+02</asrwt>
<pdfrwt beam="1">  1        1 0.86606147E+00 0.30000000E+03</pdfrwt>
<pdfrwt beam="2">0</pdfrwt>
<totfact> 0.28342155E-04</totfact>
</mgrwt>
<clustering>
<clus scale="   31.786">  1  6  2 -1</clus>
<clus scale="  467.131">  4  5 -1 -1</clus>
<clus scale="  300.000">  1  4  2 -1</clus>
</clustering>
</event>
<event>
 6    1  0.9462926E-012  0.3000000E+03  0.7818608E-02  0.1093470E+00
          1   -1    0    0  502    0  0.00000000000E+00  0.00000000000E+00  0.24432941821E+03  0.24432941821E+03  0.00000000000E+00 0.  1.
         13   -1    0    0    0    0 -0.00000000000E+00 -0.00000000000E+00 -0.27500000000E+03  0.27500000000E+03  0.00000000000E+00 0.  1.
    9000005    2    1    2  501    0 -0.30209162909E+02  0.19122646861E+02 -0.70376487848E+02  0.46589882658E+03  0.45916293123E+03 0.  0.
         13    1    3    3    0    0 -0.16663545453E+03 -0.35241074446E+02  0.13225825215E+03  0.21564218812E+03  0.00000000000E+00 0.  1.
          3    1    3    3  501    0  0.13642629162E+03  0.54363721307E+02 -0.20263474000E+03  0.25025663846E+03  0.00000000000E+00 0.  1.
         21    1    1    2  502  501  0.30209162909E+02 -0.19122646861E+02  0.39705906059E+02  0.53430591636E+02  0.00000000000E+00 0. -1.
<scales pt_clust_4="550.00000" pt_clust_5="550.00000" pt_clust_6="35.75289"></scales>
<mgrwt>
<rscale>  0 0.30000000E+03</rscale>
<asrwt>  1 0.35752890E+02</asrwt>
<pdfrwt beam="1">  1        1 0.88847061E+00 0.30000000E+03</pdfrwt>
<pdfrwt beam="2">0</pdfrwt>
<totfact> 0.15141700E-04</totfact>
</mgrwt>
<clustering>
<clus scale="   35.753">  1  6  2 -1</clus>
<clus scale="  459.163">  4  5 -1 -1</clus>
<clus scale="  300.000">  1  4  2 -1</clus>
</clustering>
</event>
<event>
 6    1  0.9462926E-012  0.3000000E+03  0.7818608E-02  0.1093470E+00
          1   -1    0    0  502    0  0.00000000000E+00  0.00000000000E+00  0.24475892701E+03  0.24475892701E+03  0.00000000000E+00 0.  1.
         13   -1    0    0    0    0 -0.00000000000E+00 -0.00000000000E+00 -0.27500000000E+03  0.27500000000E+03  0.00000000000E+00 0.  1.
    9000005    2    1    2  501    0  0.10860343685E+02 -0.43656834774E+02 -0.55991493228E+02  0.46792312442E+03  0.46237769925E+03 0.  0.
         13    1    3    3    0    0  0.12041748375E+03 -0.34765291868E+02  0.17316759496E+03  0.21376625519E+03  0.00000000000E+00 0.  1.
          3    1    3    3  501    0 -0.10955714007E+03 -0.88915429066E+01 -0.22915908819E+03  0.25415686923E+03  0.00000000000E+00 0.  1.
         21    1    1    2  502  501 -0.10860343685E+02  0.43656834774E+02  0.25750420236E+02  0.51835802586E+02  0.00000000000E+00 0.  1.
<scales pt_clust_4="550.00000" pt_clust_5="550.00000" pt_clust_6="44.98740"></scales>
<mgrwt>
<rscale>  0 0.30000000E+03</rscale>
<asrwt>  1 0.44987401E+02</asrwt>
<pdfrwt beam="1">  1        1 0.89003246E+00 0.30000000E+03</pdfrwt>
<pdfrwt beam="2">0</pdfrwt>
<totfact> 0.13831738E-04</totfact>
</mgrwt>
<clustering>
<clus scale="   44.987">  1  6  2 -1</clus>
<clus scale="  462.378">  4  5 -1 -1</clus>
<clus scale="  300.000">  1  4  2 -1</clus>
</clustering>
</event>
<event>
 6    1  0.9462926E-012  0.3000000E+03  0.7818608E-02  0.1093470E+00
          1   -1    0    0  502    0  0.00000000000E+00  0.00000000000E+00  0.22329940093E+03  0.22329940093E+03  0.00000000000E+00 0.  1.
         13   -1    0    0    0    0 -0.00000000000E+00 -0.00000000000E+00 -0.27500000000E+03  0.27500000000E+03  0.00000000000E+00 0.  1.
    9000005    2    1    2  501    0 -0.29596719027E+02  0.10114835659E+02 -0.33530661608E+02  0.46212728038E+03  0.45984675961E+03 0.  0.
         13    1    3    3    0    0  0.13614156366E+03 -0.15320749008E+03  0.56545838068E+02  0.21261348070E+03  0.00000000000E+00 0.  1.
          3    1    3    3  501    0 -0.16573828269E+03  0.16332232574E+03 -0.90076499676E+02  0.24951379967E+03  0.00000000000E+00 0.  1.
         21    1    1    2  502  501  0.29596719027E+02 -0.10114835659E+02 -0.18169937466E+02  0.36172120550E+02  0.00000000000E+00 0. -1.
<scales pt_clust_4="550.00000" pt_clust_5="550.00000" pt_clust_6="31.27741"></scales>
<mgrwt>
<rscale>  0 0.30000000E+03</rscale>
<asrwt>  1 0.31277414E+02</asrwt>
<pdfrwt beam="1">  1        1 0.81199782E+00 0.30000000E+03</pdfrwt>
<pdfrwt beam="2">0</pdfrwt>
<totfact> 0.85929865E-04</totfact>
</mgrwt>
<clustering>
<clus scale="   31.277">  1  6  2 -1</clus>
<clus scale="  459.847">  4  5 -1 -1</clus>
<clus scale="  300.000">  1  4  2 -1</clus>
</clustering>
</event>
<event>
 6    1  0.9462926E-012  0.3000000E+03  0.7818608E-02  0.1093470E+00
          1   -1    0    0  502    0  0.00000000000E+00  0.00000000000E+00  0.23310694766E+03  0.23310694766E+03  0.00000000000E+00 0.  1.
         13   -1    0    0    0    0 -0.00000000000E+00 -0.00000000000E+00 -0.27500000000E+03  0.27500000000E+03  0.00000000000E+00 0.  1.
    9000005    2    1    2  501    0  0.33731480849E+02  0.20567525587E+02 -0.34875680227E+02  0.46798115271E+03  0.46500452719E+03 0.  0.
         13    1    3    3    0    0 -0.17605580839E+03  0.38371510303E+02  0.11118963025E+03  0.21173368732E+03  0.00000000000E+00 0.  1.
          3    1    3    3  501    0  0.20978728923E+03 -0.17803984716E+02 -0.14606531047E+03  0.25624746539E+03  0.00000000000E+00 0.  1.
         21    1    1    2  502  501 -0.33731480849E+02 -0.20567525587E+02 -0.70173721148E+01  0.40125794950E+02  0.00000000000E+00 0.  1.
<scales pt_clust_4="550.00000" pt_clust_5="550.00000" pt_clust_6="39.50744"></scales>
<mgrwt>
<rscale>  0 0.30000000E+03</rscale>
<asrwt>  1 0.39507436E+02</asrwt>
<pdfrwt beam="1">  1        1 0.84766163E+00 0.30000000E+03</pdfrwt>
<pdfrwt beam="2">0</pdfrwt>
<totfact> 0.41828979E-04</totfact>
</mgrwt>
<clustering>
<clus scale="   39.507">  1  6  2 -1</clus>
<clus scale="  465.005">  4  5 -1 -1</clus>
<clus scale="  300.000">  1  4  2 -1</clus>
</clustering>
</event>
<event>
 6    1  0.9462926E-012  0.3000000E+03  0.7818608E-02  0.1093470E+00
          1   -1    0    0  502    0  0.00000000000E+00  0.00000000000E+00  0.25980536631E+03  0.25980536631E+03  0.00000000000E+00 0.  1.
         13   -1    0    0    0    0 -0.00000000000E+00 -0.00000000000E+00 -0.27500000000E+03  0.27500000000E+03  0.00000000000E+00 0.  1.
    9000005    2    1    2  501    0 -0.28622162550E+01 -0.40835043553E+02 -0.71807839123E+02  0.46494301527E+03  0.45753682761E+03 0.  0.
         13    1    3    3    0    0  0.43854775724E+02  0.10929186910E+03  0.15146949320E+03  0.19186182886E+03  0.00000000000E+00 0.  1.
          3    1    3    3  501    0 -0.46716991979E+02 -0.15012691265E+03 -0.22327733232E+03  0.27308118641E+03  0.00000000000E+00 0.  1.
         21    1    1    2  502  501  0.28622162550E+01  0.40835043553E+02  0.56613205431E+02  0.69862351041E+02  0.00000000000E+00 0.  1.
<scales pt_clust_4="550.00000" pt_clust_5="550.00000" pt_clust_6="40.93523"></scales>
<mgrwt>
<rscale>  0 0.30000000E+03</rscale>
<asrwt>  1 0.40935230E+02</asrwt>
<pdfrwt beam="1">  1        1 0.94474679E+00 0.30000000E+03</pdfrwt>
<pdfrwt beam="2">0</pdfrwt>
<totfact> 0.15275720E-05</totfact>
</mgrwt>
<clustering>
<clus scale="   40.935">  1  6  2 -1</clus>
<clus scale="  457.537">  4  5 -1 -1</clus>
<clus scale="  300.000">  1  4  2 -1</clus>
</clustering>
</event>
<event>
 6    1  0.9462926E-012  0.3000000E+03  0.7818608E-02  0.1093470E+00
          1   -1    0    0  502    0  0.00000000000E+00  0.00000000000E+00  0.22683218391E+03  0.22683218391E+03  0.00000000000E+00 0.  1.
         13   -1    0    0    0    0 -0.00000000000E+00 -0.00000000000E+00 -0.27500000000E+03  0.27500000000E+03  0.00000000000E+00 0.  1.
    9000005    2    1    2  501    0  0.28884863640E+01 -0.38992637814E+02 -0.48144690558E+02  0.46273269937E+03  0.45855737992E+03 0.  0.
         13    1    3    3    0    0  0.16092398837E+03  0.92080595360E+02  0.98953041021E+02  0.21015963076E+03  0.00000000000E+00 0.  1.
          3    1    3    3  501    0 -0.15803550201E+03 -0.13107323317E+03 -0.14709773158E+03  0.25257306860E+03  0.00000000000E+00 0.  1.
         21    1    1    2  502  501 -0.28884863640E+01  0.38992637814E+02 -0.23125527411E-01  0.39099484548E+02  0.00000000000E+00 0.  1.
<scales pt_clust_4="550.00000" pt_clust_5="550.00000" pt_clust_6="39.09948"></scales>
<mgrwt>
<rscale>  0 0.30000000E+03</rscale>
<asrwt>  1 0.39099478E+02</asrwt>
<pdfrwt beam="1">  1        1 0.82484431E+00 0.30000000E+03</pdfrwt>
<pdfrwt beam="2">0</pdfrwt>
<totfact> 0.64196470E-04</totfact>
</mgrwt>
<clustering>
<clus scale="   39.099">  1  6  2 -1</clus>
<clus scale="  458.557">  4  5 -1 -1</clus>
<clus scale="  300.000">  1  4  2 -1</clus>
</clustering>
</event>
<event>
 6    1  0.9462926E-012  0.3000000E+03  0.7818608E-02  0.1093470E+00
          1   -1    0    0  502    0  0.00000000000E+00  0.00000000000E+00  0.22710171639E+03  0.22710171639E+03  0.00000000000E+00 0.  1.
         13   -1    0    0    0    0 -0.00000000000E+00 -0.00000000000E+00 -0.27500000000E+03  0.27500000000E+03  0.00000000000E+00 0.  1.
    9000005    2    1    2  501    0 -0.31674892404E+02 -0.90549372170E+01 -0.62985064233E+02  0.46586773170E+03  0.46041322139E+03 0.  0.
         13    1    3    3    0    0 -0.18632191617E+03  0.14122043711E+03  0.20379655131E+02  0.23467935283E+03  0.00000000000E+00 0.  1.
          1    1    3    3  501    0  0.15464702377E+03 -0.15027537432E+03 -0.83364719364E+02  0.23118837887E+03  0.00000000000E+00 0.  1.
         21    1    1    2  502  501  0.31674892404E+02  0.90549372170E+01  0.15086780621E+02  0.36233984687E+02  0.00000000000E+00 0.  1.
<scales pt_clust_4="550.00000" pt_clust_5="550.00000" pt_clust_6="32.94375"></scales>
<mgrwt>
<rscale>  0 0.30000000E+03</rscale>
<asrwt>  1 0.32943750E+02</asrwt>
<pdfrwt beam="1">  1        1 0.82582442E+00 0.30000000E+03</pdfrwt>
<pdfrwt beam="2">0</pdfrwt>
<totfact> 0.64957232E-04</totfact>
</mgrwt>
<clustering>
<clus scale="   32.944">  1  6  2 -1</clus>
<clus scale="  460.413">  4  5 -1 -1</clus>
<clus scale="  300.000">  1  4  2 -1</clus>
</clustering>
</event>
<event>
 6    1  0.9462926E-012  0.3000000E+03  0.7818608E-02  0.1093470E+00
          1   -1    0    0  502    0  0.00000000000E+00  0.00000000000E+00  0.23681718388E+03  0.23681718388E+03  0.00000000000E+00 0.  1.
         13   -1    0    0    0    0 -0.00000000000E+00 -0.00000000000E+00 -0.27500000000E+03  0.27500000000E+03  0.00000000000E+00 0.  1.
    9000005    2    1    2  501    0 -0.15877400972E+02 -0.32345892219E+02 -0.55272612992E+02  0.47193724202E+03  0.46730220421E+03 0.  0.
         13    1    3    3    0    0  0.20367238431E+03  0.73721193229E+02 -0.70082427861E+02  0.22765939725E+03  0.00000000000E+00 0.  1.
          1    1    3    3  501    0 -0.21954978528E+03 -0.10606708545E+03  0.14809814869E+02  0.24427784478E+03  0.00000000000E+00 0.  1.
         21    1    1    2  502  501  0.15877400972E+02  0.32345892219E+02  0.17089796867E+02  0.39879941851E+02  0.00000000000E+00 0.  1.
<scales pt_clust_4="550.00000" pt_clust_5="550.00000" pt_clust_6="36.03260"></scales>
<mgrwt>
<rscale>  0 0.30000000E+03</rscale>
<asrwt>  1 0.36032605E+02</asrwt>
<pdfrwt beam="1">  1        1 0.86115340E+00 0.30000000E+03</pdfrwt>
<pdfrwt beam="2">0</pdfrwt>
<totfact> 0.31268631E-04</totfact>
</mgrwt>
<clustering>
<clus scale="   36.033">  1  6  2 -1</clus>
<clus scale="  467.302">  4  5 -1 -1</clus>
<clus scale="  300.000">  1  4  2 -1</clus>
</clustering>
</event>
<event>
 6    1  0.9462926E-012  0.3000000E+03  0.7818608E-02  0.1093470E+00
          1   -1    0    0  502    0  0.00000000000E+00  0.00000000000E+00  0.24586662232E+03  0.24586662232E+03  0.00000000000E+00 0.  1.
         13   -1    0    0    0    0 -0.00000000000E+00 -0.00000000000E+00 -0.27500000000E+03  0.27500000000E+03  0.00000000000E+00 0.  1.
    9000005    2    1    2  501    0  0.18350601099E+02 -0.24681376854E+02 -0.14605860020E+02  0.48685245330E+03  0.48566044230E+03 0.  0.
         13    1    3    3    0    0  0.22205651416E+03 -0.12512165194E+03  0.25729406112E+02  0.25617674681E+03  0.00000000000E+00 0.  1.
          1    1    3    3  501    0 -0.20370591306E+03  0.10044027509E+03 -0.40335266132E+02  0.23067570650E+03  0.00000000000E+00 0.  1.
         21    1    1    2  502  501 -0.18350601099E+02  0.24681376854E+02 -0.14527517663E+02  0.34014169012E+02  0.00000000000E+00 0.  1.
<scales pt_clust_4="550.00000" pt_clust_5="550.00000" pt_clust_6="30.75575"></scales>
<mgrwt>
<rscale>  0 0.30000000E+03</rscale>
<asrwt>  1 0.30755745E+02</asrwt>
<pdfrwt beam="1">  1        1 0.89406044E+00 0.30000000E+03</pdfrwt>
<pdfrwt beam="2">0</pdfrwt>
<totfact> 0.13241690E-04</totfact>
</mgrwt>
<clustering>
<clus scale="   30.756">  1  6  2 -1</clus>
<clus scale="  485.660">  4  5 -1 -1</clus>
<clus scale="  300.000">  1  4  2 -1</clus>
</clustering>
</event>
<event>
 6    1  0.9462926E-012  0.3000000E+03  0.7818608E-02  0.1093470E+00
          1   -1    0    0  502    0  0.00000000000E+00  0.00000000000E+00  0.22717132606E+03  0.22717132606E+03  0.00000000000E+00 0.  1.
         13   -1    0    0    0    0 -0.00000000000E+00 -0.00000000000E+00 -0.27500000000E+03  0.27500000000E+03  0.00000000000E+00 0.  1.
    9000005    2    1    2  501    0 -0.29104544519E+02  0.15335087758E+02 -0.32041254087E+02  0.46568184739E+03  0.46341202142E+03 0.  0.
         13    1    3    3    0    0  0.18990444883E+03 -0.95427325844E+02  0.24169424519E+02  0.21390239663E+03  0.00000000000E+00 0.  1.
          1    1    3    3  501    0 -0.21900899335E+03  0.11076241360E+03 -0.56210678607E+02  0.25177945076E+03  0.00000000000E+00 0.  1.
         21    1    1    2  502  501  0.29104544519E+02 -0.15335087758E+02 -0.15787419850E+02  0.36489478671E+02  0.00000000000E+00 0.  1.
<scales pt_clust_4="550.00000" pt_clust_5="550.00000" pt_clust_6="32.89742"></scales>
<mgrwt>
<rscale>  0 0.30000000E+03</rscale>
<asrwt>  1 0.32897424E+02</asrwt>
<pdfrwt beam="1">  1        1 0.82607755E+00 0.30000000E+03</pdfrwt>
<pdfrwt beam="2">0</pdfrwt>
<totfact> 0.64639054E-04</totfact>
</mgrwt>
<clustering>
<clus scale="   32.897">  1  6  2 -1</clus>
<clus scale="  463.412">  4  5 -1 -1</clus>
<clus scale="  300.000">  1  4  2 -1</clus>
</clustering>
</event>
<event>
 6    1  0.9462926E-012  0.3000000E+03  0.7818608E-02  0.1093470E+00
          1   -1    0    0  502    0  0.00000000000E+00  0.00000000000E+00  0.23069967251E+03  0.23069967251E+03  0.00000000000E+00 0.  1.
         13   -1    0    0    0    0 -0.00000000000E+00 -0.00000000000E+00 -0.27500000000E+03  0.27500000000E+03  0.00000000000E+00 0.  1.
    9000005    2    1    2  501    0  0.16998466429E+02 -0.27949304091E+02 -0.28125148442E+02  0.46920655156E+03  0.46721906274E+03 0.  0.
         13    1    3    3    0    0  0.13168339787E+03  0.16963861135E+02  0.18221662519E+03  0.22545773075E+03  0.00000000000E+00 0.  1.
          3    1    3    3  501    0 -0.11468493144E+03 -0.44913165226E+02 -0.21034177363E+03  0.24374882081E+03  0.00000000000E+00 0.  1.
         21    1    1    2  502  501 -0.16998466429E+02  0.27949304091E+02 -0.16175179045E+02  0.36493120958E+02  0.00000000000E+00 0. -1.
<scales pt_clust_4="550.00000" pt_clust_5="550.00000" pt_clust_6="32.71257"></scales>
<mgrwt>
<rscale>  0 0.30000000E+03</rscale>
<asrwt>  1 0.32712574E+02</asrwt>
<pdfrwt beam="1">  1        1 0.83890790E+00 0.30000000E+03</pdfrwt>
<pdfrwt beam="2">0</pdfrwt>
<totfact> 0.51306469E-04</totfact>
</mgrwt>
<clustering>
<clus scale="   32.713">  1  6  2 -1</clus>
<clus scale="  467.219">  4  5 -1 -1</clus>
<clus scale="  300.000">  1  4  2 -1</clus>
</clustering>
</event>
<event>
 6    1  0.9462926E-012  0.3000000E+03  0.7818608E-02  0.1093470E+00
          1   -1    0    0  502    0  0.00000000000E+00  0.00000000000E+00  0.23565247756E+03  0.23565247756E+03  0.00000000000E+00 0.  1.
         13   -1    0    0    0    0 -0.00000000000E+00 -0.00000000000E+00 -0.27500000000E+03  0.27500000000E+03  0.00000000000E+00 0.  1.
    9000005    2    1    2  501    0 -0.40165813353E+02 -0.18431041293E+02 -0.56115494668E+02  0.46338556801E+03  0.45784739822E+03 0.  0.
         13    1    3    3    0    0  0.10101093746E+03  0.13459702445E+03 -0.15867341251E+03  0.23129379653E+03  0.00000000000E+00 0.  1.
          1    1    3    3  501    0 -0.14117675081E+03 -0.15302806575E+03  0.10255791784E+03  0.23209177148E+03  0.00000000000E+00 0.  1.
         21    1    1    2  502  501  0.40165813353E+02  0.18431041293E+02  0.16767972227E+02  0.47266909546E+02  0.00000000000E+00 0.  1.
<scales pt_clust_4="550.00000" pt_clust_5="550.00000" pt_clust_6="44.19271"></scales>
<mgrwt>
<rscale>  0 0.30000000E+03</rscale>
<asrwt>  1 0.44192713E+02</asrwt>
<pdfrwt beam="1">  1        1 0.85691810E+00 0.30000000E+03</pdfrwt>
<pdfrwt beam="2">0</pdfrwt>
<totfact> 0.33388444E-04</totfact>
</mgrwt>
<clustering>
<clus scale="   44.193">  1  6  2 -1</clus>
<clus scale="  457.847">  4  5 -1 -1</clus>
<clus scale="  300.000">  1  4  2 -1</clus>
</clustering>
</event>
<event>
 6    1  0.9462926E-012  0.3000000E+03  0.7818608E-02  0.1093470E+00
          1   -1    0    0  502    0  0.00000000000E+00  0.00000000000E+00  0.22811910130E+03  0.22811910130E+03  0.00000000000E+00 0.  1.
         13   -1    0    0    0    0 -0.00000000000E+00 -0.00000000000E+00 -0.27500000000E+03  0.27500000000E+03  0.00000000000E+00 0.  1.
    9000005    2    1    2  501    0  0.46013956381E+01 -0.35538281912E+02 -0.50996399190E+02  0.46704861936E+03  0.46287108118E+03 0.  0.
         13    1    3    3    0    0  0.10182351327E+02  0.13774210489E+03 -0.19686015247E+03  0.24047970261E+03  0.00000000000E+00 0.  1.
          1    1    3    3  501    0 -0.55809556887E+01 -0.17328038680E+03  0.14586375328E+03  0.22656891675E+03  0.00000000000E+00 0.  1.
         21    1    1    2  502  501 -0.46013956381E+01  0.35538281912E+02  0.41155004935E+01  0.36070481940E+02  0.00000000000E+00 0.  1.
<scales pt_clust_4="550.00000" pt_clust_5="550.00000" pt_clust_6="35.83493"></scales>
<mgrwt>
<rscale>  0 0.30000000E+03</rscale>
<asrwt>  1 0.35834932E+02</asrwt>
<pdfrwt beam="1">  1        1 0.82952400E+00 0.30000000E+03</pdfrwt>
<pdfrwt beam="2">0</pdfrwt>
<totfact> 0.59380586E-04</totfact>
</mgrwt>
<clustering>
<clus scale="   35.835">  1  6  2 -1</clus>
<clus scale="  462.871">  4  5 -1 -1</clus>
<clus scale="  300.000">  1  4  2 -1</clus>
</clustering>
</event>
<event>
 6    1  0.9462926E-012  0.3000000E+03  0.7818608E-02  0.1093470E+00
          1   -1    0    0  502    0  0.00000000000E+00  0.00000000000E+00  0.22188008120E+03  0.22188008120E+03  0.00000000000E+00 0.  1.
         13   -1    0    0    0    0 -0.00000000000E+00 -0.00000000000E+00 -0.27500000000E+03  0.27500000000E+03  0.00000000000E+00 0.  1.
    9000005    2    1    2  501    0 -0.32235116097E+02 -0.13412668095E+01 -0.60515596319E+02  0.46378026621E+03  0.45868191181E+03 0.  0.
         13    1    3    3    0    0 -0.74901307067E+02 -0.12927574008E+03  0.15132549104E+03  0.21265424287E+03  0.00000000000E+00 0.  1.
          1    1    3    3  501    0  0.42666190971E+02  0.12793447328E+03 -0.21184108735E+03  0.25112602333E+03  0.00000000000E+00 0.  1.
         21    1    1    2  502  501  0.32235116097E+02  0.13412668095E+01  0.73956775158E+01  0.33099814989E+02  0.00000000000E+00 0. -1.
<scales pt_clust_4="550.00000" pt_clust_5="550.00000" pt_clust_6="32.26301"></scales>
<mgrwt>
<rscale>  0 0.30000000E+03</rscale>
<asrwt>  1 0.32263008E+02</asrwt>
<pdfrwt beam="1">  1        1 0.80683666E+00 0.30000000E+03</pdfrwt>
<pdfrwt beam="2">0</pdfrwt>
<totfact> 0.93693359E-04</totfact>
</mgrwt>
<clustering>
<clus scale="   32.263">  1  6  2 -1</clus>
<clus scale="  458.682">  4  5 -1 -1</clus>
<clus scale="  300.000">  1  4  2 -1</clus>
</clustering>
</event>
<event>
 6    1  0.9462926E-012  0.3000000E+03  0.7818608E-02  0.1093470E+00
          1   -1    0    0  502    0  0.00000000000E+00  0.00000000000E+00  0.24944177871E+03  0.24944177871E+03  0.00000000000E+00 0.  1.
         13   -1    0    0    0    0 -0.00000000000E+00 -0.00000000000E+00 -0.27500000000E+03  0.27500000000E+03  0.00000000000E+00 0.  1.
    9000005    2    1    2  501    0 -0.21123364449E+02 -0.27709881613E+02 -0.13229684695E+02  0.48748197785E+03  0.48605516159E+03 0.  0.
         13    1    3    3    0    0 -0.33482649777E+02  0.11604698836E+03 -0.21073061305E+03  0.24288965111E+03  0.00000000000E+00 0.  1.
          1    1    3    3  501    0  0.12359285328E+02 -0.14375686997E+03  0.19750092835E+03  0.24459232674E+03  0.00000000000E+00 0.  1.
         21    1    1    2  502  501  0.21123364449E+02  0.27709881613E+02 -0.12328536600E+02  0.36959800856E+02  0.00000000000E+00 0. -1.
<scales pt_clust_4="550.00000" pt_clust_5="550.00000" pt_clust_6="34.84301"></scales>
<mgrwt>
<rscale>  0 0.30000000E+03</rscale>
<asrwt>  1 0.34843009E+02</asrwt>
<pdfrwt beam="1">  1        1 0.90706101E+00 0.30000000E+03</pdfrwt>
<pdfrwt beam="2">0</pdfrwt>
<totfact> 0.84060149E-05</totfact>
</mgrwt>
<clustering>
<clus scale="   34.843">  1  6  2 -1</clus>
<clus scale="  486.055">  4  5 -1 -1</clus>
<clus scale="  300.000">  1  4  2 -1</clus>
</clustering>
</event>
<event>
 6    1  0.9462926E-012  0.3000000E+03  0.7818608E-02  0.1093470E+00
          1   -1    0    0  502    0  0.00000000000E+00  0.00000000000E+00  0.22047726335E+03  0.22047726335E+03  0.00000000000E+00 0.  1.
         13   -1    0    0    0    0 -0.00000000000E+00 -0.00000000000E+00 -0.27500000000E+03  0.27500000000E+03  0.00000000000E+00 0.  1.
    9000005    2    1    2  501    0 -0.21679265097E+02 -0.22663726357E+02 -0.62832928231E+02  0.46303201236E+03  0.45767568493E+03 0.  0.
         13    1    3    3    0    0 -0.45186743995E+02 -0.14719069995E+02  0.19667765571E+03  0.20233781928E+03  0.00000000000E+00 0.  1.
          1    1    3    3  501    0  0.23507478898E+02 -0.79446563629E+01 -0.25951058394E+03  0.26069419308E+03  0.00000000000E+00 0.  1.
         21    1    1    2  502  501  0.21679265097E+02  0.22663726357E+02  0.83101915807E+01  0.32445250988E+02  0.00000000000E+00 0.  1.
<scales pt_clust_4="550.00000" pt_clust_5="550.00000" pt_clust_6="31.36296"></scales>
<mgrwt>
<rscale>  0 0.30000000E+03</rscale>
<asrwt>  1 0.31362956E+02</asrwt>
<pdfrwt beam="1">  1        1 0.80173550E+00 0.30000000E+03</pdfrwt>
<pdfrwt beam="2">0</pdfrwt>
<totfact> 0.10285288E-03</totfact>
</mgrwt>
<clustering>
<clus scale="   31.363">  1  6  2 -1</clus>
<clus scale="  457.676">  4  5 -1 -1</clus>
<clus scale="  300.000">  1  4  2 -1</clus>
</clustering>
</event>
<event>
 6    1  0.9462926E-012  0.3000000E+03  0.7818608E-02  0.1093470E+00
          1   -1    0    0  502    0  0.00000000000E+00  0.00000000000E+00  0.24854712538E+03  0.24854712538E+03  0.00000000000E+00 0.  1.
         13   -1    0    0    0    0 -0.00000000000E+00 -0.00000000000E+00 -0.27500000000E+03  0.27500000000E+03  0.00000000000E+00 0.  1.
    9000005    2    1    2  501    0 -0.24761889665E+02 -0.25244387698E+02 -0.55082975681E+02  0.47804863115E+03  0.47354612156E+03 0.  0.
         13    1    3    3    0    0 -0.11091058053E+03  0.19521215235E+03  0.30031610700E+02  0.22651895934E+03  0.00000000000E+00 0.  1.
          1    1    3    3  501    0  0.86148690866E+02 -0.22045654005E+03 -0.85114586381E+02  0.25152967181E+03  0.00000000000E+00 0.  1.
         21    1    1    2  502  501  0.24761889665E+02  0.25244387698E+02  0.28630101061E+02  0.45498494226E+02  0.00000000000E+00 0. -1.
<scales pt_clust_4="550.00000" pt_clust_5="550.00000" pt_clust_6="35.36142"></scales>
<mgrwt>
<rscale>  0 0.30000000E+03</rscale>
<asrwt>  1 0.35361424E+02</asrwt>
<pdfrwt beam="1">  1        1 0.90380773E+00 0.30000000E+03</pdfrwt>
<pdfrwt beam="2">0</pdfrwt>
<totfact> 0.96979414E-05</totfact>
</mgrwt>
<clustering>
<clus scale="   35.361">  1  6  2 -1</clus>
<clus scale="  473.546">  4  5 -1 -1</clus>
<clus scale="  300.000">  1  4  2 -1</clus>
</clustering>
</event>
<event>
 6    1  0.9462926E-012  0.3000000E+03  0.7818608E-02  0.1093470E+00
          1   -1    0    0  502    0  0.00000000000E+00  0.00000000000E+00  0.22917286500E+03  0.22917286500E+03  0.00000000000E+00 0.  1.
         13   -1    0    0    0    0 -0.00000000000E+00 -0.00000000000E+00 -0.27500000000E+03  0.27500000000E+03  0.00000000000E+00 0.  1.
    9000005    2    1    2  501    0  0.39463346921E+02  0.86541978465E+01 -0.41094155735E+02  0.46349545132E+03  0.45989895941E+03 0.  0.
         13    1    3    3    0    0 -0.17647055128E+03  0.87584759236E+02  0.68794521155E+02  0.20867590101E+03  0.00000000000E+00 0.  1.
          3    1    3    3  501    0  0.21593389820E+03 -0.78930561389E+02 -0.10988867689E+03  0.25481955031E+03  0.00000000000E+00 0.  1.
         21    1    1    2  502  501 -0.39463346921E+02 -0.86541978465E+01 -0.47329792698E+01  0.40677413676E+02  0.00000000000E+00 0.  1.
<scales pt_clust_4="550.00000" pt_clust_5="550.00000" pt_clust_6="40.40115"></scales>
<mgrwt>
<rscale>  0 0.30000000E+03</rscale>
<asrwt>  1 0.40401145E+02</asrwt>
<pdfrwt beam="1">  1        1 0.83335587E+00 0.30000000E+03</pdfrwt>
<pdfrwt beam="2">0</pdfrwt>
<totfact> 0.54177711E-04</totfact>
</mgrwt>
<clustering>
<clus scale="   40.401">  1  6  2 -1</clus>
<clus scale="  459.899">  4  5 -1 -1</clus>
<clus scale="  300.000">  1  4  2 -1</clus>
</clustering>
</event>
<event>
 6    1  0.9462926E-012  0.3000000E+03  0.7818608E-02  0.1093470E+00
          1   -1    0    0  502    0  0.00000000000E+00  0.00000000000E+00  0.23449549702E+03  0.23449549702E+03  0.00000000000E+00 0.  1.
         13   -1    0    0    0    0 -0.00000000000E+00 -0.00000000000E+00 -0.27500000000E+03  0.27500000000E+03  0.00000000000E+00 0.  1.
    9000005    2    1    2  501    0  0.30911657197E+02 -0.50010288841E+01 -0.66239471754E+02  0.46896366437E+03  0.46320482515E+03 0.  0.
         13    1    3    3    0    0 -0.64168411624E+02 -0.20541374821E+03 -0.11179841685E+03  0.24251036888E+03  0.00000000000E+00 0.  1.
          3    1    3    3  501    0  0.95080068821E+02  0.20041271933E+03  0.45558945097E+02  0.22645329548E+03  0.00000000000E+00 0.  1.
         21    1    1    2  502  501 -0.30911657197E+02  0.50010288841E+01  0.25734968779E+02  0.40531832658E+02  0.00000000000E+00 0. -1.
<scales pt_clust_4="550.00000" pt_clust_5="550.00000" pt_clust_6="31.31359"></scales>
<mgrwt>
<rscale>  0 0.30000000E+03</rscale>
<asrwt>  1 0.31313589E+02</asrwt>
<pdfrwt beam="1">  1        1 0.85271090E+00 0.30000000E+03</pdfrwt>
<pdfrwt beam="2">0</pdfrwt>
<totfact> 0.39167286E-04</totfact>
</mgrwt>
<clustering>
<clus scale="   31.314">  1  6  2 -1</clus>
<clus scale="  463.205">  4  5 -1 -1</clus>
<clus scale="  300.000">  1  4  2 -1</clus>
</clustering>
</event>
<event>
 6    1  0.9462926E-012  0.3000000E+03  0.7818608E-02  0.1093470E+00
          1   -1    0    0  502    0  0.00000000000E+00  0.00000000000E+00  0.22603912080E+03  0.22603912080E+03  0.00000000000E+00 0.  1.
         13   -1    0    0    0    0 -0.00000000000E+00 -0.00000000000E+00 -0.27500000000E+03  0.27500000000E+03  0.00000000000E+00 0.  1.
    9000005    2    1    2  501    0  0.24265040981E+02  0.18501701108E+02 -0.60070389506E+02  0.46856564891E+03  0.46369624808E+03 0.  0.
         13    1    3    3    0    0  0.20393417818E+03  0.93222898823E+02  0.69536915930E+02  0.23476592720E+03  0.00000000000E+00 0.  1.
          3    1    3    3  501    0 -0.17966913720E+03 -0.74721197715E+02 -0.12960730544E+03  0.23379972171E+03  0.00000000000E+00 0.  1.
         21    1    1    2  502  501 -0.24265040981E+02 -0.18501701108E+02  0.11109510310E+02  0.32473471896E+02  0.00000000000E+00 0.  1.
<scales pt_clust_4="550.00000" pt_clust_5="550.00000" pt_clust_6="30.51402"></scales>
<mgrwt>
<rscale>  0 0.30000000E+03</rscale>
<asrwt>  1 0.30514016E+02</asrwt>
<pdfrwt beam="1">  1        1 0.82196044E+00 0.30000000E+03</pdfrwt>
<pdfrwt beam="2">0</pdfrwt>
<totfact> 0.71353355E-04</totfact>
</mgrwt>
<clustering>
<clus scale="   30.514">  1  6  2 -1</clus>
<clus scale="  463.696">  4  5 -1 -1</clus>
<clus scale="  300.000">  1  4  2 -1</clus>
</clustering>
</event>
<event>
 6    1  0.9462926E-012  0.3000000E+03  0.7818608E-02  0.1093470E+00
          1   -1    0    0  502    0  0.00000000000E+00  0.00000000000E+00  0.22688838492E+03  0.22688838492E+03  0.00000000000E+00 0.  1.
         13   -1    0    0    0    0 -0.00000000000E+00 -0.00000000000E+00 -0.27500000000E+03  0.27500000000E+03  0.00000000000E+00 0.  1.
    9000005    2    1    2  501    0 -0.18628421809E+02 -0.28311907113E+02 -0.67231447042E+02  0.46297630251E+03  0.45681331748E+03 0.  0.
         13    1    3    3    0    0  0.11993656073E+03  0.28618485254E+02 -0.21798919985E+03  0.25044577766E+03  0.00000000000E+00 0.  1.
          3    1    3    3  501    0 -0.13856498254E+03 -0.56930392367E+02  0.15075775281E+03  0.21253052485E+03  0.00000000000E+00 0.  1.
         21    1    1    2  502  501  0.18628421809E+02  0.28311907113E+02  0.19119831963E+02  0.38912082414E+02  0.00000000000E+00 0.  1.
<scales pt_clust_4="550.00000" pt_clust_5="550.00000" pt_clust_6="33.89074"></scales>
<mgrwt>
<rscale>  0 0.30000000E+03</rscale>
<asrwt>  1 0.33890739E+02</asrwt>
<pdfrwt beam="1">  1        1 0.82504867E+00 0.30000000E+03</pdfrwt>
<pdfrwt beam="2">0</pdfrwt>
<totfact> 0.65647332E-04</totfact>
</mgrwt>
<clustering>
<clus scale="   33.891">  1  6  2 -1</clus>
<clus scale="  456.813">  4  5 -1 -1</clus>
<clus scale="  300.000">  1  4  2 -1</clus>
</clustering>
</event>
<event>
 6    1  0.9462926E-012  0.3000000E+03  0.7818608E-02  0.1093470E+00
          1   -1    0    0  502    0  0.00000000000E+00  0.00000000000E+00  0.25987500226E+03  0.25987500226E+03  0.00000000000E+00 0.  1.
         13   -1    0    0    0    0 -0.00000000000E+00 -0.00000000000E+00 -0.27500000000E+03  0.27500000000E+03  0.00000000000E+00 0.  1.
    9000005    2    1    2  501    0 -0.19335325734E+02  0.24323861664E+02 -0.44585064477E+02  0.49205677484E+03  0.48904655875E+03 0.  0.
         13    1    3    3    0    0 -0.23768009776E+03  0.86913214487E+02 -0.72390971108E+02  0.26322269739E+03  0.00000000000E+00 0.  1.
          3    1    3    3  501    0  0.21834477203E+03 -0.62589352824E+02  0.27805906631E+02  0.22883407745E+03  0.00000000000E+00 0.  1.
         21    1    1    2  502  501  0.19335325734E+02 -0.24323861664E+02  0.29460066742E+02  0.42818227426E+02  0.00000000000E+00 0.  1.
<scales pt_clust_4="550.00000" pt_clust_5="550.00000" pt_clust_6="31.07258"></scales>
<mgrwt>
<rscale>  0 0.30000000E+03</rscale>
<asrwt>  1 0.31072577E+02</asrwt>
<pdfrwt beam="1">  1        1 0.94500001E+00 0.30000000E+03</pdfrwt>
<pdfrwt beam="2">0</pdfrwt>
<totfact> 0.15901778E-05</totfact>
</mgrwt>
<clustering>
<clus scale="   31.073">  1  6  2 -1</clus>
<clus scale="  489.047">  4  5 -1 -1</clus>
<clus scale="  300.000">  1  4  2 -1</clus>
</clustering>
</event>
<event>
 6    1  0.9462926E-012  0.3000000E+03  0.7818608E-02  0.1093470E+00
          1   -1    0    0  502    0  0.00000000000E+00  0.00000000000E+00  0.23631864307E+03  0.23631864307E+03  0.00000000000E+00 0.  1.
         13   -1    0    0    0    0 -0.00000000000E+00 -0.00000000000E+00 -0.27500000000E+03  0.27500000000E+03  0.00000000000E+00 0.  1.
    9000005    2    1    2  501    0  0.29112819187E+02 -0.11063146121E+02 -0.35347955730E+02  0.47999674967E+03  0.47767923576E+03 0.  0.
         13    1    3    3    0    0  0.16538690689E+03 -0.16744258744E+03 -0.10968318975E+03  0.25965409909E+03  0.00000000000E+00 0.  1.
          3    1    3    3  501    0 -0.13627408771E+03  0.15637944132E+03  0.74335234018E+02  0.22034265058E+03  0.00000000000E+00 0.  1.
         21    1    1    2  502  501 -0.29112819187E+02  0.11063146121E+02 -0.33334011963E+01  0.31321893407E+02  0.00000000000E+00 0.  1.
<scales pt_clust_4="550.00000" pt_clust_5="550.00000" pt_clust_6="31.14403"></scales>
<mgrwt>
<rscale>  0 0.30000000E+03</rscale>
<asrwt>  1 0.31144027E+02</asrwt>
<pdfrwt beam="1">  1        1 0.85934052E+00 0.30000000E+03</pdfrwt>
<pdfrwt beam="2">0</pdfrwt>
<totfact> 0.33606604E-04</totfact>
</mgrwt>
<clustering>
<clus scale="   31.144">  1  6  2 -1</clus>
<clus scale="  477.679">  4  5 -1 -1</clus>
<clus scale="  300.000">  1  4  2 -1</clus>
</clustering>
</event>
<event>
 6    1  0.9462926E-012  0.3000000E+03  0.7818608E-02  0.1093470E+00
          1   -1    0    0  502    0  0.00000000000E+00  0.00000000000E+00  0.23609548034E+03  0.23609548034E+03  0.00000000000E+00 0.  1.
         13   -1    0    0    0    0 -0.00000000000E+00 -0.00000000000E+00 -0.27500000000E+03  0.27500000000E+03  0.00000000000E+00 0.  1.
    9000005    2    1    2  501    0 -0.40941463562E+02 -0.14070802841E+02 -0.57979875024E+02  0.46378734031E+03  0.45810789143E+03 0.  0.
         13    1    3    3    0    0  0.16928491936E+03 -0.74489566338E+02 -0.13812089308E+03  0.23083210462E+03  0.00000000000E+00 0.  1.
          3    1    3    3  501    0 -0.21022638292E+03  0.60418763497E+02  0.80141018060E+02  0.23295523569E+03  0.00000000000E+00 0.  1.
         21    1    1    2  502  501  0.40941463562E+02  0.14070802841E+02  0.19075355363E+02  0.47308140033E+02  0.00000000000E+00 0.  1.
<scales pt_clust_4="550.00000" pt_clust_5="550.00000" pt_clust_6="43.29193"></scales>
<mgrwt>
<rscale>  0 0.30000000E+03</rscale>
<asrwt>  1 0.43291927E+02</asrwt>
<pdfrwt beam="1">  1        1 0.85852902E+00 0.30000000E+03</pdfrwt>
<pdfrwt beam="2">0</pdfrwt>
<totfact> 0.32245373E-04</totfact>
</mgrwt>
<clustering>
<clus scale="   43.292">  1  6  2 -1</clus>
<clus scale="  458.108">  4  5 -1 -1</clus>
<clus scale="  300.000">  1  4  2 -1</clus>
</clustering>
</event>
<event>
 6    1  0.9462926E-012  0.3000000E+03  0.7818608E-02  0.1093470E+00
          1   -1    0    0  502    0  0.00000000000E+00  0.00000000000E+00  0.23338801737E+03  0.23338801737E+03  0.00000000000E+00 0.  1.
         13   -1    0    0    0    0 -0.00000000000E+00 -0.00000000000E+00 -0.27500000000E+03  0.27500000000E+03  0.00000000000E+00 0.  1.
    9000005    2    1    2  501    0 -0.29886629787E+02 -0.58770844206E+01 -0.72906461713E+02  0.46471771645E+03  0.45795136539E+03 0.  0.
         13    1    3    3    0    0 -0.20496575572E+01 -0.23065325080E+03 -0.16182458035E+02  0.23122931291E+03  0.00000000000E+00 0.  1.
          3    1    3    3  501    0 -0.27836972230E+02  0.22477616638E+03 -0.56724003678E+02  0.23348840354E+03  0.00000000000E+00 0.  1.
         21    1    1    2  502  501  0.29886629787E+02  0.58770844206E+01  0.31294479079E+02  0.43670300917E+02  0.00000000000E+00 0.  1.
<scales pt_clust_4="550.00000" pt_clust_5="550.00000" pt_clust_6="30.45900"></scales>
<mgrwt>
<rscale>  0 0.30000000E+03</rscale>
<asrwt>  1 0.30459001E+02</asrwt>
<pdfrwt beam="1">  1        1 0.84868370E+00 0.30000000E+03</pdfrwt>
<pdfrwt beam="2">0</pdfrwt>
<totfact> 0.42980499E-04</totfact>
</mgrwt>
<clustering>
<clus scale="   30.459">  1  6  2 -1</clus>
<clus scale="  457.951">  4  5 -1 -1</clus>
<clus scale="  300.000">  1  4  2 -1</clus>
</clustering>
</event>
<event>
 6    1  0.9462926E-012  0.3000000E+03  0.7818608E-02  0.1093470E+00
          1   -1    0    0  502    0  0.00000000000E+00  0.00000000000E+00  0.23856001369E+03  0.23856001369E+03  0.00000000000E+00 0.  1.
         13   -1    0    0    0    0 -0.00000000000E+00 -0.00000000000E+00 -0.27500000000E+03  0.27500000000E+03  0.00000000000E+00 0.  1.
    9000005    2    1    2  501    0  0.27136370981E+02  0.14509034363E+02 -0.34626656154E+02  0.48273497721E+03  0.48050718849E+03 0.  0.
         13    1    3    3    0    0  0.20944526842E+03 -0.30119933120E+02 -0.15274357204E+03  0.26096959523E+03  0.00000000000E+00 0.  1.
          1    1    3    3  501    0 -0.18230889744E+03  0.44628967484E+02  0.11811691589E+03  0.22176538198E+03  0.00000000000E+00 0.  1.
         21    1    1    2  502  501 -0.27136370981E+02 -0.14509034363E+02 -0.18133301532E+01  0.30825036487E+02  0.00000000000E+00 0.  1.
<scales pt_clust_4="550.00000" pt_clust_5="550.00000" pt_clust_6="30.77165"></scales>
<mgrwt>
<rscale>  0 0.30000000E+03</rscale>
<asrwt>  1 0.30771654E+02</asrwt>
<pdfrwt beam="1">  1        1 0.86749096E+00 0.30000000E+03</pdfrwt>
<pdfrwt beam="2">0</pdfrwt>
<totfact> 0.27544403E-04</totfact>
</mgrwt>
<clustering>
<clus scale="   30.772">  1  6  2 -1</clus>
<clus scale="  480.507">  4  5 -1 -1</clus>
<clus scale="  300.000">  1  4  2 -1</clus>
</clustering>
</event>
<event>
 6    1  0.9462926E-012  0.3000000E+03  0.7818608E-02  0.1093470E+00
          1   -1    0    0  502    0  0.00000000000E+00  0.00000000000E+00  0.23009025353E+03  0.23009025353E+03  0.00000000000E+00 0.  1.
         13   -1    0    0    0    0 -0.00000000000E+00 -0.00000000000E+00 -0.27500000000E+03  0.27500000000E+03  0.00000000000E+00 0.  1.
    9000005    2    1    2  501    0 -0.71211522332E+00  0.33941950322E+02 -0.62793645128E+02  0.46671842883E+03  0.46122715319E+03 0.  0.
         13    1    3    3    0    0  0.14722001178E+03  0.12933511380E+03 -0.17101331831E+03  0.26009009703E+03  0.00000000000E+00 0.  1.
          3    1    3    3  501    0 -0.14793212701E+03 -0.95393163482E+02  0.10821967318E+03  0.20662833180E+03  0.00000000000E+00 0.  1.
         21    1    1    2  502  501  0.71211522332E+00 -0.33941950322E+02  0.17883898660E+02  0.38371824703E+02  0.00000000000E+00 0. -1.
<scales pt_clust_4="550.00000" pt_clust_5="550.00000" pt_clust_6="33.94942"></scales>
<mgrwt>
<rscale>  0 0.30000000E+03</rscale>
<asrwt>  1 0.33949420E+02</asrwt>
<pdfrwt beam="1">  1        1 0.83669183E+00 0.30000000E+03</pdfrwt>
<pdfrwt beam="2">0</pdfrwt>
<totfact> 0.52890758E-04</totfact>
</mgrwt>
<clustering>
<clus scale="   33.949">  1  6  2 -1</clus>
<clus scale="  461.227">  4  5 -1 -1</clus>
<clus scale="  300.000">  1  4  2 -1</clus>
</clustering>
</event>
<event>
 6    1  0.9462926E-012  0.3000000E+03  0.7818608E-02  0.1093470E+00
          1   -1    0    0  502    0  0.00000000000E+00  0.00000000000E+00  0.24941696336E+03  0.24941696336E+03  0.00000000000E+00 0.  1.
         13   -1    0    0    0    0 -0.00000000000E+00 -0.00000000000E+00 -0.27500000000E+03  0.27500000000E+03  0.00000000000E+00 0.  1.
    9000005    2    1    2  501    0  0.26370038034E+02 -0.28185739743E+02 -0.63345448766E+02  0.47041868005E+03  0.46453339367E+03 0.  0.
         13    1    3    3    0    0 -0.19541297758E+03 -0.10918222487E+03  0.73034676471E+01  0.22396502110E+03  0.00000000000E+00 0.  1.
          3    1    3    3  501    0  0.22178301562E+03  0.80996485132E+02 -0.70648916413E+02  0.24645365895E+03  0.00000000000E+00 0.  1.
         21    1    1    2  502  501 -0.26370038034E+02  0.28185739743E+02  0.37762412128E+02  0.53998283310E+02  0.00000000000E+00 0. -1.
<scales pt_clust_4="550.00000" pt_clust_5="550.00000" pt_clust_6="38.59812"></scales>
<mgrwt>
<rscale>  0 0.30000000E+03</rscale>
<asrwt>  1 0.38598120E+02</asrwt>
<pdfrwt beam="1">  1        1 0.90697078E+00 0.30000000E+03</pdfrwt>
<pdfrwt beam="2">0</pdfrwt>
<totfact> 0.82848616E-05</totfact>
</mgrwt>
<clustering>
<clus scale="   38.598">  1  6  2 -1</clus>
<clus scale="  464.533">  4  5 -1 -1</clus>
<clus scale="  300.000">  1  4  2 -1</clus>
</clustering>
</event>
<event>
 6    1  0.9462926E-012  0.3000000E+03  0.7818608E-02  0.1093470E+00
          1   -1    0    0  502    0  0.00000000000E+00  0.00000000000E+00  0.26855140490E+03  0.26855140490E+03  0.00000000000E+00 0.  1.
         13   -1    0    0    0    0 -0.00000000000E+00 -0.00000000000E+00 -0.27500000000E+03  0.27500000000E+03  0.00000000000E+00 0.  1.
    9000005    2    1    2  501    0  0.73233180102E+01  0.33762422166E+02 -0.26095774269E+02  0.50380793014E+03  0.50194412926E+03 0.  0.
         13    1    3    3    0    0 -0.65823525713E+02 -0.20123484317E+03  0.91966235265E+02  0.23083757725E+03  0.00000000000E+00 0.  1.
          1    1    3    3  501    0  0.73146843723E+02  0.23499726533E+03 -0.11806200953E+03  0.27297035289E+03  0.00000000000E+00 0.  1.
         21    1    1    2  502  501 -0.73233180102E+01 -0.33762422166E+02  0.19647179172E+02  0.39743474768E+02  0.00000000000E+00 0.  1.
<scales pt_clust_4="550.00000" pt_clust_5="550.00000" pt_clust_6="34.54753"></scales>
<mgrwt>
<rscale>  0 0.30000000E+03</rscale>
<asrwt>  1 0.34547534E+02</asrwt>
<pdfrwt beam="1">  1        1 0.97655056E+00 0.30000000E+03</pdfrwt>
<pdfrwt beam="2">0</pdfrwt>
<totfact> 0.37478173E-06</totfact>
</mgrwt>
<clustering>
<clus scale="   34.548">  1  6  2 -1</clus>
<clus scale="  501.944">  4  5 -1 -1</clus>
<clus scale="  300.000">  1  4  2 -1</clus>
</clustering>
</event>
<event>
 6    1  0.9462926E-012  0.3000000E+03  0.7818608E-02  0.1093470E+00
          1   -1    0    0  502    0  0.00000000000E+00  0.00000000000E+00  0.25458846528E+03  0.25458846528E+03  0.00000000000E+00 0.  1.
         13   -1    0    0    0    0 -0.00000000000E+00 -0.00000000000E+00 -0.27500000000E+03  0.27500000000E+03  0.00000000000E+00 0.  1.
    9000005    2    1    2  501    0  0.76964834524E+01 -0.30977338750E+02 -0.36753441364E+02  0.49372916682E+03  0.49132356278E+03 0.  0.
         13    1    3    3    0    0  0.16062959255E+03  0.10638283675E+03 -0.16310991454E+03  0.25243616654E+03  0.00000000000E+00 0.  1.
          3    1    3    3  501    0 -0.15293310910E+03 -0.13736017550E+03  0.12635647318E+03  0.24129300028E+03  0.00000000000E+00 0.  1.
         21    1    1    2  502  501 -0.76964834524E+01  0.30977338750E+02  0.16341906649E+02  0.35859298466E+02  0.00000000000E+00 0. -1.
<scales pt_clust_4="550.00000" pt_clust_5="550.00000" pt_clust_6="31.91914"></scales>
<mgrwt>
<rscale>  0 0.30000000E+03</rscale>
<asrwt>  1 0.31919138E+02</asrwt>
<pdfrwt beam="1">  1        1 0.92577624E+00 0.30000000E+03</pdfrwt>
<pdfrwt beam="2">0</pdfrwt>
<totfact> 0.32162273E-05</totfact>
</mgrwt>
<clustering>
<clus scale="   31.919">  1  6  2 -1</clus>
<clus scale="  491.324">  4  5 -1 -1</clus>
<clus scale="  300.000">  1  4  2 -1</clus>
</clustering>
</event>
<event>
 6    1  0.9462926E-012  0.3000000E+03  0.7818608E-02  0.1093470E+00
          1   -1    0    0  502    0  0.00000000000E+00  0.00000000000E+00  0.22959393499E+03  0.22959393499E+03  0.00000000000E+00 0.  1.
         13   -1    0    0    0    0 -0.00000000000E+00 -0.00000000000E+00 -0.27500000000E+03  0.27500000000E+03  0.00000000000E+00 0.  1.
    9000005    2    1    2  501    0 -0.20681120017E+02  0.29380215114E+02 -0.30579327912E+02  0.46572572306E+03  0.46332974010E+03 0.  0.
         13    1    3    3    0    0  0.17395474149E+03 -0.44935993410E+02 -0.14241766620E+03  0.22926466634E+03  0.00000000000E+00 0.  1.
          1    1    3    3  501    0 -0.19463586150E+03  0.74316208524E+02  0.11183833828E+03  0.23646105671E+03  0.00000000000E+00 0.  1.
         21    1    1    2  502  501  0.20681120017E+02 -0.29380215114E+02 -0.14826737103E+02  0.38868211928E+02  0.00000000000E+00 0.  1.
<scales pt_clust_4="550.00000" pt_clust_5="550.00000" pt_clust_6="35.92920"></scales>
<mgrwt>
<rscale>  0 0.30000000E+03</rscale>
<asrwt>  1 0.35929195E+02</asrwt>
<pdfrwt beam="1">  1        1 0.83488704E+00 0.30000000E+03</pdfrwt>
<pdfrwt beam="2">0</pdfrwt>
<totfact> 0.53937564E-04</totfact>
</mgrwt>
<clustering>
<clus scale="   35.929">  1  6  2 -1</clus>
<clus scale="  463.330">  4  5 -1 -1</clus>
<clus scale="  300.000">  1  4  2 -1</clus>
</clustering>
</event>
<event>
 6    1  0.9462926E-012  0.3000000E+03  0.7818608E-02  0.1093470E+00
          1   -1    0    0  502    0  0.00000000000E+00  0.00000000000E+00  0.26155092005E+03  0.26155092005E+03  0.00000000000E+00 0.  1.
         13   -1    0    0    0    0 -0.00000000000E+00 -0.00000000000E+00 -0.27500000000E+03  0.27500000000E+03  0.00000000000E+00 0.  1.
    9000005    2    1    2  501    0  0.19815566857E+02  0.25613973535E+02 -0.39996622472E+02  0.49467605475E+03  0.49199180583E+03 0.  0.
         13    1    3    3    0    0  0.21414769606E+02 -0.25359202234E+02  0.22367170570E+03  0.22612101500E+03  0.00000000000E+00 0.  1.
          3    1    3    3  501    0 -0.15992027494E+01  0.50973175769E+02 -0.26366832817E+03  0.26855503975E+03  0.00000000000E+00 0.  1.
         21    1    1    2  502  501 -0.19815566857E+02 -0.25613973535E+02  0.26547542526E+02  0.41874865305E+02  0.00000000000E+00 0.  1.
<scales pt_clust_4="550.00000" pt_clust_5="550.00000" pt_clust_6="32.38414"></scales>
<mgrwt>
<rscale>  0 0.30000000E+03</rscale>
<asrwt>  1 0.32384137E+02</asrwt>
<pdfrwt beam="1">  1        1 0.95109425E+00 0.30000000E+03</pdfrwt>
<pdfrwt beam="2">0</pdfrwt>
<totfact> 0.11884609E-05</totfact>
</mgrwt>
<clustering>
<clus scale="   32.384">  1  6  2 -1</clus>
<clus scale="  491.992">  4  5 -1 -1</clus>
<clus scale="  300.000">  1  4  2 -1</clus>
</clustering>
</event>
<event>
 6    1  0.9462926E-012  0.3000000E+03  0.7818608E-02  0.1093470E+00
          1   -1    0    0  502    0  0.00000000000E+00  0.00000000000E+00  0.24267185687E+03  0.24267185687E+03  0.00000000000E+00 0.  1.
         13   -1    0    0    0    0 -0.00000000000E+00 -0.00000000000E+00 -0.27500000000E+03  0.27500000000E+03  0.00000000000E+00 0.  1.
    9000005    2    1    2  501    0  0.28578362856E+02 -0.12939715550E+02 -0.70603190795E+02  0.46818308708E+03  0.46176447829E+03 0.  0.
         13    1    3    3    0    0  0.56133131956E+02  0.16730951574E+03 -0.18280144534E+03  0.25408614874E+03  0.00000000000E+00 0.  1.
          3    1    3    3  501    0 -0.27554769100E+02 -0.18024923129E+03  0.11219825455E+03  0.21409693834E+03  0.00000000000E+00 0.  1.
         21    1    1    2  502  501 -0.28578362856E+02  0.12939715550E+02  0.38275047668E+02  0.49488769797E+02  0.00000000000E+00 0.  1.
<scales pt_clust_4="550.00000" pt_clust_5="550.00000" pt_clust_6="31.37131"></scales>
<mgrwt>
<rscale>  0 0.30000000E+03</rscale>
<asrwt>  1 0.31371310E+02</asrwt>
<pdfrwt beam="1">  1        1 0.88244312E+00 0.30000000E+03</pdfrwt>
<pdfrwt beam="2">0</pdfrwt>
<totfact> 0.18754288E-04</totfact>
</mgrwt>
<clustering>
<clus scale="   31.371">  1  6  2 -1</clus>
<clus scale="  461.764">  4  5 -1 -1</clus>
<clus scale="  300.000">  1  4  2 -1</clus>
</clustering>
</event>
<event>
 6    1  0.9462926E-012  0.3000000E+03  0.7818608E-02  0.1093470E+00
          1   -1    0    0  502    0  0.00000000000E+00  0.00000000000E+00  0.24249939450E+03  0.24249939450E+03  0.00000000000E+00 0.  1.
         13   -1    0    0    0    0 -0.00000000000E+00 -0.00000000000E+00 -0.27500000000E+03  0.27500000000E+03  0.00000000000E+00 0.  1.
    9000005    2    1    2  501    0 -0.35482039360E+02 -0.23297540947E+01 -0.67442488653E+02  0.46764622941E+03  0.46138931905E+03 0.  0.
         13    1    3    3    0    0  0.58311659911E+02 -0.60997317813E+02 -0.24461989216E+03  0.25876594463E+03  0.00000000000E+00 0.  1.
          1    1    3    3  501    0 -0.93793699271E+02  0.58667563718E+02  0.17717740351E+03  0.20888028478E+03  0.00000000000E+00 0.  1.
         21    1    1    2  502  501  0.35482039360E+02  0.23297540947E+01  0.34941883157E+02  0.49853165093E+02  0.00000000000E+00 0.  1.
<scales pt_clust_4="550.00000" pt_clust_5="550.00000" pt_clust_6="35.55844"></scales>
<mgrwt>
<rscale>  0 0.30000000E+03</rscale>
<asrwt>  1 0.35558443E+02</asrwt>
<pdfrwt beam="1">  1        1 0.88181598E+00 0.30000000E+03</pdfrwt>
<pdfrwt beam="2">0</pdfrwt>
<totfact> 0.18665009E-04</totfact>
</mgrwt>
<clustering>
<clus scale="   35.558">  1  6  2 -1</clus>
<clus scale="  461.389">  4  5 -1 -1</clus>
<clus scale="  300.000">  1  4  2 -1</clus>
</clustering>
</event>
<event>
 6    1  0.9462926E-012  0.3000000E+03  0.7818608E-02  0.1093470E+00
          1   -1    0    0  502    0  0.00000000000E+00  0.00000000000E+00  0.23358113628E+03  0.23358113628E+03  0.00000000000E+00 0.  1.
         13   -1    0    0    0    0 -0.00000000000E+00 -0.00000000000E+00 -0.27500000000E+03  0.27500000000E+03  0.00000000000E+00 0.  1.
    9000005    2    1    2  501    0 -0.35228398307E+02  0.91838007825E+01 -0.58378728292E+02  0.46841872537E+03  0.46333858474E+03 0.  0.
         13    1    3    3    0    0 -0.92209822251E+02 -0.19627320801E+03 -0.11819669367E+03  0.24697425351E+03  0.00000000000E+00 0.  1.
          1    1    3    3  501    0  0.56981423944E+02  0.20545700879E+03  0.59817965380E+02  0.22144447186E+03  0.00000000000E+00 0.  1.
         21    1    1    2  502  501  0.35228398307E+02 -0.91838007825E+01  0.16959864572E+02  0.40162410914E+02  0.00000000000E+00 0. -1.
<scales pt_clust_4="550.00000" pt_clust_5="550.00000" pt_clust_6="36.40580"></scales>
<mgrwt>
<rscale>  0 0.30000000E+03</rscale>
<asrwt>  1 0.36405800E+02</asrwt>
<pdfrwt beam="1">  1        1 0.84938595E+00 0.30000000E+03</pdfrwt>
<pdfrwt beam="2">0</pdfrwt>
<totfact> 0.40938691E-04</totfact>
</mgrwt>
<clustering>
<clus scale="   36.406">  1  6  2 -1</clus>
<clus scale="  463.339">  4  5 -1 -1</clus>
<clus scale="  300.000">  1  4  2 -1</clus>
</clustering>
</event>
<event>
 6    1  0.9462926E-012  0.3000000E+03  0.7818608E-02  0.1093470E+00
          1   -1    0    0  502    0  0.00000000000E+00  0.00000000000E+00  0.22403022580E+03  0.22403022580E+03  0.00000000000E+00 0.  1.
         13   -1    0    0    0    0 -0.00000000000E+00 -0.00000000000E+00 -0.27500000000E+03  0.27500000000E+03  0.00000000000E+00 0.  1.
    9000005    2    1    2  501    0  0.22893844773E+02  0.26890261337E+02 -0.57406844278E+02  0.46313245213E+03  0.45820182034E+03 0.  0.
         13    1    3    3    0    0  0.17476514089E+03 -0.15466275006E+02  0.12989817622E+03  0.21830161776E+03  0.00000000000E+00 0.  1.
          3    1    3    3  501    0 -0.15187129611E+03  0.42356536343E+02 -0.18730502050E+03  0.24483083437E+03  0.00000000000E+00 0.  1.
         21    1    1    2  502  501 -0.22893844773E+02 -0.26890261337E+02  0.64370700803E+01  0.35897773671E+02  0.00000000000E+00 0.  1.
<scales pt_clust_4="550.00000" pt_clust_5="550.00000" pt_clust_6="35.31592"></scales>
<mgrwt>
<rscale>  0 0.30000000E+03</rscale>
<asrwt>  1 0.35315921E+02</asrwt>
<pdfrwt beam="1">  1        1 0.81465537E+00 0.30000000E+03</pdfrwt>
<pdfrwt beam="2">0</pdfrwt>
<totfact> 0.79981344E-04</totfact>
</mgrwt>
<clustering>
<clus scale="   35.316">  1  6  2 -1</clus>
<clus scale="  458.202">  4  5 -1 -1</clus>
<clus scale="  300.000">  1  4  2 -1</clus>
</clustering>
</event>
<event>
 6    1  0.9462926E-012  0.3000000E+03  0.7818608E-02  0.1093470E+00
          1   -1    0    0  502    0  0.00000000000E+00  0.00000000000E+00  0.22955432593E+03  0.22955432593E+03  0.00000000000E+00 0.  1.
         13   -1    0    0    0    0 -0.00000000000E+00 -0.00000000000E+00 -0.27500000000E+03  0.27500000000E+03  0.00000000000E+00 0.  1.
    9000005    2    1    2  501    0 -0.27188656931E+02  0.20039286189E+02 -0.32672425267E+02  0.46844405120E+03  0.46608105054E+03 0.  0.
         13    1    3    3    0    0 -0.17920881863E+03  0.50325244581E+02 -0.17684431661E+03  0.25675346781E+03  0.00000000000E+00 0.  1.
          1    1    3    3  501    0  0.15202016170E+03 -0.30285958392E+02  0.14417189134E+03  0.21169058338E+03  0.00000000000E+00 0.  1.
         21    1    1    2  502  501  0.27188656931E+02 -0.20039286189E+02 -0.12773248800E+02  0.36110274737E+02  0.00000000000E+00 0. -1.
<scales pt_clust_4="550.00000" pt_clust_5="550.00000" pt_clust_6="33.77569"></scales>
<mgrwt>
<rscale>  0 0.30000000E+03</rscale>
<asrwt>  1 0.33775689E+02</asrwt>
<pdfrwt beam="1">  1        1 0.83474300E+00 0.30000000E+03</pdfrwt>
<pdfrwt beam="2">0</pdfrwt>
<totfact> 0.54697765E-04</totfact>
</mgrwt>
<clustering>
<clus scale="   33.776">  1  6  2 -1</clus>
<clus scale="  466.081">  4  5 -1 -1</clus>
<clus scale="  300.000">  1  4  2 -1</clus>
</clustering>
</event>
<event>
 6    1  0.9462926E-012  0.3000000E+03  0.7818608E-02  0.1093470E+00
          1   -1    0    0  502    0  0.00000000000E+00  0.00000000000E+00  0.25471317120E+03  0.25471317120E+03  0.00000000000E+00 0.  1.
         13   -1    0    0    0    0 -0.00000000000E+00 -0.00000000000E+00 -0.27500000000E+03  0.27500000000E+03  0.00000000000E+00 0.  1.
    9000005    2    1    2  501    0  0.21246799842E+01  0.35313337088E+02 -0.53015782000E+02  0.48151845760E+03  0.47728168394E+03 0.  0.
         13    1    3    3    0    0 -0.19563552034E+03  0.10841172920E+03  0.73744217563E+02  0.23550917068E+03  0.00000000000E+00 0.  1.
          3    1    3    3  501    0  0.19776020033E+03 -0.73098392111E+02 -0.12675999956E+03  0.24600928692E+03  0.00000000000E+00 0.  1.
         21    1    1    2  502  501 -0.21246799842E+01 -0.35313337088E+02  0.32728953196E+02  0.48194713596E+02  0.00000000000E+00 0. -1.
<scales pt_clust_4="550.00000" pt_clust_5="550.00000" pt_clust_6="35.37720"></scales>
<mgrwt>
<rscale>  0 0.30000000E+03</rscale>
<asrwt>  1 0.35377197E+02</asrwt>
<pdfrwt beam="1">  1        1 0.92622971E+00 0.30000000E+03</pdfrwt>
<pdfrwt beam="2">0</pdfrwt>
<totfact> 0.30873515E-05</totfact>
</mgrwt>
<clustering>
<clus scale="   35.377">  1  6  2 -1</clus>
<clus scale="  477.282">  4  5 -1 -1</clus>
<clus scale="  300.000">  1  4  2 -1</clus>
</clustering>
</event>
<event>
 6    1  0.9462926E-012  0.3000000E+03  0.7818608E-02  0.1093470E+00
          1   -1    0    0  502    0  0.00000000000E+00  0.00000000000E+00  0.22424310993E+03  0.22424310993E+03  0.00000000000E+00 0.  1.
         13   -1    0    0    0    0 -0.00000000000E+00 -0.00000000000E+00 -0.27500000000E+03  0.27500000000E+03  0.00000000000E+00 0.  1.
    9000005    2    1    2  501    0 -0.22496110630E+02 -0.22775451266E+02 -0.66364453410E+02  0.46362861559E+03  0.45773623009E+03 0.  0.
         13    1    3    3    0    0 -0.96604526012E+02  0.17534896974E+03  0.69849481302E+02  0.21203453887E+03  0.00000000000E+00 0.  1.
          1    1    3    3  501    0  0.74108415382E+02 -0.19812442101E+03 -0.13621393471E+03  0.25159407672E+03  0.00000000000E+00 0.  1.
         21    1    1    2  502  501  0.22496110630E+02  0.22775451266E+02  0.15607563337E+02  0.35614494341E+02  0.00000000000E+00 0. -1.
<scales pt_clust_4="550.00000" pt_clust_5="550.00000" pt_clust_6="32.01244"></scales>
<mgrwt>
<rscale>  0 0.30000000E+03</rscale>
<asrwt>  1 0.32012438E+02</asrwt>
<pdfrwt beam="1">  1        1 0.81542949E+00 0.30000000E+03</pdfrwt>
<pdfrwt beam="2">0</pdfrwt>
<totfact> 0.80309245E-04</totfact>
</mgrwt>
<clustering>
<clus scale="   32.012">  1  6  2 -1</clus>
<clus scale="  457.736">  4  5 -1 -1</clus>
<clus scale="  300.000">  1  4  2 -1</clus>
</clustering>
</event>
<event>
 6    1  0.9462926E-012  0.3000000E+03  0.7818608E-02  0.1093470E+00
          1   -1    0    0  502    0  0.00000000000E+00  0.00000000000E+00  0.23885306629E+03  0.23885306629E+03  0.00000000000E+00 0.  1.
         13   -1    0    0    0    0 -0.00000000000E+00 -0.00000000000E+00 -0.27500000000E+03  0.27500000000E+03  0.00000000000E+00 0.  1.
    9000005    2    1    2  501    0 -0.48569775095E+02  0.10257413884E+02 -0.49508284826E+02  0.46244525272E+03  0.45709988395E+03 0.  0.
         13    1    3    3    0    0 -0.65972984686E+02 -0.20168448525E+03 -0.11313456380E+03  0.24047556180E+03  0.00000000000E+00 0.  1.
          3    1    3    3  501    0  0.17403209591E+02  0.21194189913E+03  0.63626278971E+02  0.22196969092E+03  0.00000000000E+00 0.  1.
         21    1    1    2  502  501  0.48569775095E+02 -0.10257413884E+02  0.13361351120E+02  0.51407813571E+02  0.00000000000E+00 0. -1.
<scales pt_clust_4="550.00000" pt_clust_5="550.00000" pt_clust_6="49.64109"></scales>
<mgrwt>
<rscale>  0 0.30000000E+03</rscale>
<asrwt>  1 0.49641088E+02</asrwt>
<pdfrwt beam="1">  1        1 0.86855660E+00 0.30000000E+03</pdfrwt>
<pdfrwt beam="2">0</pdfrwt>
<totfact> 0.24596835E-04</totfact>
</mgrwt>
<clustering>
<clus scale="   49.641">  1  6  2 -1</clus>
<clus scale="  457.100">  4  5 -1 -1</clus>
<clus scale="  300.000">  1  4  2 -1</clus>
</clustering>
</event>
<event>
 6    1  0.9462926E-012  0.3000000E+03  0.7818608E-02  0.1093470E+00
          1   -1    0    0  502    0  0.00000000000E+00  0.00000000000E+00  0.23190925786E+03  0.23190925786E+03  0.00000000000E+00 0.  1.
         13   -1    0    0    0    0 -0.00000000000E+00 -0.00000000000E+00 -0.27500000000E+03  0.27500000000E+03  0.00000000000E+00 0.  1.
    9000005    2    1    2  501    0 -0.31836069218E+02 -0.17880437947E+01 -0.39151818500E+02  0.47478064875E+03  0.47208798665E+03 0.  0.
         13    1    3    3    0    0  0.39732016879E+02  0.22824182912E+03 -0.74131727991E+01  0.23179284039E+03  0.00000000000E+00 0.  1.
          3    1    3    3  501    0 -0.71568086098E+02 -0.23002987292E+03 -0.31738645701E+02  0.24298780836E+03  0.00000000000E+00 0.  1.
         21    1    1    2  502  501  0.31836069218E+02  0.17880437947E+01 -0.39389236366E+01  0.32128609109E+02  0.00000000000E+00 0. -1.
<scales pt_clust_4="550.00000" pt_clust_5="550.00000" pt_clust_6="31.88626"></scales>
<mgrwt>
<rscale>  0 0.30000000E+03</rscale>
<asrwt>  1 0.31886258E+02</asrwt>
<pdfrwt beam="1">  1        1 0.84330639E+00 0.30000000E+03</pdfrwt>
<pdfrwt beam="2">0</pdfrwt>
<totfact> 0.47553604E-04</totfact>
</mgrwt>
<clustering>
<clus scale="   31.886">  1  6  2 -1</clus>
<clus scale="  472.088">  4  5 -1 -1</clus>
<clus scale="  300.000">  1  4  2 -1</clus>
</clustering>
</event>
<event>
 6    1  0.9462926E-012  0.3000000E+03  0.7818608E-02  0.1093470E+00
          1   -1    0    0  502    0  0.00000000000E+00  0.00000000000E+00  0.24800580480E+03  0.24800580480E+03  0.00000000000E+00 0.  1.
         13   -1    0    0    0    0 -0.00000000000E+00 -0.00000000000E+00 -0.27500000000E+03  0.27500000000E+03  0.00000000000E+00 0.  1.
    9000005    2    1    2  501    0  0.31897226336E+02  0.31532889048E+01 -0.14956602386E+02  0.48876723123E+03  0.48748572296E+03 0.  0.
         13    1    3    3    0    0 -0.92150765866E+02 -0.72635415015E+02 -0.21295148436E+03  0.24313782481E+03  0.00000000000E+00 0.  1.
          1    1    3    3  501    0  0.12404799220E+03  0.75788703920E+02  0.19799488197E+03  0.24562940642E+03  0.00000000000E+00 0.  1.
         21    1    1    2  502  501 -0.31897226336E+02 -0.31532889048E+01 -0.12037592818E+02  0.34238573564E+02  0.00000000000E+00 0. -1.
<scales pt_clust_4="550.00000" pt_clust_5="550.00000" pt_clust_6="32.05273"></scales>
<mgrwt>
<rscale>  0 0.30000000E+03</rscale>
<asrwt>  1 0.32052727E+02</asrwt>
<pdfrwt beam="1">  1        1 0.90183929E+00 0.30000000E+03</pdfrwt>
<pdfrwt beam="2">0</pdfrwt>
<totfact> 0.10609896E-04</totfact>
</mgrwt>
<clustering>
<clus scale="   32.053">  1  6  2 -1</clus>
<clus scale="  487.486">  4  5 -1 -1</clus>
<clus scale="  300.000">  1  4  2 -1</clus>
</clustering>
</event>
<event>
 6    1  0.9462926E-012  0.3000000E+03  0.7818608E-02  0.1093470E+00
          1   -1    0    0  502    0  0.00000000000E+00  0.00000000000E+00  0.23129820221E+03  0.23129820221E+03  0.00000000000E+00 0.  1.
         13   -1    0    0    0    0 -0.00000000000E+00 -0.00000000000E+00 -0.27500000000E+03  0.27500000000E+03  0.00000000000E+00 0.  1.
    9000005    2    1    2  501    0  0.13623844768E+02  0.27032400400E+02 -0.61485752352E+02  0.47118938768E+03  0.46617870126E+03 0.  0.
         13    1    3    3    0    0 -0.21241047631E+03  0.80513526593E+02 -0.73083466014E+02  0.23862487593E+03  0.00000000000E+00 0.  1.
          1    1    3    3  501    0  0.22603432108E+03 -0.53481126193E+02  0.11597713662E+02  0.23256451175E+03  0.00000000000E+00 0.  1.
         21    1    1    2  502  501 -0.13623844768E+02 -0.27032400400E+02  0.17783954560E+02  0.35108814526E+02  0.00000000000E+00 0. -1.
<scales pt_clust_4="550.00000" pt_clust_5="550.00000" pt_clust_6="30.27144"></scales>
<mgrwt>
<rscale>  0 0.30000000E+03</rscale>
<asrwt>  1 0.30271436E+02</asrwt>
<pdfrwt beam="1">  1        1 0.84108437E+00 0.30000000E+03</pdfrwt>
<pdfrwt beam="2">0</pdfrwt>
<totfact> 0.50104115E-04</totfact>
</mgrwt>
<clustering>
<clus scale="   30.271">  1  6  2 -1</clus>
<clus scale="  466.179">  4  5 -1 -1</clus>
<clus scale="  300.000">  1  4  2 -1</clus>
</clustering>
</event>
<event>
 6    1  0.9462926E-012  0.3000000E+03  0.7818608E-02  0.1093470E+00
          1   -1    0    0  502    0  0.00000000000E+00  0.00000000000E+00  0.24986795043E+03  0.24986795043E+03  0.00000000000E+00 0.  1.
         13   -1    0    0    0    0 -0.00000000000E+00 -0.00000000000E+00 -0.27500000000E+03  0.27500000000E+03  0.00000000000E+00 0.  1.
    9000005    2    1    2  501    0 -0.36410118897E+02 -0.50004873868E+00 -0.71346610361E+02  0.46603146145E+03  0.45909589134E+03 0.  0.
         13    1    3    3    0    0 -0.77595893409E+02  0.51729234311E+02 -0.25456693345E+03  0.27111134237E+03  0.00000000000E+00 0.  1.
          3    1    3    3  501    0  0.41185774512E+02 -0.52229283050E+02  0.18322032309E+03  0.19492011908E+03  0.00000000000E+00 0.  1.
         21    1    1    2  502  501  0.36410118897E+02  0.50004873868E+00  0.46214560792E+02  0.58836488984E+02  0.00000000000E+00 0.  1.
<scales pt_clust_4="550.00000" pt_clust_5="550.00000" pt_clust_6="36.41355"></scales>
<mgrwt>
<rscale>  0 0.30000000E+03</rscale>
<asrwt>  1 0.36413553E+02</asrwt>
<pdfrwt beam="1">  1        1 0.90861073E+00 0.30000000E+03</pdfrwt>
<pdfrwt beam="2">0</pdfrwt>
<totfact> 0.76968558E-05</totfact>
</mgrwt>
<clustering>
<clus scale="   36.414">  1  6  2 -1</clus>
<clus scale="  459.096">  4  5 -1 -1</clus>
<clus scale="  300.000">  1  4  2 -1</clus>
</clustering>
</event>
<event>
 6    1  0.9462926E-012  0.3000000E+03  0.7818608E-02  0.1093470E+00
          1   -1    0    0  502    0  0.00000000000E+00  0.00000000000E+00  0.23224696953E+03  0.23224696953E+03  0.00000000000E+00 0.  1.
         13   -1    0    0    0    0 -0.00000000000E+00 -0.00000000000E+00 -0.27500000000E+03  0.27500000000E+03  0.00000000000E+00 0.  1.
    9000005    2    1    2  501    0 -0.20944831349E+02 -0.38784326804E+02 -0.53930120343E+02  0.46177349040E+03  0.45649029408E+03 0.  0.
         13    1    3    3    0    0 -0.10090666738E+03 -0.22209327718E+03 -0.87152337133E+02  0.25904267825E+03  0.00000000000E+00 0.  1.
          1    1    3    3  501    0  0.79961836030E+02  0.18330895037E+03  0.33222216790E+02  0.20273081215E+03  0.00000000000E+00 0.  1.
         21    1    1    2  502  501  0.20944831349E+02  0.38784326804E+02  0.11177089874E+02  0.45473479127E+02  0.00000000000E+00 0. -1.
<scales pt_clust_4="550.00000" pt_clust_5="550.00000" pt_clust_6="44.07845"></scales>
<mgrwt>
<rscale>  0 0.30000000E+03</rscale>
<asrwt>  1 0.44078452E+02</asrwt>
<pdfrwt beam="1">  1        1 0.84453443E+00 0.30000000E+03</pdfrwt>
<pdfrwt beam="2">0</pdfrwt>
<totfact> 0.43720072E-04</totfact>
</mgrwt>
<clustering>
<clus scale="   44.078">  1  6  2 -1</clus>
<clus scale="  456.490">  4  5 -1 -1</clus>
<clus scale="  300.000">  1  4  2 -1</clus>
</clustering>
</event>
<event>
 6    1  0.9462926E-012  0.3000000E+03  0.7818608E-02  0.1093470E+00
          1   -1    0    0  502    0  0.00000000000E+00  0.00000000000E+00  0.24823457177E+03  0.24823457177E+03  0.00000000000E+00 0.  1.
         13   -1    0    0    0    0 -0.00000000000E+00 -0.00000000000E+00 -0.27500000000E+03  0.27500000000E+03  0.00000000000E+00 0.  1.
    9000005    2    1    2  501    0 -0.25310575908E+02  0.17554520437E+02 -0.51322831060E+02  0.48384101298E+03  0.48012426143E+03 0.  0.
         13    1    3    3    0    0  0.22492192408E+03  0.43323297323E+02 -0.35468218461E+02  0.23178605339E+03  0.00000000000E+00 0.  1.
          3    1    3    3  501    0 -0.25023249999E+03 -0.25768776885E+02 -0.15854612599E+02  0.25205495959E+03  0.00000000000E+00 0.  1.
         21    1    1    2  502  501  0.25310575908E+02 -0.17554520437E+02  0.24557402832E+02  0.39393558794E+02  0.00000000000E+00 0.  1.
<scales pt_clust_4="550.00000" pt_clust_5="550.00000" pt_clust_6="30.80238"></scales>
<mgrwt>
<rscale>  0 0.30000000E+03</rscale>
<asrwt>  1 0.30802377E+02</asrwt>
<pdfrwt beam="1">  1        1 0.90267117E+00 0.30000000E+03</pdfrwt>
<pdfrwt beam="2">0</pdfrwt>
<totfact> 0.10389732E-04</totfact>
</mgrwt>
<clustering>
<clus scale="   30.802">  1  6  2 -1</clus>
<clus scale="  480.124">  4  5 -1 -1</clus>
<clus scale="  300.000">  1  4  2 -1</clus>
</clustering>
</event>
<event>
 6    1  0.9462926E-012  0.3000000E+03  0.7818608E-02  0.1093470E+00
          1   -1    0    0  502    0  0.00000000000E+00  0.00000000000E+00  0.24615870947E+03  0.24615870947E+03  0.00000000000E+00 0.  1.
         13   -1    0    0    0    0 -0.00000000000E+00 -0.00000000000E+00 -0.27500000000E+03  0.27500000000E+03  0.00000000000E+00 0.  1.
    9000005    2    1    2  501    0 -0.25157303838E+02  0.30687277756E+02 -0.22940081472E+02  0.48104109214E+03  0.47885246792E+03 0.  0.
         13    1    3    3    0    0  0.52391555682E+02  0.24518169602E+03  0.81499451858E+01  0.25084927900E+03  0.00000000000E+00 0.  1.
          3    1    3    3  501    0 -0.77548859520E+02 -0.21449441826E+03 -0.31090026657E+02  0.23019181314E+03  0.00000000000E+00 0.  1.
         21    1    1    2  502  501  0.25157303838E+02 -0.30687277756E+02 -0.59012090548E+01  0.40117617337E+02  0.00000000000E+00 0.  1.
<scales pt_clust_4="550.00000" pt_clust_5="550.00000" pt_clust_6="39.68124"></scales>
<mgrwt>
<rscale>  0 0.30000000E+03</rscale>
<asrwt>  1 0.39681236E+02</asrwt>
<pdfrwt beam="1">  1        1 0.89512258E+00 0.30000000E+03</pdfrwt>
<pdfrwt beam="2">0</pdfrwt>
<totfact> 0.12281023E-04</totfact>
</mgrwt>
<clustering>
<clus scale="   39.681">  1  6  2 -1</clus>
<clus scale="  478.852">  4  5 -1 -1</clus>
<clus scale="  300.000">  1  4  2 -1</clus>
</clustering>
</event>
<event>
 6    1  0.9462926E-012  0.3000000E+03  0.7818608E-02  0.1093470E+00
          1   -1    0    0  502    0  0.00000000000E+00  0.00000000000E+00  0.24469741317E+03  0.24469741317E+03  0.00000000000E+00 0.  1.
         13   -1    0    0    0    0 -0.00000000000E+00 -0.00000000000E+00 -0.27500000000E+03  0.27500000000E+03  0.00000000000E+00 0.  1.
    9000005    2    1    2  501    0  0.14966245134E+02  0.38816121471E+02 -0.57855976818E+02  0.46979882522E+03  0.46436294247E+03 0.  0.
         13    1    3    3    0    0 -0.13210489533E+03 -0.16435290960E+03  0.61257453625E+01  0.21095285497E+03  0.00000000000E+00 0.  1.
          1    1    3    3  501    0  0.14707114046E+03  0.20316903107E+03 -0.63981722180E+02  0.25884597025E+03  0.00000000000E+00 0.  1.
         21    1    1    2  502  501 -0.14966245134E+02 -0.38816121471E+02  0.27553389983E+02  0.49898587946E+02  0.00000000000E+00 0.  1.
<scales pt_clust_4="550.00000" pt_clust_5="550.00000" pt_clust_6="41.60144"></scales>
<mgrwt>
<rscale>  0 0.30000000E+03</rscale>
<asrwt>  1 0.41601440E+02</asrwt>
<pdfrwt beam="1">  1        1 0.88980878E+00 0.30000000E+03</pdfrwt>
<pdfrwt beam="2">0</pdfrwt>
<totfact> 0.14124480E-04</totfact>
</mgrwt>
<clustering>
<clus scale="   41.601">  1  6  2 -1</clus>
<clus scale="  464.363">  4  5 -1 -1</clus>
<clus scale="  300.000">  1  4  2 -1</clus>
</clustering>
</event>
<event>
 6    1  0.9462926E-012  0.3000000E+03  0.7818608E-02  0.1093470E+00
          1   -1    0    0  502    0  0.00000000000E+00  0.00000000000E+00  0.22694144096E+03  0.22694144096E+03  0.00000000000E+00 0.  1.
         13   -1    0    0    0    0 -0.00000000000E+00 -0.00000000000E+00 -0.27500000000E+03  0.27500000000E+03  0.00000000000E+00 0.  1.
    9000005    2    1    2  501    0 -0.30060835826E+02 -0.16005471608E+02 -0.65044867911E+02  0.46388406768E+03  0.45803685925E+03 0.  0.
         13    1    3    3    0    0 -0.16515841396E+03 -0.14397487386E+03 -0.14352554007E+03  0.26192679637E+03  0.00000000000E+00 0.  1.
          1    1    3    3  501    0  0.13509757814E+03  0.12796940225E+03  0.78480672163E+02  0.20195727131E+03  0.00000000000E+00 0.  1.
         21    1    1    2  502  501  0.30060835826E+02  0.16005471608E+02  0.16986308866E+02  0.38057373278E+02  0.00000000000E+00 0.  1.
<scales pt_clust_4="550.00000" pt_clust_5="550.00000" pt_clust_6="34.05626"></scales>
<mgrwt>
<rscale>  0 0.30000000E+03</rscale>
<asrwt>  1 0.34056262E+02</asrwt>
<pdfrwt beam="1">  1        1 0.82524160E+00 0.30000000E+03</pdfrwt>
<pdfrwt beam="2">0</pdfrwt>
<totfact> 0.65327794E-04</totfact>
</mgrwt>
<clustering>
<clus scale="   34.056">  1  6  2 -1</clus>
<clus scale="  458.037">  4  5 -1 -1</clus>
<clus scale="  300.000">  1  4  2 -1</clus>
</clustering>
</event>
<event>
 6    1  0.9462926E-012  0.3000000E+03  0.7818608E-02  0.1093470E+00
          1   -1    0    0  502    0  0.00000000000E+00  0.00000000000E+00  0.23484007035E+03  0.23484007035E+03  0.00000000000E+00 0.  1.
         13   -1    0    0    0    0 -0.00000000000E+00 -0.00000000000E+00 -0.27500000000E+03  0.27500000000E+03  0.00000000000E+00 0.  1.
    9000005    2    1    2  501    0 -0.54772858927E+01  0.35194254227E+02 -0.66808201724E+02  0.46535674093E+03  0.45915675354E+03 0.  0.
         13    1    3    3    0    0 -0.22991640244E+01  0.23938682298E+03 -0.98171704905E+02  0.25874508849E+03  0.00000000000E+00 0.  1.
          3    1    3    3  501    0 -0.31781218683E+01 -0.20419256876E+03  0.31363503180E+02  0.20661165244E+03  0.00000000000E+00 0.  1.
         21    1    1    2  502  501  0.54772858927E+01 -0.35194254227E+02  0.26648272070E+02  0.44483329413E+02  0.00000000000E+00 0.  1.
<scales pt_clust_4="550.00000" pt_clust_5="550.00000" pt_clust_6="35.61792"></scales>
<mgrwt>
<rscale>  0 0.30000000E+03</rscale>
<asrwt>  1 0.35617920E+02</asrwt>
<pdfrwt beam="1">  1        1 0.85396389E+00 0.30000000E+03</pdfrwt>
<pdfrwt beam="2">0</pdfrwt>
<totfact> 0.37174745E-04</totfact>
</mgrwt>
<clustering>
<clus scale="   35.618">  1  6  2 -1</clus>
<clus scale="  459.157">  4  5 -1 -1</clus>
<clus scale="  300.000">  1  4  2 -1</clus>
</clustering>
</event>
<event>
 6    1  0.9462926E-012  0.3000000E+03  0.7818608E-02  0.1093470E+00
          1   -1    0    0  502    0  0.00000000000E+00  0.00000000000E+00  0.23325463112E+03  0.23325463112E+03  0.00000000000E+00 0.  1.
         13   -1    0    0    0    0 -0.00000000000E+00 -0.00000000000E+00 -0.27500000000E+03  0.27500000000E+03  0.00000000000E+00 0.  1.
    9000005    2    1    2  501    0  0.34986634767E+02  0.15388743885E+02 -0.46412896552E+02  0.46974925662E+03  0.46588553216E+03 0.  0.
         13    1    3    3    0    0 -0.16148603468E+03 -0.32875841726E+02  0.12318671964E+03  0.20575113186E+03  0.00000000000E+00 0.  1.
          3    1    3    3  501    0  0.19647266944E+03  0.48264585611E+02 -0.16959961620E+03  0.26399812476E+03  0.00000000000E+00 0.  1.
         21    1    1    2  502  501 -0.34986634767E+02 -0.15388743885E+02  0.46675276705E+01  0.38505374498E+02  0.00000000000E+00 0.  1.
<scales pt_clust_4="550.00000" pt_clust_5="550.00000" pt_clust_6="38.22143"></scales>
<mgrwt>
<rscale>  0 0.30000000E+03</rscale>
<asrwt>  1 0.38221434E+02</asrwt>
<pdfrwt beam="1">  1        1 0.84819866E+00 0.30000000E+03</pdfrwt>
<pdfrwt beam="2">0</pdfrwt>
<totfact> 0.41610618E-04</totfact>
</mgrwt>
<clustering>
<clus scale="   38.221">  1  6  2 -1</clus>
<clus scale="  465.886">  4  5 -1 -1</clus>
<clus scale="  300.000">  1  4  2 -1</clus>
</clustering>
</event>
<event>
 6    1  0.9462926E-012  0.3000000E+03  0.7818608E-02  0.1093470E+00
          1   -1    0    0  502    0  0.00000000000E+00  0.00000000000E+00  0.25082546302E+03  0.25082546302E+03  0.00000000000E+00 0.  1.
         13   -1    0    0    0    0 -0.00000000000E+00 -0.00000000000E+00 -0.27500000000E+03  0.27500000000E+03  0.00000000000E+00 0.  1.
    9000005    2    1    2  501    0  0.12294643849E+02  0.31925321153E+02 -0.70539525541E+02  0.46820518393E+03  0.46159493628E+03 0.  0.
         13    1    3    3    0    0  0.53921609498E+02 -0.15583644054E+03  0.11494743539E+03  0.20101106704E+03  0.00000000000E+00 0.  1.
          1    1    3    3  501    0 -0.41626965649E+02  0.18776176169E+03 -0.18548696093E+03  0.26719411689E+03  0.00000000000E+00 0.  1.
         21    1    1    2  502  501 -0.12294643849E+02 -0.31925321153E+02  0.46364988558E+02  0.57620279087E+02  0.00000000000E+00 0.  1.
<scales pt_clust_4="550.00000" pt_clust_5="550.00000" pt_clust_6="34.21088"></scales>
<mgrwt>
<rscale>  0 0.30000000E+03</rscale>
<asrwt>  1 0.34210881E+02</asrwt>
<pdfrwt beam="1">  1        1 0.91209259E+00 0.30000000E+03</pdfrwt>
<pdfrwt beam="2">0</pdfrwt>
<totfact> 0.64040014E-05</totfact>
</mgrwt>
<clustering>
<clus scale="   34.211">  1  6  2 -1</clus>
<clus scale="  461.595">  4  5 -1 -1</clus>
<clus scale="  300.000">  1  4  2 -1</clus>
</clustering>
</event>
<event>
 6    1  0.9462926E-012  0.3000000E+03  0.7818608E-02  0.1093470E+00
          1   -1    0    0  502    0  0.00000000000E+00  0.00000000000E+00  0.23841722263E+03  0.23841722263E+03  0.00000000000E+00 0.  1.
         13   -1    0    0    0    0 -0.00000000000E+00 -0.00000000000E+00 -0.27500000000E+03  0.27500000000E+03  0.00000000000E+00 0.  1.
    9000005    2    1    2  501    0 -0.21478280175E+02 -0.21354138048E+02 -0.65481975808E+02  0.47155459728E+03  0.46600271816E+03 0.  0.
         13    1    3    3    0    0 -0.11191119457E+03 -0.15773571389E+03 -0.18599586320E+03  0.26832653994E+03  0.00000000000E+00 0.  1.
          1    1    3    3  501    0  0.90432914399E+02  0.13638157585E+03  0.12051388739E+03  0.20322805734E+03  0.00000000000E+00 0.  1.
         21    1    1    2  502  501  0.21478280175E+02  0.21354138048E+02  0.28899198442E+02  0.41862625355E+02  0.00000000000E+00 0.  1.
<scales pt_clust_4="550.00000" pt_clust_5="550.00000" pt_clust_6="30.28722"></scales>
<mgrwt>
<rscale>  0 0.30000000E+03</rscale>
<asrwt>  1 0.30287221E+02</asrwt>
<pdfrwt beam="1">  1        1 0.86697172E+00 0.30000000E+03</pdfrwt>
<pdfrwt beam="2">0</pdfrwt>
<totfact> 0.27977085E-04</totfact>
</mgrwt>
<clustering>
<clus scale="   30.287">  1  6  2 -1</clus>
<clus scale="  466.003">  4  5 -1 -1</clus>
<clus scale="  300.000">  1  4  2 -1</clus>
</clustering>
</event>
<event>
 6    1  0.9462926E-012  0.3000000E+03  0.7818608E-02  0.1093470E+00
          1   -1    0    0  502    0  0.00000000000E+00  0.00000000000E+00  0.22335875415E+03  0.22335875415E+03  0.00000000000E+00 0.  1.
         13   -1    0    0    0    0 -0.00000000000E+00 -0.00000000000E+00 -0.27500000000E+03  0.27500000000E+03  0.00000000000E+00 0.  1.
    9000005    2    1    2  501    0 -0.99734930113E+01 -0.31841190724E+02 -0.63272461803E+02  0.46302297661E+03  0.45746425047E+03 0.  0.
         13    1    3    3    0    0  0.11536840304E+03  0.16060473784E+03 -0.11339501494E+03  0.22795214333E+03  0.00000000000E+00 0.  1.
          1    1    3    3  501    0 -0.12534189605E+03 -0.19244592856E+03  0.50122553139E+02  0.23507083328E+03  0.00000000000E+00 0.  1.
         21    1    1    2  502  501  0.99734930113E+01  0.31841190724E+02  0.11631215948E+02  0.35335777535E+02  0.00000000000E+00 0. -1.
<scales pt_clust_4="550.00000" pt_clust_5="550.00000" pt_clust_6="33.36663"></scales>
<mgrwt>
<rscale>  0 0.30000000E+03</rscale>
<asrwt>  1 0.33366630E+02</asrwt>
<pdfrwt beam="1">  1        1 0.81221365E+00 0.30000000E+03</pdfrwt>
<pdfrwt beam="2">0</pdfrwt>
<totfact> 0.84548696E-04</totfact>
</mgrwt>
<clustering>
<clus scale="   33.367">  1  6  2 -1</clus>
<clus scale="  457.464">  4  5 -1 -1</clus>
<clus scale="  300.000">  1  4  2 -1</clus>
</clustering>
</event>
<event>
 6    1  0.9462926E-012  0.3000000E+03  0.7818608E-02  0.1093470E+00
          1   -1    0    0  502    0  0.00000000000E+00  0.00000000000E+00  0.24985315423E+03  0.24985315423E+03  0.00000000000E+00 0.  1.
         13   -1    0    0    0    0 -0.00000000000E+00 -0.00000000000E+00 -0.27500000000E+03  0.27500000000E+03  0.00000000000E+00 0.  1.
    9000005    2    1    2  501    0  0.88615644592E+00  0.30439855016E+02 -0.75472145056E+02  0.46603134029E+03  0.45887012913E+03 0.  0.
         13    1    3    3    0    0 -0.93012716408E+02 -0.12505306050E+03 -0.19421609857E+03  0.24901712049E+03  0.00000000000E+00 0.  1.
          1    1    3    3  501    0  0.93898872854E+02  0.15549291552E+03  0.11874395351E+03  0.21701421980E+03  0.00000000000E+00 0.  1.
         21    1    1    2  502  501 -0.88615644592E+00 -0.30439855016E+02  0.50325299286E+02  0.58821813937E+02  0.00000000000E+00 0.  1.
<scales pt_clust_4="550.00000" pt_clust_5="550.00000" pt_clust_6="30.45275"></scales>
<mgrwt>
<rscale>  0 0.30000000E+03</rscale>
<asrwt>  1 0.30452751E+02</asrwt>
<pdfrwt beam="1">  1        1 0.90855692E+00 0.30000000E+03</pdfrwt>
<pdfrwt beam="2">0</pdfrwt>
<totfact> 0.79839524E-05</totfact>
</mgrwt>
<clustering>
<clus scale="   30.453">  1  6  2 -1</clus>
<clus scale="  458.870">  4  5 -1 -1</clus>
<clus scale="  300.000">  1  4  2 -1</clus>
</clustering>
</event>
<event>
 6    1  0.9462926E-012  0.3000000E+03  0.7818608E-02  0.1093470E+00
          1   -1    0    0  502    0  0.00000000000E+00  0.00000000000E+00  0.22919260438E+03  0.22919260438E+03  0.00000000000E+00 0.  1.
         13   -1    0    0    0    0 -0.00000000000E+00 -0.00000000000E+00 -0.27500000000E+03  0.27500000000E+03  0.00000000000E+00 0.  1.
    9000005    2    1    2  501    0  0.32597788316E+02  0.49964624873E+01 -0.43461780230E+02  0.47113080842E+03  0.46796125038E+03 0.  0.
         13    1    3    3    0    0  0.18976474704E+03 -0.14941287106E+03 -0.63964422857E+02  0.24985258184E+03  0.00000000000E+00 0.  1.
          1    1    3    3  501    0 -0.15716695873E+03  0.15440933355E+03  0.20502642627E+02  0.22127822658E+03  0.00000000000E+00 0.  1.
         21    1    1    2  502  501 -0.32597788316E+02 -0.49964624873E+01 -0.23456153930E+01  0.33061795959E+02  0.00000000000E+00 0. -1.
<scales pt_clust_4="550.00000" pt_clust_5="550.00000" pt_clust_6="32.97848"></scales>
<mgrwt>
<rscale>  0 0.30000000E+03</rscale>
<asrwt>  1 0.32978485E+02</asrwt>
<pdfrwt beam="1">  1        1 0.83342765E+00 0.30000000E+03</pdfrwt>
<pdfrwt beam="2">0</pdfrwt>
<totfact> 0.56188426E-04</totfact>
</mgrwt>
<clustering>
<clus scale="   32.978">  1  6  2 -1</clus>
<clus scale="  467.961">  4  5 -1 -1</clus>
<clus scale="  300.000">  1  4  2 -1</clus>
</clustering>
</event>
<event>
 6    1  0.9462926E-012  0.3000000E+03  0.7818608E-02  0.1093470E+00
          1   -1    0    0  502    0  0.00000000000E+00  0.00000000000E+00  0.23872379011E+03  0.23872379011E+03  0.00000000000E+00 0.  1.
         13   -1    0    0    0    0 -0.00000000000E+00 -0.00000000000E+00 -0.27500000000E+03  0.27500000000E+03  0.00000000000E+00 0.  1.
    9000005    2    1    2  501    0 -0.31337397548E+01 -0.48309971637E+02 -0.42137583326E+02  0.46495874747E+03  0.46050774938E+03 0.  0.
         13    1    3    3    0    0 -0.88493516315E+02 -0.56542924691E+02  0.19021912303E+03  0.21728211967E+03  0.00000000000E+00 0.  1.
          3    1    3    3  501    0  0.85359776560E+02  0.82329530536E+01 -0.23235670636E+03  0.24767662780E+03  0.00000000000E+00 0.  1.
         21    1    1    2  502  501  0.31337397548E+01  0.48309971637E+02  0.58613734322E+01  0.48765042632E+02  0.00000000000E+00 0.  1.
<scales pt_clust_4="550.00000" pt_clust_5="550.00000" pt_clust_6="48.41150"></scales>
<mgrwt>
<rscale>  0 0.30000000E+03</rscale>
<asrwt>  1 0.48411504E+02</asrwt>
<pdfrwt beam="1">  1        1 0.86808651E+00 0.30000000E+03</pdfrwt>
<pdfrwt beam="2">0</pdfrwt>
<totfact> 0.24984035E-04</totfact>
</mgrwt>
<clustering>
<clus scale="   48.412">  1  6  2 -1</clus>
<clus scale="  460.508">  4  5 -1 -1</clus>
<clus scale="  300.000">  1  4  2 -1</clus>
</clustering>
</event>
<event>
 6    1  0.9462926E-012  0.3000000E+03  0.7818608E-02  0.1093470E+00
          1   -1    0    0  502    0  0.00000000000E+00  0.00000000000E+00  0.22831371345E+03  0.22831371345E+03  0.00000000000E+00 0.  1.
         13   -1    0    0    0    0 -0.00000000000E+00 -0.00000000000E+00 -0.27500000000E+03  0.27500000000E+03  0.00000000000E+00 0.  1.
    9000005    2    1    2  501    0 -0.33628231021E+02 -0.21477862331E+01 -0.64470403953E+02  0.46521193214E+03  0.45948910532E+03 0.  0.
         13    1    3    3    0    0  0.14504138860E+03 -0.12953384333E+03 -0.13269075738E+03  0.23542059823E+03  0.00000000000E+00 0.  1.
          3    1    3    3  501    0 -0.17866961962E+03  0.12738605710E+03  0.68220353426E+02  0.22979133391E+03  0.00000000000E+00 0.  1.
         21    1    1    2  502  501  0.33628231021E+02  0.21477862331E+01  0.17784117402E+02  0.38101781311E+02  0.00000000000E+00 0.  1.
<scales pt_clust_4="550.00000" pt_clust_5="550.00000" pt_clust_6="33.69675"></scales>
<mgrwt>
<rscale>  0 0.30000000E+03</rscale>
<asrwt>  1 0.33696749E+02</asrwt>
<pdfrwt beam="1">  1        1 0.83023169E+00 0.30000000E+03</pdfrwt>
<pdfrwt beam="2">0</pdfrwt>
<totfact> 0.59263137E-04</totfact>
</mgrwt>
<clustering>
<clus scale="   33.697">  1  6  2 -1</clus>
<clus scale="  459.489">  4  5 -1 -1</clus>
<clus scale="  300.000">  1  4  2 -1</clus>
</clustering>
</event>
<event>
 6    1  0.9462926E-012  0.3000000E+03  0.7818608E-02  0.1093470E+00
          1   -1    0    0  502    0  0.00000000000E+00  0.00000000000E+00  0.23666347602E+03  0.23666347602E+03  0.00000000000E+00 0.  1.
         13   -1    0    0    0    0 -0.00000000000E+00 -0.00000000000E+00 -0.27500000000E+03  0.27500000000E+03  0.00000000000E+00 0.  1.
    9000005    2    1    2  501    0  0.29014971263E+02 -0.78811066489E+01 -0.32966472284E+02  0.48112140905E+03  0.47904805767E+03 0.  0.
         13    1    3    3    0    0  0.99705913722E+02  0.21171766426E+03  0.43606957452E+02  0.23804874570E+03  0.00000000000E+00 0.  1.
          3    1    3    3  501    0 -0.70690942459E+02 -0.21959877091E+03 -0.76573429736E+02  0.24307266336E+03  0.00000000000E+00 0.  1.
         21    1    1    2  502  501 -0.29014971263E+02  0.78811066489E+01 -0.53700516978E+01  0.30542066967E+02  0.00000000000E+00 0. -1.
<scales pt_clust_4="550.00000" pt_clust_5="550.00000" pt_clust_6="30.06628"></scales>
<mgrwt>
<rscale>  0 0.30000000E+03</rscale>
<asrwt>  1 0.30066282E+02</asrwt>
<pdfrwt beam="1">  1        1 0.86059446E+00 0.30000000E+03</pdfrwt>
<pdfrwt beam="2">0</pdfrwt>
<totfact> 0.32808647E-04</totfact>
</mgrwt>
<clustering>
<clus scale="   30.066">  1  6  2 -1</clus>
<clus scale="  479.048">  4  5 -1 -1</clus>
<clus scale="  300.000">  1  4  2 -1</clus>
</clustering>
</event>
<event>
 6    1  0.9462926E-012  0.3000000E+03  0.7818608E-02  0.1093470E+00
          1   -1    0    0  502    0  0.00000000000E+00  0.00000000000E+00  0.23060241790E+03  0.23060241790E+03  0.00000000000E+00 0.  1.
         13   -1    0    0    0    0 -0.00000000000E+00 -0.00000000000E+00 -0.27500000000E+03  0.27500000000E+03  0.00000000000E+00 0.  1.
    9000005    2    1    2  501    0  0.21742226172E+02 -0.23378156045E+02 -0.62613670759E+02  0.46884526261E+03  0.46354735025E+03 0.  0.
         13    1    3    3    0    0  0.76184035743E+02  0.12026579682E+03 -0.21147859639E+03  0.25493345390E+03  0.00000000000E+00 0.  1.
          3    1    3    3  501    0 -0.54441809570E+02 -0.14364395286E+03  0.14886492563E+03  0.21391180871E+03  0.00000000000E+00 0.  1.
         21    1    1    2  502  501 -0.21742226172E+02  0.23378156045E+02  0.18216088655E+02  0.36757155288E+02  0.00000000000E+00 0.  1.
<scales pt_clust_4="550.00000" pt_clust_5="550.00000" pt_clust_6="31.92589"></scales>
<mgrwt>
<rscale>  0 0.30000000E+03</rscale>
<asrwt>  1 0.31925892E+02</asrwt>
<pdfrwt beam="1">  1        1 0.83855425E+00 0.30000000E+03</pdfrwt>
<pdfrwt beam="2">0</pdfrwt>
<totfact> 0.51856936E-04</totfact>
</mgrwt>
<clustering>
<clus scale="   31.926">  1  6  2 -1</clus>
<clus scale="  463.547">  4  5 -1 -1</clus>
<clus scale="  300.000">  1  4  2 -1</clus>
</clustering>
</event>
<event>
 6    1  0.9462926E-012  0.3000000E+03  0.7818608E-02  0.1093470E+00
          1   -1    0    0  502    0  0.00000000000E+00  0.00000000000E+00  0.22587996540E+03  0.22587996540E+03  0.00000000000E+00 0.  1.
         13   -1    0    0    0    0 -0.00000000000E+00 -0.00000000000E+00 -0.27500000000E+03  0.27500000000E+03  0.00000000000E+00 0.  1.
    9000005    2    1    2  501    0 -0.14540819273E+02  0.28711688523E+02 -0.53084252333E+02  0.46845294726E+03  0.46432147212E+03 0.  0.
         13    1    3    3    0    0  0.11839273315E+03  0.26235081367E+01  0.17016551187E+03  0.20731624029E+03  0.00000000000E+00 0.  1.
          1    1    3    3  501    0 -0.13293355242E+03  0.26088180386E+02 -0.22324976420E+03  0.26113670698E+03  0.00000000000E+00 0.  1.
         21    1    1    2  502  501  0.14540819273E+02 -0.28711688523E+02  0.39642177342E+01  0.32427018136E+02  0.00000000000E+00 0.  1.
<scales pt_clust_4="550.00000" pt_clust_5="550.00000" pt_clust_6="32.18379"></scales>
<mgrwt>
<rscale>  0 0.30000000E+03</rscale>
<asrwt>  1 0.32183792E+02</asrwt>
<pdfrwt beam="1">  1        1 0.82138169E+00 0.30000000E+03</pdfrwt>
<pdfrwt beam="2">0</pdfrwt>
<totfact> 0.71467191E-04</totfact>
</mgrwt>
<clustering>
<clus scale="   32.184">  1  6  2 -1</clus>
<clus scale="  464.321">  4  5 -1 -1</clus>
<clus scale="  300.000">  1  4  2 -1</clus>
</clustering>
</event>
<event>
 6    1  0.9462926E-012  0.3000000E+03  0.7818608E-02  0.1093470E+00
          1   -1    0    0  502    0  0.00000000000E+00  0.00000000000E+00  0.23370175893E+03  0.23370175893E+03  0.00000000000E+00 0.  1.
         13   -1    0    0    0    0 -0.00000000000E+00 -0.00000000000E+00 -0.27500000000E+03  0.27500000000E+03  0.00000000000E+00 0.  1.
    9000005    2    1    2  501    0  0.23363545188E+02  0.30864747160E+02 -0.29787024217E+02  0.46831616776E+03  0.46576204044E+03 0.  0.
         13    1    3    3    0    0  0.10481990356E+03  0.22044062497E+03  0.46214074560E+02  0.24842910861E+03  0.00000000000E+00 0.  1.
          3    1    3    3  501    0 -0.81456358369E+02 -0.18957587781E+03 -0.76001098777E+02  0.21988705915E+03  0.00000000000E+00 0.  1.
         21    1    1    2  502  501 -0.23363545188E+02 -0.30864747160E+02 -0.11511216851E+02  0.40385591173E+02  0.00000000000E+00 0.  1.
<scales pt_clust_4="550.00000" pt_clust_5="550.00000" pt_clust_6="38.71033"></scales>
<mgrwt>
<rscale>  0 0.30000000E+03</rscale>
<asrwt>  1 0.38710326E+02</asrwt>
<pdfrwt beam="1">  1        1 0.84982458E+00 0.30000000E+03</pdfrwt>
<pdfrwt beam="2">0</pdfrwt>
<totfact> 0.40097259E-04</totfact>
</mgrwt>
<clustering>
<clus scale="   38.710">  1  6  2 -1</clus>
<clus scale="  465.762">  4  5 -1 -1</clus>
<clus scale="  300.000">  1  4  2 -1</clus>
</clustering>
</event>
<event>
 6    1  0.9462926E-012  0.3000000E+03  0.7818608E-02  0.1093470E+00
          1   -1    0    0  502    0  0.00000000000E+00  0.00000000000E+00  0.22630128624E+03  0.22630128624E+03  0.00000000000E+00 0.  1.
         13   -1    0    0    0    0 -0.00000000000E+00 -0.00000000000E+00 -0.27500000000E+03  0.27500000000E+03  0.00000000000E+00 0.  1.
    9000005    2    1    2  501    0  0.25921349078E+02  0.16932220644E+02 -0.49606461569E+02  0.47032645065E+03  0.46667713970E+03 0.  0.
         13    1    3    3    0    0  0.23685328441E+03 -0.98805023573E+01 -0.90598688365E+02  0.25378184528E+03  0.00000000000E+00 0.  1.
          3    1    3    3  501    0 -0.21093193533E+03  0.26812723001E+02  0.40992226796E+02  0.21654460537E+03  0.00000000000E+00 0.  1.
         21    1    1    2  502  501 -0.25921349078E+02 -0.16932220644E+02  0.90774780990E+00  0.30974835593E+02  0.00000000000E+00 0.  1.
<scales pt_clust_4="550.00000" pt_clust_5="550.00000" pt_clust_6="30.96153"></scales>
<mgrwt>
<rscale>  0 0.30000000E+03</rscale>
<asrwt>  1 0.30961532E+02</asrwt>
<pdfrwt beam="1">  1        1 0.82291377E+00 0.30000000E+03</pdfrwt>
<pdfrwt beam="2">0</pdfrwt>
<totfact> 0.69780157E-04</totfact>
</mgrwt>
<clustering>
<clus scale="   30.962">  1  6  2 -1</clus>
<clus scale="  466.677">  4  5 -1 -1</clus>
<clus scale="  300.000">  1  4  2 -1</clus>
</clustering>
</event>
<event>
 6    1  0.9462926E-012  0.3000000E+03  0.7818608E-02  0.1093470E+00
          1   -1    0    0  502    0  0.00000000000E+00  0.00000000000E+00  0.23711773600E+03  0.23711773600E+03  0.00000000000E+00 0.  1.
         13   -1    0    0    0    0 -0.00000000000E+00 -0.00000000000E+00 -0.27500000000E+03  0.27500000000E+03  0.00000000000E+00 0.  1.
    9000005    2    1    2  501    0 -0.30093392617E+02  0.78994739118E-01 -0.62691338275E+02  0.47311634262E+03  0.46797783199E+03 0.  0.
         13    1    3    3    0    0 -0.16786685563E+03 -0.16561605788E+03  0.31558159003E+02  0.23791569357E+03  0.00000000000E+00 0.  1.
          3    1    3    3  501    0  0.13777346302E+03  0.16569505262E+03 -0.94249497278E+02  0.23520064905E+03  0.00000000000E+00 0.  1.
         21    1    1    2  502  501  0.30093392617E+02 -0.78994739118E-01  0.24809074275E+02  0.39001393382E+02  0.00000000000E+00 0. -1.
<scales pt_clust_4="550.00000" pt_clust_5="550.00000" pt_clust_6="30.09350"></scales>
<mgrwt>
<rscale>  0 0.30000000E+03</rscale>
<asrwt>  1 0.30093496E+02</asrwt>
<pdfrwt beam="1">  1        1 0.86224631E+00 0.30000000E+03</pdfrwt>
<pdfrwt beam="2">0</pdfrwt>
<totfact> 0.31486116E-04</totfact>
</mgrwt>
<clustering>
<clus scale="   30.093">  1  6  2 -1</clus>
<clus scale="  467.978">  4  5 -1 -1</clus>
<clus scale="  300.000">  1  4  2 -1</clus>
</clustering>
</event>
<event>
 6    1  0.9462926E-012  0.3000000E+03  0.7818608E-02  0.1093470E+00
          1   -1    0    0  502    0  0.00000000000E+00  0.00000000000E+00  0.24958756520E+03  0.24958756520E+03  0.00000000000E+00 0.  1.
         13   -1    0    0    0    0 -0.00000000000E+00 -0.00000000000E+00 -0.27500000000E+03  0.27500000000E+03  0.00000000000E+00 0.  1.
    9000005    2    1    2  501    0 -0.53570442070E+01  0.35538822734E+02 -0.64822007501E+02  0.47125070867E+03  0.46538546596E+03 0.  0.
         13    1    3    3    0    0 -0.20656940606E+03  0.12064532959E+03 -0.80028036877E+02  0.25225126711E+03  0.00000000000E+00 0.  1.
          1    1    3    3  501    0  0.20121236186E+03 -0.85106506860E+02  0.15206029376E+02  0.21899944156E+03  0.00000000000E+00 0.  1.
         21    1    1    2  502  501  0.53570442070E+01 -0.35538822734E+02  0.39409572706E+02  0.53336856533E+02  0.00000000000E+00 0.  1.
<scales pt_clust_4="550.00000" pt_clust_5="550.00000" pt_clust_6="35.94031"></scales>
<mgrwt>
<rscale>  0 0.30000000E+03</rscale>
<asrwt>  1 0.35940309E+02</asrwt>
<pdfrwt beam="1">  1        1 0.90759115E+00 0.30000000E+03</pdfrwt>
<pdfrwt beam="2">0</pdfrwt>
<totfact> 0.81375704E-05</totfact>
</mgrwt>
<clustering>
<clus scale="   35.940">  1  6  2 -1</clus>
<clus scale="  465.385">  4  5 -1 -1</clus>
<clus scale="  300.000">  1  4  2 -1</clus>
</clustering>
</event>
<event>
 6    1  0.9462926E-012  0.3000000E+03  0.7818608E-02  0.1093470E+00
          1   -1    0    0  502    0  0.00000000000E+00  0.00000000000E+00  0.25080880653E+03  0.25080880653E+03  0.00000000000E+00 0.  1.
         13   -1    0    0    0    0 -0.00000000000E+00 -0.00000000000E+00 -0.27500000000E+03  0.27500000000E+03  0.00000000000E+00 0.  1.
    9000005    2    1    2  501    0 -0.22594872788E+01  0.30778699400E+02 -0.32840844107E+02  0.49375806433E+03  0.49169713384E+03 0.  0.
         13    1    3    3    0    0 -0.16144078897E+03  0.20219187317E+03 -0.16470641020E+02  0.25926041722E+03  0.00000000000E+00 0.  1.
          1    1    3    3  501    0  0.15918130169E+03 -0.17141317377E+03 -0.16370203087E+02  0.23449764711E+03  0.00000000000E+00 0.  1.
         21    1    1    2  502  501  0.22594872788E+01 -0.30778699400E+02  0.86496506331E+01  0.32050742200E+02  0.00000000000E+00 0.  1.
<scales pt_clust_4="550.00000" pt_clust_5="550.00000" pt_clust_6="30.86152"></scales>
<mgrwt>
<rscale>  0 0.30000000E+03</rscale>
<asrwt>  1 0.30861523E+02</asrwt>
<pdfrwt beam="1">  1        1 0.91203202E+00 0.30000000E+03</pdfrwt>
<pdfrwt beam="2">0</pdfrwt>
<totfact> 0.65532241E-05</totfact>
</mgrwt>
<clustering>
<clus scale="   30.862">  1  6  2 -1</clus>
<clus scale="  491.697">  4  5 -1 -1</clus>
<clus scale="  300.000">  1  4  2 -1</clus>
</clustering>
</event>
<event>
 6    1  0.9462926E-012  0.3000000E+03  0.7818608E-02  0.1093470E+00
          1   -1    0    0  502    0  0.00000000000E+00  0.00000000000E+00  0.24911064957E+03  0.24911064957E+03  0.00000000000E+00 0.  1.
         13   -1    0    0    0    0 -0.00000000000E+00 -0.00000000000E+00 -0.27500000000E+03  0.27500000000E+03  0.00000000000E+00 0.  1.
    9000005    2    1    2  501    0 -0.20159281670E+02  0.38591777556E+02 -0.20748577210E+02  0.48026832434E+03  0.47784038964E+03 0.  0.
         13    1    3    3    0    0  0.22044116685E+03  0.69905971886E+02  0.27495651883E+02  0.23288873699E+03  0.00000000000E+00 0.  1.
          1    1    3    3  501    0 -0.24060044852E+03 -0.31314194331E+02 -0.48244229093E+02  0.24737958734E+03  0.00000000000E+00 0.  1.
         21    1    1    2  502  501  0.20159281670E+02 -0.38591777556E+02 -0.51407732216E+01  0.43842325231E+02  0.00000000000E+00 0.  1.
<scales pt_clust_4="550.00000" pt_clust_5="550.00000" pt_clust_6="43.53991"></scales>
<mgrwt>
<rscale>  0 0.30000000E+03</rscale>
<asrwt>  1 0.43539911E+02</asrwt>
<pdfrwt beam="1">  1        1 0.90585691E+00 0.30000000E+03</pdfrwt>
<pdfrwt beam="2">0</pdfrwt>
<totfact> 0.85486980E-05</totfact>
</mgrwt>
<clustering>
<clus scale="   43.540">  1  6  2 -1</clus>
<clus scale="  477.840">  4  5 -1 -1</clus>
<clus scale="  300.000">  1  4  2 -1</clus>
</clustering>
</event>
<event>
 6    1  0.9462926E-012  0.3000000E+03  0.7818608E-02  0.1093470E+00
          1   -1    0    0  502    0  0.00000000000E+00  0.00000000000E+00  0.24015372124E+03  0.24015372124E+03  0.00000000000E+00 0.  1.
         13   -1    0    0    0    0 -0.00000000000E+00 -0.00000000000E+00 -0.27500000000E+03  0.27500000000E+03  0.00000000000E+00 0.  1.
    9000005    2    1    2  501    0  0.36362091791E+02 -0.30603352718E+02 -0.41554631948E+02  0.46715612839E+03  0.46287070974E+03 0.  0.
         13    1    3    3    0    0  0.11204821135E+03 -0.78562733963E+02  0.18119239434E+03  0.22706296175E+03  0.00000000000E+00 0.  1.
          1    1    3    3  501    0 -0.75686119564E+02  0.47959381244E+02 -0.22274702628E+03  0.24009316663E+03  0.00000000000E+00 0.  1.
         21    1    1    2  502  501 -0.36362091791E+02  0.30603352718E+02  0.67083531835E+01  0.47997592850E+02  0.00000000000E+00 0.  1.
<scales pt_clust_4="550.00000" pt_clust_5="550.00000" pt_clust_6="47.52649"></scales>
<mgrwt>
<rscale>  0 0.30000000E+03</rscale>
<asrwt>  1 0.47526486E+02</asrwt>
<pdfrwt beam="1">  1        1 0.87328626E+00 0.30000000E+03</pdfrwt>
<pdfrwt beam="2">0</pdfrwt>
<totfact> 0.22169620E-04</totfact>
</mgrwt>
<clustering>
<clus scale="   47.526">  1  6  2 -1</clus>
<clus scale="  462.871">  4  5 -1 -1</clus>
<clus scale="  300.000">  1  4  2 -1</clus>
</clustering>
</event>
<event>
 6    1  0.9462926E-012  0.3000000E+03  0.7818608E-02  0.1093470E+00
          1   -1    0    0  502    0  0.00000000000E+00  0.00000000000E+00  0.24247773630E+03  0.24247773630E+03  0.00000000000E+00 0.  1.
         13   -1    0    0    0    0 -0.00000000000E+00 -0.00000000000E+00 -0.27500000000E+03  0.27500000000E+03  0.00000000000E+00 0.  1.
    9000005    2    1    2  501    0 -0.67958647364E+01 -0.37919593176E+02 -0.51865185400E+02  0.47437056817E+03  0.46995037947E+03 0.  0.
         13    1    3    3    0    0 -0.18042943890E+03  0.31722762675E+01 -0.17985786515E+03  0.25478166617E+03  0.00000000000E+00 0.  1.
          1    1    3    3  501    0  0.17363357417E+03 -0.41091869443E+02  0.12799267975E+03  0.21958890200E+03  0.00000000000E+00 0.  1.
         21    1    1    2  502  501  0.67958647364E+01  0.37919593176E+02  0.19342921702E+02  0.43107168129E+02  0.00000000000E+00 0. -1.
<scales pt_clust_4="550.00000" pt_clust_5="550.00000" pt_clust_6="38.52375"></scales>
<mgrwt>
<rscale>  0 0.30000000E+03</rscale>
<asrwt>  1 0.38523750E+02</asrwt>
<pdfrwt beam="1">  1        1 0.88173722E+00 0.30000000E+03</pdfrwt>
<pdfrwt beam="2">0</pdfrwt>
<totfact> 0.18433493E-04</totfact>
</mgrwt>
<clustering>
<clus scale="   38.524">  1  6  2 -1</clus>
<clus scale="  469.950">  4  5 -1 -1</clus>
<clus scale="  300.000">  1  4  2 -1</clus>
</clustering>
</event>
<event>
 6    1  0.9462926E-012  0.3000000E+03  0.7818608E-02  0.1093470E+00
          1   -1    0    0  502    0  0.00000000000E+00  0.00000000000E+00  0.22639136457E+03  0.22639136457E+03  0.00000000000E+00 0.  1.
         13   -1    0    0    0    0 -0.00000000000E+00 -0.00000000000E+00 -0.27500000000E+03  0.27500000000E+03  0.00000000000E+00 0.  1.
    9000005    2    1    2  501    0  0.32297156296E+02 -0.10182346607E+02 -0.55580209618E+02  0.46681696170E+03  0.46225764412E+03 0.  0.
         13    1    3    3    0    0 -0.11486740897E+03  0.15790926813E+03 -0.12621272541E+03  0.23250701206E+03  0.00000000000E+00 0.  1.
          1    1    3    3  501    0  0.14716456526E+03 -0.16809161473E+03  0.70632515789E+02  0.23430994964E+03  0.00000000000E+00 0.  1.
         21    1    1    2  502  501 -0.32297156296E+02  0.10182346607E+02  0.69715741894E+01  0.34574402871E+02  0.00000000000E+00 0. -1.
<scales pt_clust_4="550.00000" pt_clust_5="550.00000" pt_clust_6="33.86424"></scales>
<mgrwt>
<rscale>  0 0.30000000E+03</rscale>
<asrwt>  1 0.33864236E+02</asrwt>
<pdfrwt beam="1">  1        1 0.82324133E+00 0.30000000E+03</pdfrwt>
<pdfrwt beam="2">0</pdfrwt>
<totfact> 0.68143684E-04</totfact>
</mgrwt>
<clustering>
<clus scale="   33.864">  1  6  2 -1</clus>
<clus scale="  462.258">  4  5 -1 -1</clus>
<clus scale="  300.000">  1  4  2 -1</clus>
</clustering>
</event>
<event>
 6    1  0.9462926E-012  0.3000000E+03  0.7818608E-02  0.1093470E+00
          1   -1    0    0  502    0  0.00000000000E+00  0.00000000000E+00  0.24677887098E+03  0.24677887098E+03  0.00000000000E+00 0.  1.
         13   -1    0    0    0    0 -0.00000000000E+00 -0.00000000000E+00 -0.27500000000E+03  0.27500000000E+03  0.00000000000E+00 0.  1.
    9000005    2    1    2  501    0  0.28062412930E+02 -0.20536783143E+02 -0.34074932158E+02  0.48651521416E+03  0.48407302561E+03 0.  0.
         13    1    3    3    0    0 -0.11749181359E+03 -0.81669427786E+02 -0.20746352507E+03  0.25202249092E+03  0.00000000000E+00 0.  1.
          1    1    3    3  501    0  0.14555422652E+03  0.61132644642E+02  0.17338859291E+03  0.23449272324E+03  0.00000000000E+00 0.  1.
         21    1    1    2  502  501 -0.28062412930E+02  0.20536783143E+02  0.58538031364E+01  0.35263656822E+02  0.00000000000E+00 0.  1.
<scales pt_clust_4="550.00000" pt_clust_5="550.00000" pt_clust_6="34.77439"></scales>
<mgrwt>
<rscale>  0 0.30000000E+03</rscale>
<asrwt>  1 0.34774394E+02</asrwt>
<pdfrwt beam="1">  1        1 0.89737771E+00 0.30000000E+03</pdfrwt>
<pdfrwt beam="2">0</pdfrwt>
<totfact> 0.11874888E-04</totfact>
</mgrwt>
<clustering>
<clus scale="   34.774">  1  6  2 -1</clus>
<clus scale="  484.073">  4  5 -1 -1</clus>
<clus scale="  300.000">  1  4  2 -1</clus>
</clustering>
</event>
<event>
 6    1  0.9462926E-012  0.3000000E+03  0.7818608E-02  0.1093470E+00
          1   -1    0    0  502    0  0.00000000000E+00  0.00000000000E+00  0.24310645448E+03  0.24310645448E+03  0.00000000000E+00 0.  1.
         13   -1    0    0    0    0 -0.00000000000E+00 -0.00000000000E+00 -0.27500000000E+03  0.27500000000E+03  0.00000000000E+00 0.  1.
    9000005    2    1    2  501    0  0.23150901000E+02 -0.32529546207E+02 -0.53229186292E+02  0.47283676086E+03  0.46813152057E+03 0.  0.
         13    1    3    3    0    0  0.22717527800E+03 -0.63815292980E+02  0.51282954883E+02  0.24147658275E+03  0.00000000000E+00 0.  1.
          3    1    3    3  501    0 -0.20402437700E+03  0.31285746773E+02 -0.10451214117E+03  0.23136017811E+03  0.00000000000E+00 0.  1.
         21    1    1    2  502  501 -0.23150901000E+02  0.32529546207E+02  0.21335640775E+02  0.45269693625E+02  0.00000000000E+00 0.  1.
<scales pt_clust_4="550.00000" pt_clust_5="550.00000" pt_clust_6="39.92663"></scales>
<mgrwt>
<rscale>  0 0.30000000E+03</rscale>
<asrwt>  1 0.39926628E+02</asrwt>
<pdfrwt beam="1">  1        1 0.88402347E+00 0.30000000E+03</pdfrwt>
<pdfrwt beam="2">0</pdfrwt>
<totfact> 0.17078023E-04</totfact>
</mgrwt>
<clustering>
<clus scale="   39.927">  1  6  2 -1</clus>
<clus scale="  468.132">  4  5 -1 -1</clus>
<clus scale="  300.000">  1  4  2 -1</clus>
</clustering>
</event>
<event>
 6    1  0.9462926E-012  0.3000000E+03  0.7818608E-02  0.1093470E+00
          1   -1    0    0  502    0  0.00000000000E+00  0.00000000000E+00  0.24150356803E+03  0.24150356803E+03  0.00000000000E+00 0.  1.
         13   -1    0    0    0    0 -0.00000000000E+00 -0.00000000000E+00 -0.27500000000E+03  0.27500000000E+03  0.00000000000E+00 0.  1.
    9000005    2    1    2  501    0  0.27690479732E+02 -0.45570057610E+02 -0.37267274198E+02  0.46304693075E+03  0.45845416077E+03 0.  0.
         13    1    3    3    0    0  0.22844898695E+03 -0.99341089632E+02 -0.52746228223E+02  0.25463651804E+03  0.00000000000E+00 0.  1.
          3    1    3    3  501    0 -0.20075850722E+03  0.53771032022E+02  0.15478954025E+02  0.20841041271E+03  0.00000000000E+00 0.  1.
         21    1    1    2  502  501 -0.27690479732E+02  0.45570057610E+02  0.37708422270E+01  0.53456637282E+02  0.00000000000E+00 0.  1.
<scales pt_clust_4="550.00000" pt_clust_5="550.00000" pt_clust_6="53.32347"></scales>
<mgrwt>
<rscale>  0 0.30000000E+03</rscale>
<asrwt>  1 0.53323473E+02</asrwt>
<pdfrwt beam="1">  1        1 0.87819479E+00 0.30000000E+03</pdfrwt>
<pdfrwt beam="2">0</pdfrwt>
<totfact> 0.19228486E-04</totfact>
</mgrwt>
<clustering>
<clus scale="   53.323">  1  6  2 -1</clus>
<clus scale="  458.454">  4  5 -1 -1</clus>
<clus scale="  300.000">  1  4  2 -1</clus>
</clustering>
</event>
<event>
 6    1  0.9462926E-012  0.3000000E+03  0.7818608E-02  0.1093470E+00
          1   -1    0    0  502    0  0.00000000000E+00  0.00000000000E+00  0.23043897340E+03  0.23043897340E+03  0.00000000000E+00 0.  1.
         13   -1    0    0    0    0 -0.00000000000E+00 -0.00000000000E+00 -0.27500000000E+03  0.27500000000E+03  0.00000000000E+00 0.  1.
    9000005    2    1    2  501    0  0.24182601405E+02 -0.19664293996E+02 -0.51813475631E+02  0.47343771271E+03  0.46956059129E+03 0.  0.
         13    1    3    3    0    0 -0.90632887171E+02 -0.19407811911E+03  0.77545911274E+02  0.22780255686E+03  0.00000000000E+00 0.  1.
          3    1    3    3  501    0  0.11481548858E+03  0.17441382512E+03 -0.12935938691E+03  0.24563515585E+03  0.00000000000E+00 0.  1.
         21    1    1    2  502  501 -0.24182601405E+02  0.19664293996E+02  0.72524490350E+01  0.32001260696E+02  0.00000000000E+00 0. -1.
<scales pt_clust_4="550.00000" pt_clust_5="550.00000" pt_clust_6="31.16862"></scales>
<mgrwt>
<rscale>  0 0.30000000E+03</rscale>
<asrwt>  1 0.31168617E+02</asrwt>
<pdfrwt beam="1">  1        1 0.83795990E+00 0.30000000E+03</pdfrwt>
<pdfrwt beam="2">0</pdfrwt>
<totfact> 0.52622887E-04</totfact>
</mgrwt>
<clustering>
<clus scale="   31.169">  1  6  2 -1</clus>
<clus scale="  469.561">  4  5 -1 -1</clus>
<clus scale="  300.000">  1  4  2 -1</clus>
</clustering>
</event>
<event>
 6    1  0.9462926E-012  0.3000000E+03  0.7818608E-02  0.1093470E+00
          1   -1    0    0  502    0  0.00000000000E+00  0.00000000000E+00  0.24122735656E+03  0.24122735656E+03  0.00000000000E+00 0.  1.
         13   -1    0    0    0    0 -0.00000000000E+00 -0.00000000000E+00 -0.27500000000E+03  0.27500000000E+03  0.00000000000E+00 0.  1.
    9000005    2    1    2  501    0 -0.33112866952E+02  0.15837161737E+02 -0.69684254605E+02  0.46487639293E+03  0.45815596439E+03 0.  0.
         13    1    3    3    0    0 -0.21651839146E+03  0.50101130829E+02  0.68659549727E+02  0.23260367779E+03  0.00000000000E+00 0.  1.
          1    1    3    3  501    0  0.18340552451E+03 -0.34263969092E+02 -0.13834380433E+03  0.23227271514E+03  0.00000000000E+00 0.  1.
         21    1    1    2  502  501  0.33112866952E+02 -0.15837161737E+02  0.35911611165E+02  0.51350963634E+02  0.00000000000E+00 0. -1.
<scales pt_clust_4="550.00000" pt_clust_5="550.00000" pt_clust_6="36.70528"></scales>
<mgrwt>
<rscale>  0 0.30000000E+03</rscale>
<asrwt>  1 0.36705281E+02</asrwt>
<pdfrwt beam="1">  1        1 0.87719039E+00 0.30000000E+03</pdfrwt>
<pdfrwt beam="2">0</pdfrwt>
<totfact> 0.21107016E-04</totfact>
</mgrwt>
<clustering>
<clus scale="   36.705">  1  6  2 -1</clus>
<clus scale="  458.156">  4  5 -1 -1</clus>
<clus scale="  300.000">  1  4  2 -1</clus>
</clustering>
</event>
<event>
 6    1  0.9462926E-012  0.3000000E+03  0.7818608E-02  0.1093470E+00
          1   -1    0    0  502    0  0.00000000000E+00  0.00000000000E+00  0.23040021508E+03  0.23040021508E+03  0.00000000000E+00 0.  1.
         13   -1    0    0    0    0 -0.00000000000E+00 -0.00000000000E+00 -0.27500000000E+03  0.27500000000E+03  0.00000000000E+00 0.  1.
    9000005    2    1    2  501    0  0.22374200826E+02  0.20552907812E+02 -0.47808865164E+02  0.47484984556E+03  0.47145907708E+03 0.  0.
         13    1    3    3    0    0  0.16660055461E+03  0.10723224089E+03 -0.17466060212E+03  0.26412274460E+03  0.00000000000E+00 0.  1.
          3    1    3    3  501    0 -0.14422635379E+03 -0.86679333077E+02  0.12685173696E+03  0.21072710096E+03  0.00000000000E+00 0.  1.
         21    1    1    2  502  501 -0.22374200826E+02 -0.20552907812E+02  0.32090802488E+01  0.30550369526E+02  0.00000000000E+00 0.  1.
<scales pt_clust_4="550.00000" pt_clust_5="550.00000" pt_clust_6="30.38136"></scales>
<mgrwt>
<rscale>  0 0.30000000E+03</rscale>
<asrwt>  1 0.30381357E+02</asrwt>
<pdfrwt beam="1">  1        1 0.83781896E+00 0.30000000E+03</pdfrwt>
<pdfrwt beam="2">0</pdfrwt>
<totfact> 0.53007515E-04</totfact>
</mgrwt>
<clustering>
<clus scale="   30.381">  1  6  2 -1</clus>
<clus scale="  471.459">  4  5 -1 -1</clus>
<clus scale="  300.000">  1  4  2 -1</clus>
</clustering>
</event>
<event>
 6    1  0.9462926E-012  0.3000000E+03  0.7818608E-02  0.1093470E+00
          1   -1    0    0  502    0  0.00000000000E+00  0.00000000000E+00  0.22932746495E+03  0.22932746495E+03  0.00000000000E+00 0.  1.
         13   -1    0    0    0    0 -0.00000000000E+00 -0.00000000000E+00 -0.27500000000E+03  0.27500000000E+03  0.00000000000E+00 0.  1.
    9000005    2    1    2  501    0  0.26380314926E+02  0.27428977105E+02 -0.50216317673E+02  0.46600102810E+03  0.46172178834E+03 0.  0.
         13    1    3    3    0    0 -0.81788368072E+02  0.22415152289E+03 -0.32375504367E+02  0.24079330483E+03  0.00000000000E+00 0.  1.
          1    1    3    3  501    0  0.10816868300E+03 -0.19672254579E+03 -0.17840813306E+02  0.22520772327E+03  0.00000000000E+00 0.  1.
         21    1    1    2  502  501 -0.26380314926E+02 -0.27428977105E+02  0.45437826190E+01  0.38326436844E+02  0.00000000000E+00 0.  1.
<scales pt_clust_4="550.00000" pt_clust_5="550.00000" pt_clust_6="38.05614"></scales>
<mgrwt>
<rscale>  0 0.30000000E+03</rscale>
<asrwt>  1 0.38056140E+02</asrwt>
<pdfrwt beam="1">  1        1 0.83391805E+00 0.30000000E+03</pdfrwt>
<pdfrwt beam="2">0</pdfrwt>
<totfact> 0.54248870E-04</totfact>
</mgrwt>
<clustering>
<clus scale="   38.056">  1  6  2 -1</clus>
<clus scale="  461.722">  4  5 -1 -1</clus>
<clus scale="  300.000">  1  4  2 -1</clus>
</clustering>
</event>
<event>
 6    1  0.9462926E-012  0.3000000E+03  0.7818608E-02  0.1093470E+00
          1   -1    0    0  502    0  0.00000000000E+00  0.00000000000E+00  0.25501573641E+03  0.25501573641E+03  0.00000000000E+00 0.  1.
         13   -1    0    0    0    0 -0.00000000000E+00 -0.00000000000E+00 -0.27500000000E+03  0.27500000000E+03  0.00000000000E+00 0.  1.
    9000005    2    1    2  501    0  0.38328702419E+01  0.32500919237E+02 -0.41821758721E+02  0.49067267045E+03  0.48779053843E+03 0.  0.
         13    1    3    3    0    0  0.11895804729E+03 -0.17622493315E+03 -0.11447522162E+03  0.24147633517E+03  0.00000000000E+00 0.  1.
          1    1    3    3  501    0 -0.11512517705E+03  0.20872585239E+03  0.72653462898E+02  0.24919633528E+03  0.00000000000E+00 0.  1.
         21    1    1    2  502  501 -0.38328702419E+01 -0.32500919237E+02  0.21837495129E+02  0.39343065958E+02  0.00000000000E+00 0.  1.
<scales pt_clust_4="550.00000" pt_clust_5="550.00000" pt_clust_6="32.72615"></scales>
<mgrwt>
<rscale>  0 0.30000000E+03</rscale>
<asrwt>  1 0.32726146E+02</asrwt>
<pdfrwt beam="1">  1        1 0.92732995E+00 0.30000000E+03</pdfrwt>
<pdfrwt beam="2">0</pdfrwt>
<totfact> 0.29737813E-05</totfact>
</mgrwt>
<clustering>
<clus scale="   32.726">  1  6  2 -1</clus>
<clus scale="  487.791">  4  5 -1 -1</clus>
<clus scale="  300.000">  1  4  2 -1</clus>
</clustering>
</event>
<event>
 6    1  0.9462926E-012  0.3000000E+03  0.7818608E-02  0.1093470E+00
          1   -1    0    0  502    0  0.00000000000E+00  0.00000000000E+00  0.23778027687E+03  0.23778027687E+03  0.00000000000E+00 0.  1.
         13   -1    0    0    0    0 -0.00000000000E+00 -0.00000000000E+00 -0.27500000000E+03  0.27500000000E+03  0.00000000000E+00 0.  1.
    9000005    2    1    2  501    0 -0.38236597379E+02 -0.18821845710E+02 -0.43778123817E+02  0.46966053807E+03  0.46566962284E+03 0.  0.
         13    1    3    3    0    0  0.17665442845E+03 -0.13591641286E+03 -0.21654407001E+02  0.22393966089E+03  0.00000000000E+00 0.  1.
          3    1    3    3  501    0 -0.21489102583E+03  0.11709456715E+03 -0.22123716815E+02  0.24572087718E+03  0.00000000000E+00 0.  1.
         21    1    1    2  502  501  0.38236597379E+02  0.18821845710E+02  0.65584006882E+01  0.43119738805E+02  0.00000000000E+00 0.  1.
<scales pt_clust_4="550.00000" pt_clust_5="550.00000" pt_clust_6="42.61806"></scales>
<mgrwt>
<rscale>  0 0.30000000E+03</rscale>
<asrwt>  1 0.42618063E+02</asrwt>
<pdfrwt beam="1">  1        1 0.86465555E+00 0.30000000E+03</pdfrwt>
<pdfrwt beam="2">0</pdfrwt>
<totfact> 0.27791634E-04</totfact>
</mgrwt>
<clustering>
<clus scale="   42.618">  1  6  2 -1</clus>
<clus scale="  465.670">  4  5 -1 -1</clus>
<clus scale="  300.000">  1  4  2 -1</clus>
</clustering>
</event>
<event>
 6    1  0.9462926E-012  0.3000000E+03  0.7818608E-02  0.1093470E+00
          1   -1    0    0  502    0  0.00000000000E+00  0.00000000000E+00  0.24502503173E+03  0.24502503173E+03  0.00000000000E+00 0.  1.
         13   -1    0    0    0    0 -0.00000000000E+00 -0.00000000000E+00 -0.27500000000E+03  0.27500000000E+03  0.00000000000E+00 0.  1.
    9000005    2    1    2  501    0 -0.17343842765E+01 -0.31881811172E+02 -0.36694354806E+02  0.48739669853E+03  0.48496351212E+03 0.  0.
         13    1    3    3    0    0 -0.82077215176E+02 -0.14658566857E+03  0.16916865167E+03  0.23841572974E+03  0.00000000000E+00 0.  1.
          3    1    3    3  501    0  0.80342830900E+02  0.11470385740E+03 -0.20586300648E+03  0.24898096878E+03  0.00000000000E+00 0.  1.
         21    1    1    2  502  501  0.17343842765E+01  0.31881811172E+02  0.67193865403E+01  0.32628333207E+02  0.00000000000E+00 0. -1.
<scales pt_clust_4="550.00000" pt_clust_5="550.00000" pt_clust_6="31.92895"></scales>
<mgrwt>
<rscale>  0 0.30000000E+03</rscale>
<asrwt>  1 0.31928952E+02</asrwt>
<pdfrwt beam="1">  1        1 0.89100012E+00 0.30000000E+03</pdfrwt>
<pdfrwt beam="2">0</pdfrwt>
<totfact> 0.14310860E-04</totfact>
</mgrwt>
<clustering>
<clus scale="   31.929">  1  6  2 -1</clus>
<clus scale="  484.964">  4  5 -1 -1</clus>
<clus scale="  300.000">  1  4  2 -1</clus>
</clustering>
</event>
<event>
 6    1  0.9462926E-012  0.3000000E+03  0.7818608E-02  0.1093470E+00
          1   -1    0    0  502    0  0.00000000000E+00  0.00000000000E+00  0.26070570282E+03  0.26070570282E+03  0.00000000000E+00 0.  1.
         13   -1    0    0    0    0 -0.00000000000E+00 -0.00000000000E+00 -0.27500000000E+03  0.27500000000E+03  0.00000000000E+00 0.  1.
    9000005    2    1    2  501    0  0.20627371180E+02  0.25286550660E+02 -0.65469831911E+02  0.47501111129E+03  0.46934460567E+03 0.  0.
         13    1    3    3    0    0 -0.22258293677E+03  0.42347433228E+02 -0.26787045715E+02  0.22815348926E+03  0.00000000000E+00 0.  1.
          3    1    3    3  501    0  0.24321030795E+03 -0.17060882567E+02 -0.38682786196E+02  0.24685762203E+03  0.00000000000E+00 0.  1.
         21    1    1    2  502  501 -0.20627371180E+02 -0.25286550660E+02  0.51175534734E+02  0.60694591533E+02  0.00000000000E+00 0.  1.
<scales pt_clust_4="550.00000" pt_clust_5="550.00000" pt_clust_6="32.63278"></scales>
<mgrwt>
<rscale>  0 0.30000000E+03</rscale>
<asrwt>  1 0.32632776E+02</asrwt>
<pdfrwt beam="1">  1        1 0.94802074E+00 0.30000000E+03</pdfrwt>
<pdfrwt beam="2">0</pdfrwt>
<totfact> 0.13722972E-05</totfact>
</mgrwt>
<clustering>
<clus scale="   32.633">  1  6  2 -1</clus>
<clus scale="  469.345">  4  5 -1 -1</clus>
<clus scale="  300.000">  1  4  2 -1</clus>
</clustering>
</event>
<event>
 6    1  0.9462926E-012  0.3000000E+03  0.7818608E-02  0.1093470E+00
          1   -1    0    0  502    0  0.00000000000E+00  0.00000000000E+00  0.24682855516E+03  0.24682855516E+03  0.00000000000E+00 0.  1.
         13   -1    0    0    0    0 -0.00000000000E+00 -0.00000000000E+00 -0.27500000000E+03  0.27500000000E+03  0.00000000000E+00 0.  1.
    9000005    2    1    2  501    0 -0.44103196260E+01  0.31791188937E+02 -0.68074001544E+02  0.47061972150E+03  0.46456293650E+03 0.  0.
         13    1    3    3    0    0 -0.17201350973E+03 -0.37966378336E+02  0.11692359452E+03  0.21142663117E+03  0.00000000000E+00 0.  1.
          3    1    3    3  501    0  0.16760319010E+03  0.69757567273E+02 -0.18499759606E+03  0.25919309033E+03  0.00000000000E+00 0.  1.
         21    1    1    2  502  501  0.44103196260E+01 -0.31791188937E+02  0.39902556703E+02  0.51208833659E+02  0.00000000000E+00 0.  1.
<scales pt_clust_4="550.00000" pt_clust_5="550.00000" pt_clust_6="32.09565"></scales>
<mgrwt>
<rscale>  0 0.30000000E+03</rscale>
<asrwt>  1 0.32095648E+02</asrwt>
<pdfrwt beam="1">  1        1 0.89755838E+00 0.30000000E+03</pdfrwt>
<pdfrwt beam="2">0</pdfrwt>
<totfact> 0.11999200E-04</totfact>
</mgrwt>
<clustering>
<clus scale="   32.096">  1  6  2 -1</clus>
<clus scale="  464.563">  4  5 -1 -1</clus>
<clus scale="  300.000">  1  4  2 -1</clus>
</clustering>
</event>
<event>
 6    1  0.9462926E-012  0.3000000E+03  0.7818608E-02  0.1093470E+00
          1   -1    0    0  502    0  0.00000000000E+00  0.00000000000E+00  0.22926432385E+03  0.22926432385E+03  0.00000000000E+00 0.  1.
         13   -1    0    0    0    0 -0.00000000000E+00 -0.00000000000E+00 -0.27500000000E+03  0.27500000000E+03  0.00000000000E+00 0.  1.
    9000005    2    1    2  501    0  0.33301814084E+02  0.15250208888E+02 -0.58411621243E+02  0.46550533423E+03  0.46037128386E+03 0.  0.
         13    1    3    3    0    0 -0.76146093377E+02 -0.20280199939E+03 -0.10595031310E+02  0.21688506906E+03  0.00000000000E+00 0.  1.
          3    1    3    3  501    0  0.10944790746E+03  0.21805220827E+03 -0.47816589933E+02  0.24862026517E+03  0.00000000000E+00 0.  1.
         21    1    1    2  502  501 -0.33301814084E+02 -0.15250208888E+02  0.12675945092E+02  0.38758989620E+02  0.00000000000E+00 0. -1.
<scales pt_clust_4="550.00000" pt_clust_5="550.00000" pt_clust_6="36.62758"></scales>
<mgrwt>
<rscale>  0 0.30000000E+03</rscale>
<asrwt>  1 0.36627581E+02</asrwt>
<pdfrwt beam="1">  1        1 0.83368845E+00 0.30000000E+03</pdfrwt>
<pdfrwt beam="2">0</pdfrwt>
<totfact> 0.54848723E-04</totfact>
</mgrwt>
<clustering>
<clus scale="   36.628">  1  6  2 -1</clus>
<clus scale="  460.371">  4  5 -1 -1</clus>
<clus scale="  300.000">  1  4  2 -1</clus>
</clustering>
</event>
<event>
 6    1  0.9462926E-012  0.3000000E+03  0.7818608E-02  0.1093470E+00
          1   -1    0    0  502    0  0.00000000000E+00  0.00000000000E+00  0.23125825734E+03  0.23125825734E+03  0.00000000000E+00 0.  1.
         13   -1    0    0    0    0 -0.00000000000E+00 -0.00000000000E+00 -0.27500000000E+03  0.27500000000E+03  0.00000000000E+00 0.  1.
    9000005    2    1    2  501    0  0.36677272633E+02 -0.12676126012E+01 -0.66362789644E+02  0.46314745897E+03  0.45689683708E+03 0.  0.
         13    1    3    3    0    0  0.22413135372E+03  0.37620444734E+02 -0.12948360930E+03  0.26156484217E+03  0.00000000000E+00 0.  1.
          3    1    3    3  501    0 -0.18745408109E+03 -0.38888057336E+02  0.63120819658E+02  0.20158261680E+03  0.00000000000E+00 0.  1.
         21    1    1    2  502  501 -0.36677272633E+02  0.12676126012E+01  0.22621046980E+02  0.43110798369E+02  0.00000000000E+00 0.  1.
<scales pt_clust_4="550.00000" pt_clust_5="550.00000" pt_clust_6="36.69917"></scales>
<mgrwt>
<rscale>  0 0.30000000E+03</rscale>
<asrwt>  1 0.36699171E+02</asrwt>
<pdfrwt beam="1">  1        1 0.84093912E+00 0.30000000E+03</pdfrwt>
<pdfrwt beam="2">0</pdfrwt>
<totfact> 0.48444092E-04</totfact>
</mgrwt>
<clustering>
<clus scale="   36.699">  1  6  2 -1</clus>
<clus scale="  456.897">  4  5 -1 -1</clus>
<clus scale="  300.000">  1  4  2 -1</clus>
</clustering>
</event>
<event>
 6    1  0.9462926E-012  0.3000000E+03  0.7818608E-02  0.1093470E+00
          1   -1    0    0  502    0  0.00000000000E+00  0.00000000000E+00  0.24132241144E+03  0.24132241144E+03  0.00000000000E+00 0.  1.
         13   -1    0    0    0    0 -0.00000000000E+00 -0.00000000000E+00 -0.27500000000E+03  0.27500000000E+03  0.00000000000E+00 0.  1.
    9000005    2    1    2  501    0 -0.38434752642E+02 -0.26947803064E+01 -0.42435694915E+02  0.47681043252E+03  0.47335283701E+03 0.  0.
         13    1    3    3    0    0 -0.17262719548E+03  0.14995121595E+03 -0.12125089411E+03  0.25881903931E+03  0.00000000000E+00 0.  1.
          1    1    3    3  501    0  0.13419244284E+03 -0.15264599626E+03  0.78815199198E+02  0.21799139321E+03  0.00000000000E+00 0.  1.
         21    1    1    2  502  501  0.38434752642E+02  0.26947803064E+01  0.87581063590E+01  0.39511978924E+02  0.00000000000E+00 0.  1.
<scales pt_clust_4="550.00000" pt_clust_5="550.00000" pt_clust_6="38.52911"></scales>
<mgrwt>
<rscale>  0 0.30000000E+03</rscale>
<asrwt>  1 0.38529107E+02</asrwt>
<pdfrwt beam="1">  1        1 0.87753604E+00 0.30000000E+03</pdfrwt>
<pdfrwt beam="2">0</pdfrwt>
<totfact> 0.20732689E-04</totfact>
</mgrwt>
<clustering>
<clus scale="   38.529">  1  6  2 -1</clus>
<clus scale="  473.353">  4  5 -1 -1</clus>
<clus scale="  300.000">  1  4  2 -1</clus>
</clustering>
</event>
<event>
 6    1  0.9462926E-012  0.3000000E+03  0.7818608E-02  0.1093470E+00
          1   -1    0    0  502    0  0.00000000000E+00  0.00000000000E+00  0.23153301665E+03  0.23153301665E+03  0.00000000000E+00 0.  1.
         13   -1    0    0    0    0 -0.00000000000E+00 -0.00000000000E+00 -0.27500000000E+03  0.27500000000E+03  0.00000000000E+00 0.  1.
    9000005    2    1    2  501    0  0.29830056888E+02 -0.18546283149E+02 -0.55561601731E+02  0.46938363299E+03  0.46475811604E+03 0.  0.
         13    1    3    3    0    0  0.37309977971E+01 -0.16286341666E+03 -0.20376620723E+03  0.26088135242E+03  0.00000000000E+00 0.  1.
          1    1    3    3  501    0  0.26099059090E+02  0.14431713352E+03  0.14820460550E+03  0.20850228057E+03  0.00000000000E+00 0.  1.
         21    1    1    2  502  501 -0.29830056888E+02  0.18546283149E+02  0.12094618385E+02  0.37149383662E+02  0.00000000000E+00 0.  1.
<scales pt_clust_4="550.00000" pt_clust_5="550.00000" pt_clust_6="35.12545"></scales>
<mgrwt>
<rscale>  0 0.30000000E+03</rscale>
<asrwt>  1 0.35125445E+02</asrwt>
<pdfrwt beam="1">  1        1 0.84193824E+00 0.30000000E+03</pdfrwt>
<pdfrwt beam="2">0</pdfrwt>
<totfact> 0.47940822E-04</totfact>
</mgrwt>
<clustering>
<clus scale="   35.125">  1  6  2 -1</clus>
<clus scale="  464.758">  4  5 -1 -1</clus>
<clus scale="  300.000">  1  4  2 -1</clus>
</clustering>
</event>
<event>
 6    1  0.9462926E-012  0.3000000E+03  0.7818608E-02  0.1093470E+00
          1   -1    0    0  502    0  0.00000000000E+00  0.00000000000E+00  0.23463429293E+03  0.23463429293E+03  0.00000000000E+00 0.  1.
         13   -1    0    0    0    0 -0.00000000000E+00 -0.00000000000E+00 -0.27500000000E+03  0.27500000000E+03  0.00000000000E+00 0.  1.
    9000005    2    1    2  501    0  0.32563176934E+02  0.10269278573E+02 -0.40891321027E+02  0.47548616202E+03  0.47249250953E+03 0.  0.
         13    1    3    3    0    0  0.10104107444E+03 -0.21305685204E+03 -0.52624729716E+02  0.24160273820E+03  0.00000000000E+00 0.  1.
          1    1    3    3  501    0 -0.68477897501E+02  0.22332613062E+03  0.11733408690E+02  0.23388342383E+03  0.00000000000E+00 0.  1.
         21    1    1    2  502  501 -0.32563176934E+02 -0.10269278573E+02  0.52561395868E+00  0.34148130908E+02  0.00000000000E+00 0.  1.
<scales pt_clust_4="550.00000" pt_clust_5="550.00000" pt_clust_6="34.14409"></scales>
<mgrwt>
<rscale>  0 0.30000000E+03</rscale>
<asrwt>  1 0.34144085E+02</asrwt>
<pdfrwt beam="1">  1        1 0.85321561E+00 0.30000000E+03</pdfrwt>
<pdfrwt beam="2">0</pdfrwt>
<totfact> 0.38100858E-04</totfact>
</mgrwt>
<clustering>
<clus scale="   34.144">  1  6  2 -1</clus>
<clus scale="  472.493">  4  5 -1 -1</clus>
<clus scale="  300.000">  1  4  2 -1</clus>
</clustering>
</event>
<event>
 6    1  0.9462926E-012  0.3000000E+03  0.7818608E-02  0.1093470E+00
          1   -1    0    0  502    0  0.00000000000E+00  0.00000000000E+00  0.24048339761E+03  0.24048339761E+03  0.00000000000E+00 0.  1.
         13   -1    0    0    0    0 -0.00000000000E+00 -0.00000000000E+00 -0.27500000000E+03  0.27500000000E+03  0.00000000000E+00 0.  1.
    9000005    2    1    2  501    0  0.20603292575E+02  0.26520610573E+02 -0.64213313853E+02  0.47065335052E+03  0.46504127584E+03 0.  0.
         13    1    3    3    0    0  0.29149828217E+02  0.23506377984E+03 -0.10312347329E+03  0.25833920303E+03  0.00000000000E+00 0.  1.
          3    1    3    3  501    0 -0.85465356418E+01 -0.20854316927E+03  0.38910159437E+02  0.21231414749E+03  0.00000000000E+00 0.  1.
         21    1    1    2  502  501 -0.20603292575E+02 -0.26520610573E+02  0.29696711463E+02  0.44830047087E+02  0.00000000000E+00 0.  1.
<scales pt_clust_4="550.00000" pt_clust_5="550.00000" pt_clust_6="33.58331"></scales>
<mgrwt>
<rscale>  0 0.30000000E+03</rscale>
<asrwt>  1 0.33583306E+02</asrwt>
<pdfrwt beam="1">  1        1 0.87448508E+00 0.30000000E+03</pdfrwt>
<pdfrwt beam="2">0</pdfrwt>
<totfact> 0.22952688E-04</totfact>
</mgrwt>
<clustering>
<clus scale="   33.583">  1  6  2 -1</clus>
<clus scale="  465.041">  4  5 -1 -1</clus>
<clus scale="  300.000">  1  4  2 -1</clus>
</clustering>
</event>
<event>
 6    1  0.9462926E-012  0.3000000E+03  0.7818608E-02  0.1093470E+00
          1   -1    0    0  502    0  0.00000000000E+00  0.00000000000E+00  0.24499406566E+03  0.24499406566E+03  0.00000000000E+00 0.  1.
         13   -1    0    0    0    0 -0.00000000000E+00 -0.00000000000E+00 -0.27500000000E+03  0.27500000000E+03  0.00000000000E+00 0.  1.
    9000005    2    1    2  501    0 -0.29690068409E+02  0.11656676600E+02 -0.27542683899E+02  0.48800272505E+03  0.48617968072E+03 0.  0.
         13    1    3    3    0    0 -0.16507653706E+03 -0.29790977688E+02 -0.20248584254E+03  0.26294159403E+03  0.00000000000E+00 0.  1.
          3    1    3    3  501    0  0.13538646865E+03  0.41447654287E+02  0.17494315864E+03  0.22506113102E+03  0.00000000000E+00 0.  1.
         21    1    1    2  502  501  0.29690068409E+02 -0.11656676600E+02 -0.24632504401E+01  0.31991340613E+02  0.00000000000E+00 0. -1.
<scales pt_clust_4="550.00000" pt_clust_5="550.00000" pt_clust_6="31.89638"></scales>
<mgrwt>
<rscale>  0 0.30000000E+03</rscale>
<asrwt>  1 0.31896384E+02</asrwt>
<pdfrwt beam="1">  1        1 0.89088751E+00 0.30000000E+03</pdfrwt>
<pdfrwt beam="2">0</pdfrwt>
<totfact> 0.14361408E-04</totfact>
</mgrwt>
<clustering>
<clus scale="   31.896">  1  6  2 -1</clus>
<clus scale="  486.180">  4  5 -1 -1</clus>
<clus scale="  300.000">  1  4  2 -1</clus>
</clustering>
</event>
<event>
 6    1  0.9462926E-012  0.3000000E+03  0.7818608E-02  0.1093470E+00
          1   -1    0    0  502    0  0.00000000000E+00  0.00000000000E+00  0.23130939741E+03  0.23130939741E+03  0.00000000000E+00 0.  1.
         13   -1    0    0    0    0 -0.00000000000E+00 -0.00000000000E+00 -0.27500000000E+03  0.27500000000E+03  0.00000000000E+00 0.  1.
    9000005    2    1    2  501    0  0.14186807942E+02  0.38066368286E+02 -0.47331484647E+02  0.46552251305E+03  0.46132486038E+03 0.  0.
         13    1    3    3    0    0  0.17064311892E+03  0.12935912494E+03  0.95867788537E+02  0.23461349091E+03  0.00000000000E+00 0.  1.
          3    1    3    3  501    0 -0.15645631098E+03 -0.91292756657E+02 -0.14319927318E+03  0.23090902213E+03  0.00000000000E+00 0.  1.
         21    1    1    2  502  501 -0.14186807942E+02 -0.38066368286E+02  0.36408820604E+01  0.40786884365E+02  0.00000000000E+00 0.  1.
<scales pt_clust_4="550.00000" pt_clust_5="550.00000" pt_clust_6="40.62406"></scales>
<mgrwt>
<rscale>  0 0.30000000E+03</rscale>
<asrwt>  1 0.40624056E+02</asrwt>
<pdfrwt beam="1">  1        1 0.84112508E+00 0.30000000E+03</pdfrwt>
<pdfrwt beam="2">0</pdfrwt>
<totfact> 0.47386791E-04</totfact>
</mgrwt>
<clustering>
<clus scale="   40.624">  1  6  2 -1</clus>
<clus scale="  461.325">  4  5 -1 -1</clus>
<clus scale="  300.000">  1  4  2 -1</clus>
</clustering>
</event>
<event>
 6    1  0.9462926E-012  0.3000000E+03  0.7818608E-02  0.1093470E+00
          1   -1    0    0  502    0  0.00000000000E+00  0.00000000000E+00  0.22247149730E+03  0.22247149730E+03  0.00000000000E+00 0.  1.
         13   -1    0    0    0    0 -0.00000000000E+00 -0.00000000000E+00 -0.27500000000E+03  0.27500000000E+03  0.00000000000E+00 0.  1.
    9000005    2    1    2  501    0 -0.29289975562E+02 -0.15077723082E+02 -0.62168831873E+02  0.46314692377E+03  0.45777163405E+03 0.  0.
         13    1    3    3    0    0 -0.92913764309E+01  0.21056070327E+03 -0.10033819014E+03  0.23343070030E+03  0.00000000000E+00 0.  1.
          1    1    3    3  501    0 -0.19998599131E+02 -0.22563842636E+03  0.38169358269E+02  0.22971622347E+03  0.00000000000E+00 0.  1.
         21    1    1    2  502  501  0.29289975562E+02  0.15077723082E+02  0.96403291745E+01  0.34324573535E+02  0.00000000000E+00 0.  1.
<scales pt_clust_4="550.00000" pt_clust_5="550.00000" pt_clust_6="32.94299"></scales>
<mgrwt>
<rscale>  0 0.30000000E+03</rscale>
<asrwt>  1 0.32942987E+02</asrwt>
<pdfrwt beam="1">  1        1 0.80898726E+00 0.30000000E+03</pdfrwt>
<pdfrwt beam="2">0</pdfrwt>
<totfact> 0.89827738E-04</totfact>
</mgrwt>
<clustering>
<clus scale="   32.943">  1  6  2 -1</clus>
<clus scale="  457.772">  4  5 -1 -1</clus>
<clus scale="  300.000">  1  4  2 -1</clus>
</clustering>
</event>
<event>
 6    1  0.9462926E-012  0.3000000E+03  0.7818608E-02  0.1093470E+00
          1   -1    0    0  502    0  0.00000000000E+00  0.00000000000E+00  0.22286916480E+03  0.22286916480E+03  0.00000000000E+00 0.  1.
         13   -1    0    0    0    0 -0.00000000000E+00 -0.00000000000E+00 -0.27500000000E+03  0.27500000000E+03  0.00000000000E+00 0.  1.
    9000005    2    1    2  501    0  0.24617367175E+02  0.18962675886E+02 -0.67336096595E+02  0.46327439905E+03  0.45730014330E+03 0.  0.
         13    1    3    3    0    0  0.23933697748E+03  0.26944272736E+02 -0.60341247684E+02  0.24829266762E+03  0.00000000000E+00 0.  1.
          3    1    3    3  501    0 -0.21471961030E+03 -0.79815968504E+01 -0.69948489113E+01  0.21498173143E+03  0.00000000000E+00 0.  1.
         21    1    1    2  502  501 -0.24617367175E+02 -0.18962675886E+02  0.15205261391E+02  0.34594765751E+02  0.00000000000E+00 0.  1.
<scales pt_clust_4="550.00000" pt_clust_5="550.00000" pt_clust_6="31.07407"></scales>
<mgrwt>
<rscale>  0 0.30000000E+03</rscale>
<asrwt>  1 0.31074070E+02</asrwt>
<pdfrwt beam="1">  1        1 0.81043333E+00 0.30000000E+03</pdfrwt>
<pdfrwt beam="2">0</pdfrwt>
<totfact> 0.88507083E-04</totfact>
</mgrwt>
<clustering>
<clus scale="   31.074">  1  6  2 -1</clus>
<clus scale="  457.300">  4  5 -1 -1</clus>
<clus scale="  300.000">  1  4  2 -1</clus>
</clustering>
</event>
<event>
 6    1  0.9462926E-012  0.3000000E+03  0.7818608E-02  0.1093470E+00
          1   -1    0    0  502    0  0.00000000000E+00  0.00000000000E+00  0.23338111514E+03  0.23338111514E+03  0.00000000000E+00 0.  1.
         13   -1    0    0    0    0 -0.00000000000E+00 -0.00000000000E+00 -0.27500000000E+03  0.27500000000E+03  0.00000000000E+00 0.  1.
    9000005    2    1    2  501    0 -0.17500251724E+02  0.32652887601E+02 -0.37299373644E+02  0.47108328603E+03  0.46814073656E+03 0.  0.
         13    1    3    3    0    0  0.21093587202E+03  0.71105911277E+02 -0.78032543233E+02  0.23587935587E+03  0.00000000000E+00 0.  1.
          1    1    3    3  501    0 -0.22843612374E+03 -0.38453023677E+02  0.40733169589E+02  0.23520393016E+03  0.00000000000E+00 0.  1.
         21    1    1    2  502  501  0.17500251724E+02 -0.32652887601E+02 -0.43195112154E+01  0.37297829109E+02  0.00000000000E+00 0. -1.
<scales pt_clust_4="550.00000" pt_clust_5="550.00000" pt_clust_6="37.04688"></scales>
<mgrwt>
<rscale>  0 0.30000000E+03</rscale>
<asrwt>  1 0.37046879E+02</asrwt>
<pdfrwt beam="1">  1        1 0.84865860E+00 0.30000000E+03</pdfrwt>
<pdfrwt beam="2">0</pdfrwt>
<totfact> 0.41445098E-04</totfact>
</mgrwt>
<clustering>
<clus scale="   37.047">  1  6  2 -1</clus>
<clus scale="  468.141">  4  5 -1 -1</clus>
<clus scale="  300.000">  1  4  2 -1</clus>
</clustering>
</event>
<event>
 6    1  0.9462926E-012  0.3000000E+03  0.7818608E-02  0.1093470E+00
          1   -1    0    0  502    0  0.00000000000E+00  0.00000000000E+00  0.24880204702E+03  0.24880204702E+03  0.00000000000E+00 0.  1.
         13   -1    0    0    0    0 -0.00000000000E+00 -0.00000000000E+00 -0.27500000000E+03  0.27500000000E+03  0.00000000000E+00 0.  1.
    9000005    2    1    2  501    0 -0.41897658097E+02  0.12869994607E+02 -0.58564026847E+02  0.46931706512E+03  0.46358139723E+03 0.  0.
         13    1    3    3    0    0 -0.92870622872E+02 -0.12887641434E+03 -0.20492811874E+03  0.25928674593E+03  0.00000000000E+00 0.  1.
          3    1    3    3  501    0  0.50972964774E+02  0.14174640894E+03  0.14636409189E+03  0.21003031919E+03  0.00000000000E+00 0.  1.
         21    1    1    2  502  501  0.41897658097E+02 -0.12869994607E+02  0.32366073867E+02  0.54484981901E+02  0.00000000000E+00 0.  1.
<scales pt_clust_4="550.00000" pt_clust_5="550.00000" pt_clust_6="43.82979"></scales>
<mgrwt>
<rscale>  0 0.30000000E+03</rscale>
<asrwt>  1 0.43829790E+02</asrwt>
<pdfrwt beam="1">  1        1 0.90473472E+00 0.30000000E+03</pdfrwt>
<pdfrwt beam="2">0</pdfrwt>
<totfact> 0.89751775E-05</totfact>
</mgrwt>
<clustering>
<clus scale="   43.830">  1  6  2 -1</clus>
<clus scale="  463.581">  4  5 -1 -1</clus>
<clus scale="  300.000">  1  4  2 -1</clus>
</clustering>
</event>
<event>
 6    1  0.9462926E-012  0.3000000E+03  0.7818608E-02  0.1093470E+00
          1   -1    0    0  502    0  0.00000000000E+00  0.00000000000E+00  0.24896609582E+03  0.24896609582E+03  0.00000000000E+00 0.  1.
         13   -1    0    0    0    0 -0.00000000000E+00 -0.00000000000E+00 -0.27500000000E+03  0.27500000000E+03  0.00000000000E+00 0.  1.
    9000005    2    1    2  501    0 -0.60501404570E+00  0.31350022179E+02 -0.35254549193E+02  0.49128261028E+03  0.48901178921E+03 0.  0.
         13    1    3    3    0    0 -0.12172793481E+03 -0.14815799792E+03  0.11875982677E+03  0.22554906099E+03  0.00000000000E+00 0.  1.
          1    1    3    3  501    0  0.12112292076E+03  0.17950802010E+03 -0.15401437596E+03  0.26573354929E+03  0.00000000000E+00 0.  1.
         21    1    1    2  502  501  0.60501404570E+00 -0.31350022179E+02  0.92206450098E+01  0.32683485540E+02  0.00000000000E+00 0.  1.
<scales pt_clust_4="550.00000" pt_clust_5="550.00000" pt_clust_6="31.35586"></scales>
<mgrwt>
<rscale>  0 0.30000000E+03</rscale>
<asrwt>  1 0.31355860E+02</asrwt>
<pdfrwt beam="1">  1        1 0.90533126E+00 0.30000000E+03</pdfrwt>
<pdfrwt beam="2">0</pdfrwt>
<totfact> 0.93038476E-05</totfact>
</mgrwt>
<clustering>
<clus scale="   31.356">  1  6  2 -1</clus>
<clus scale="  489.012">  4  5 -1 -1</clus>
<clus scale="  300.000">  1  4  2 -1</clus>
</clustering>
</event>
<event>
 6    1  0.9462926E-012  0.3000000E+03  0.7818608E-02  0.1093470E+00
          1   -1    0    0  502    0  0.00000000000E+00  0.00000000000E+00  0.23853326588E+03  0.23853326588E+03  0.00000000000E+00 0.  1.
         13   -1    0    0    0    0 -0.00000000000E+00 -0.00000000000E+00 -0.27500000000E+03  0.27500000000E+03  0.00000000000E+00 0.  1.
    9000005    2    1    2  501    0  0.62081916516E+01  0.52260570901E+02 -0.30349944273E+02  0.46055096665E+03  0.45652641199E+03 0.  0.
         13    1    3    3    0    0 -0.19047988851E+03  0.64461092177E+02  0.99690446463E+02  0.22444599673E+03  0.00000000000E+00 0.  1.
          1    1    3    3  501    0  0.19668808016E+03 -0.12200521276E+02 -0.13004039074E+03  0.23610496992E+03  0.00000000000E+00 0.  1.
         21    1    1    2  502  501 -0.62081916516E+01 -0.52260570901E+02 -0.61167898428E+01  0.52982299237E+02  0.00000000000E+00 0. -1.
<scales pt_clust_4="550.00000" pt_clust_5="550.00000" pt_clust_6="52.62805"></scales>
<mgrwt>
<rscale>  0 0.30000000E+03</rscale>
<asrwt>  1 0.52628050E+02</asrwt>
<pdfrwt beam="1">  1        1 0.86739369E+00 0.30000000E+03</pdfrwt>
<pdfrwt beam="2">0</pdfrwt>
<totfact> 0.25034275E-04</totfact>
</mgrwt>
<clustering>
<clus scale="   52.628">  1  6  2 -1</clus>
<clus scale="  456.526">  4  5 -1 -1</clus>
<clus scale="  300.000">  1  4  2 -1</clus>
</clustering>
</event>
<event>
 6    1  0.9462926E-012  0.3000000E+03  0.7818608E-02  0.1093470E+00
          1   -1    0    0  502    0  0.00000000000E+00  0.00000000000E+00  0.23145262347E+03  0.23145262347E+03  0.00000000000E+00 0.  1.
         13   -1    0    0    0    0 -0.00000000000E+00 -0.00000000000E+00 -0.27500000000E+03  0.27500000000E+03  0.00000000000E+00 0.  1.
    9000005    2    1    2  501    0  0.19201858619E+02 -0.23814740319E+02 -0.60119389483E+02  0.47166060076E+03  0.46681209077E+03 0.  0.
         13    1    3    3    0    0  0.24296779433E+03 -0.68902897290E+01 -0.40278074571E+02  0.24638008942E+03  0.00000000000E+00 0.  1.
          3    1    3    3  501    0 -0.22376593571E+03 -0.16924450590E+02 -0.19841314912E+02  0.22528051134E+03  0.00000000000E+00 0.  1.
         21    1    1    2  502  501 -0.19201858619E+02  0.23814740319E+02  0.16572012956E+02  0.34792022710E+02  0.00000000000E+00 0.  1.
<scales pt_clust_4="550.00000" pt_clust_5="550.00000" pt_clust_6="30.59172"></scales>
<mgrwt>
<rscale>  0 0.30000000E+03</rscale>
<asrwt>  1 0.30591718E+02</asrwt>
<pdfrwt beam="1">  1        1 0.84164590E+00 0.30000000E+03</pdfrwt>
<pdfrwt beam="2">0</pdfrwt>
<totfact> 0.49484496E-04</totfact>
</mgrwt>
<clustering>
<clus scale="   30.592">  1  6  2 -1</clus>
<clus scale="  466.812">  4  5 -1 -1</clus>
<clus scale="  300.000">  1  4  2 -1</clus>
</clustering>
</event>
<event>
 6    1  0.9462926E-012  0.3000000E+03  0.7818608E-02  0.1093470E+00
          1   -1    0    0  502    0  0.00000000000E+00  0.00000000000E+00  0.24066836575E+03  0.24066836575E+03  0.00000000000E+00 0.  1.
         13   -1    0    0    0    0 -0.00000000000E+00 -0.00000000000E+00 -0.27500000000E+03  0.27500000000E+03  0.00000000000E+00 0.  1.
    9000005    2    1    2  501    0 -0.15424356279E+02  0.27818603226E+02 -0.61749870351E+02  0.47367378130E+03  0.46855311241E+03 0.  0.
         13    1    3    3    0    0 -0.21660326480E+03 -0.68400351464E+02  0.36366028662E+02  0.23003928022E+03  0.00000000000E+00 0.  1.
          3    1    3    3  501    0  0.20117890853E+03  0.96218954690E+02 -0.98115899013E+02  0.24363450108E+03  0.00000000000E+00 0.  1.
         21    1    1    2  502  501  0.15424356279E+02 -0.27818603226E+02  0.27418236098E+02  0.41994584446E+02  0.00000000000E+00 0.  1.
<scales pt_clust_4="550.00000" pt_clust_5="550.00000" pt_clust_6="31.80858"></scales>
<mgrwt>
<rscale>  0 0.30000000E+03</rscale>
<asrwt>  1 0.31808575E+02</asrwt>
<pdfrwt beam="1">  1        1 0.87515769E+00 0.30000000E+03</pdfrwt>
<pdfrwt beam="2">0</pdfrwt>
<totfact> 0.22814265E-04</totfact>
</mgrwt>
<clustering>
<clus scale="   31.809">  1  6  2 -1</clus>
<clus scale="  468.553">  4  5 -1 -1</clus>
<clus scale="  300.000">  1  4  2 -1</clus>
</clustering>
</event>
<event>
 6    1  0.9462926E-012  0.3000000E+03  0.7818608E-02  0.1093470E+00
          1   -1    0    0  502    0  0.00000000000E+00  0.00000000000E+00  0.23670033825E+03  0.23670033825E+03  0.00000000000E+00 0.  1.
         13   -1    0    0    0    0 -0.00000000000E+00 -0.00000000000E+00 -0.27500000000E+03  0.27500000000E+03  0.00000000000E+00 0.  1.
    9000005    2    1    2  501    0  0.30148742021E+02 -0.70709652919E+01 -0.40501787651E+02  0.48065529752E+03  0.47794369442E+03 0.  0.
         13    1    3    3    0    0  0.11990128284E+03  0.20712626884E+03  0.21468290221E+02  0.24028836084E+03  0.00000000000E+00 0.  1.
          1    1    3    3  501    0 -0.89752540817E+02 -0.21419723414E+03 -0.61970077872E+02  0.24036693667E+03  0.00000000000E+00 0.  1.
         21    1    1    2  502  501 -0.30148742021E+02  0.70709652919E+01  0.22021258990E+01  0.31045040733E+02  0.00000000000E+00 0.  1.
<scales pt_clust_4="550.00000" pt_clust_5="550.00000" pt_clust_6="30.96684"></scales>
<mgrwt>
<rscale>  0 0.30000000E+03</rscale>
<asrwt>  1 0.30966840E+02</asrwt>
<pdfrwt beam="1">  1        1 0.86072850E+00 0.30000000E+03</pdfrwt>
<pdfrwt beam="2">0</pdfrwt>
<totfact> 0.32515407E-04</totfact>
</mgrwt>
<clustering>
<clus scale="   30.967">  1  6  2 -1</clus>
<clus scale="  477.944">  4  5 -1 -1</clus>
<clus scale="  300.000">  1  4  2 -1</clus>
</clustering>
</event>
<event>
 6    1  0.9462926E-012  0.3000000E+03  0.7818608E-02  0.1093470E+00
          1   -1    0    0  502    0  0.00000000000E+00  0.00000000000E+00  0.23442337123E+03  0.23442337123E+03  0.00000000000E+00 0.  1.
         13   -1    0    0    0    0 -0.00000000000E+00 -0.00000000000E+00 -0.27500000000E+03  0.27500000000E+03  0.00000000000E+00 0.  1.
    9000005    2    1    2  501    0  0.24064703192E+02 -0.34904574650E+02 -0.35347382891E+02  0.46670587735E+03  0.46343014490E+03 0.  0.
         13    1    3    3    0    0  0.47624805674E+02 -0.32505818598E+02  0.21124800025E+03  0.21897595294E+03  0.00000000000E+00 0.  1.
          1    1    3    3  501    0 -0.23560102481E+02 -0.23987560528E+01 -0.24659538314E+03  0.24772992441E+03  0.00000000000E+00 0.  1.
         21    1    1    2  502  501 -0.24064703192E+02  0.34904574650E+02 -0.52292458748E+01  0.42717493883E+02  0.00000000000E+00 0.  1.
<scales pt_clust_4="550.00000" pt_clust_5="550.00000" pt_clust_6="42.39624"></scales>
<mgrwt>
<rscale>  0 0.30000000E+03</rscale>
<asrwt>  1 0.42396239E+02</asrwt>
<pdfrwt beam="1">  1        1 0.85244862E+00 0.30000000E+03</pdfrwt>
<pdfrwt beam="2">0</pdfrwt>
<totfact> 0.37240252E-04</totfact>
</mgrwt>
<clustering>
<clus scale="   42.396">  1  6  2 -1</clus>
<clus scale="  463.430">  4  5 -1 -1</clus>
<clus scale="  300.000">  1  4  2 -1</clus>
</clustering>
</event>
<event>
 6    1  0.9462926E-012  0.3000000E+03  0.7818608E-02  0.1093470E+00
          1   -1    0    0  502    0  0.00000000000E+00  0.00000000000E+00  0.22887200799E+03  0.22887200799E+03  0.00000000000E+00 0.  1.
         13   -1    0    0    0    0 -0.00000000000E+00 -0.00000000000E+00 -0.27500000000E+03  0.27500000000E+03  0.00000000000E+00 0.  1.
    9000005    2    1    2  501    0  0.33759134935E+02  0.10404755716E+02 -0.67448060125E+02  0.46261084662E+03  0.45630211096E+03 0.  0.
         13    1    3    3    0    0 -0.11282419448E+03  0.12294239653E+02 -0.22216405699E+03  0.24947407763E+03  0.00000000000E+00 0.  1.
          1    1    3    3  501    0  0.14658332942E+03 -0.18894839374E+01  0.15471599686E+03  0.21313676900E+03  0.00000000000E+00 0.  1.
         21    1    1    2  502  501 -0.33759134935E+02 -0.10404755716E+02  0.21320068119E+02  0.41261161371E+02  0.00000000000E+00 0.  1.
<scales pt_clust_4="550.00000" pt_clust_5="550.00000" pt_clust_6="35.32617"></scales>
<mgrwt>
<rscale>  0 0.30000000E+03</rscale>
<asrwt>  1 0.35326168E+02</asrwt>
<pdfrwt beam="1">  1        1 0.83226185E+00 0.30000000E+03</pdfrwt>
<pdfrwt beam="2">0</pdfrwt>
<totfact> 0.56606186E-04</totfact>
</mgrwt>
<clustering>
<clus scale="   35.326">  1  6  2 -1</clus>
<clus scale="  456.302">  4  5 -1 -1</clus>
<clus scale="  300.000">  1  4  2 -1</clus>
</clustering>
</event>
<event>
 6    1  0.9462926E-012  0.3000000E+03  0.7818608E-02  0.1093470E+00
          1   -1    0    0  502    0  0.00000000000E+00  0.00000000000E+00  0.24740141259E+03  0.24740141259E+03  0.00000000000E+00 0.  1.
         13   -1    0    0    0    0 -0.00000000000E+00 -0.00000000000E+00 -0.27500000000E+03  0.27500000000E+03  0.00000000000E+00 0.  1.
    9000005    2    1    2  501    0 -0.30237725494E+02 -0.23509589264E+02 -0.40523342027E+02  0.48197777950E+03  0.47874149377E+03 0.  0.
         13    1    3    3    0    0 -0.73137563951E+02  0.22019007930E+03 -0.33556077128E+02  0.23443289998E+03  0.00000000000E+00 0.  1.
          3    1    3    3  501    0  0.42899838458E+02 -0.24369966856E+03 -0.69672648993E+01  0.24754487952E+03  0.00000000000E+00 0.  1.
         21    1    1    2  502  501  0.30237725494E+02  0.23509589264E+02  0.12924754620E+02  0.40423633093E+02  0.00000000000E+00 0. -1.
<scales pt_clust_4="550.00000" pt_clust_5="550.00000" pt_clust_6="38.30171"></scales>
<mgrwt>
<rscale>  0 0.30000000E+03</rscale>
<asrwt>  1 0.38301708E+02</asrwt>
<pdfrwt beam="1">  1        1 0.89964150E+00 0.30000000E+03</pdfrwt>
<pdfrwt beam="2">0</pdfrwt>
<totfact> 0.10973035E-04</totfact>
</mgrwt>
<clustering>
<clus scale="   38.302">  1  6  2 -1</clus>
<clus scale="  478.741">  4  5 -1 -1</clus>
<clus scale="  300.000">  1  4  2 -1</clus>
</clustering>
</event>
<event>
 6    1  0.9462926E-012  0.3000000E+03  0.7818608E-02  0.1093470E+00
          1   -1    0    0  502    0  0.00000000000E+00  0.00000000000E+00  0.22011443243E+03  0.22011443243E+03  0.00000000000E+00 0.  1.
         13   -1    0    0    0    0 -0.00000000000E+00 -0.00000000000E+00 -0.27500000000E+03  0.27500000000E+03  0.00000000000E+00 0.  1.
    9000005    2    1    2  501    0  0.14405826797E+02  0.29529540317E+02 -0.43847168853E+02  0.46045367879E+03  0.45718212399E+03 0.  0.
         13    1    3    3    0    0  0.18293882362E+03  0.47530466686E+02  0.12066997610E+03  0.22424763451E+03  0.00000000000E+00 0.  1.
          1    1    3    3  501    0 -0.16853299682E+03 -0.18000926370E+02 -0.16451714496E+03  0.23620604428E+03  0.00000000000E+00 0.  1.
         21    1    1    2  502  501 -0.14405826797E+02 -0.29529540317E+02 -0.11038398714E+02  0.34660753644E+02  0.00000000000E+00 0.  1.
<scales pt_clust_4="550.00000" pt_clust_5="550.00000" pt_clust_6="32.85609"></scales>
<mgrwt>
<rscale>  0 0.30000000E+03</rscale>
<asrwt>  1 0.32856090E+02</asrwt>
<pdfrwt beam="1">  1        1 0.80041612E+00 0.30000000E+03</pdfrwt>
<pdfrwt beam="2">0</pdfrwt>
<totfact> 0.10421829E-03</totfact>
</mgrwt>
<clustering>
<clus scale="   32.856">  1  6  2 -1</clus>
<clus scale="  457.182">  4  5 -1 -1</clus>
<clus scale="  300.000">  1  4  2 -1</clus>
</clustering>
</event>
<event>
 6    1  0.9462926E-012  0.3000000E+03  0.7818608E-02  0.1093470E+00
          1   -1    0    0  502    0  0.00000000000E+00  0.00000000000E+00  0.22377817310E+03  0.22377817310E+03  0.00000000000E+00 0.  1.
         13   -1    0    0    0    0 -0.00000000000E+00 -0.00000000000E+00 -0.27500000000E+03  0.27500000000E+03  0.00000000000E+00 0.  1.
    9000005    2    1    2  501    0 -0.22929120596E+01 -0.34866090529E+02 -0.47604703249E+02  0.46365004622E+03  0.45987417396E+03 0.  0.
         13    1    3    3    0    0  0.15476458586E+03 -0.18683428372E+03 -0.28345797693E+02  0.24425931069E+03  0.00000000000E+00 0.  1.
          3    1    3    3  501    0 -0.15705749792E+03  0.15196819319E+03 -0.19258905556E+02  0.21939073553E+03  0.00000000000E+00 0.  1.
         21    1    1    2  502  501  0.22929120596E+01  0.34866090529E+02 -0.36171236540E+01  0.35128126879E+02  0.00000000000E+00 0.  1.
<scales pt_clust_4="550.00000" pt_clust_5="550.00000" pt_clust_6="34.94142"></scales>
<mgrwt>
<rscale>  0 0.30000000E+03</rscale>
<asrwt>  1 0.34941421E+02</asrwt>
<pdfrwt beam="1">  1        1 0.81373881E+00 0.30000000E+03</pdfrwt>
<pdfrwt beam="2">0</pdfrwt>
<totfact> 0.81510453E-04</totfact>
</mgrwt>
<clustering>
<clus scale="   34.941">  1  6  2 -1</clus>
<clus scale="  459.874">  4  5 -1 -1</clus>
<clus scale="  300.000">  1  4  2 -1</clus>
</clustering>
</event>
<event>
 6    1  0.9462926E-012  0.3000000E+03  0.7818608E-02  0.1093470E+00
          1   -1    0    0  502    0  0.00000000000E+00  0.00000000000E+00  0.23870310086E+03  0.23870310086E+03  0.00000000000E+00 0.  1.
         13   -1    0    0    0    0 -0.00000000000E+00 -0.00000000000E+00 -0.27500000000E+03  0.27500000000E+03  0.00000000000E+00 0.  1.
    9000005    2    1    2  501    0  0.50323029839E+02  0.56044415247E+01 -0.38124463794E+02  0.46303598046E+03  0.45867747641E+03 0.  0.
         13    1    3    3    0    0 -0.31873872623E+01  0.18051482755E+03 -0.16163733993E+03  0.24232703535E+03  0.00000000000E+00 0.  1.
          1    1    3    3  501    0  0.53510417101E+02 -0.17491038603E+03  0.12351287613E+03  0.22070894511E+03  0.00000000000E+00 0.  1.
         21    1    1    2  502  501 -0.50323029839E+02 -0.56044415247E+01  0.18275646531E+01  0.50667120399E+02  0.00000000000E+00 0. -1.
<scales pt_clust_4="550.00000" pt_clust_5="550.00000" pt_clust_6="50.63415"></scales>
<mgrwt>
<rscale>  0 0.30000000E+03</rscale>
<asrwt>  1 0.50634150E+02</asrwt>
<pdfrwt beam="1">  1        1 0.86801128E+00 0.30000000E+03</pdfrwt>
<pdfrwt beam="2">0</pdfrwt>
<totfact> 0.24832508E-04</totfact>
</mgrwt>
<clustering>
<clus scale="   50.634">  1  6  2 -1</clus>
<clus scale="  458.677">  4  5 -1 -1</clus>
<clus scale="  300.000">  1  4  2 -1</clus>
</clustering>
</event>
<event>
 6    1  0.9462926E-012  0.3000000E+03  0.7818608E-02  0.1093470E+00
          1   -1    0    0  502    0  0.00000000000E+00  0.00000000000E+00  0.24238237191E+03  0.24238237191E+03  0.00000000000E+00 0.  1.
         13   -1    0    0    0    0 -0.00000000000E+00 -0.00000000000E+00 -0.27500000000E+03  0.27500000000E+03  0.00000000000E+00 0.  1.
    9000005    2    1    2  501    0 -0.39965003441E+02 -0.18642774142E+02 -0.35920691667E+02  0.47315947336E+03  0.46972847115E+03 0.  0.
         13    1    3    3    0    0 -0.10013764900E+03  0.20797899042E+03  0.21278208155E+02  0.23180934266E+03  0.00000000000E+00 0.  1.
          1    1    3    3  501    0  0.60172645554E+02 -0.22662176456E+03 -0.57198899822E+02  0.24135013070E+03  0.00000000000E+00 0.  1.
         21    1    1    2  502  501  0.39965003441E+02  0.18642774142E+02  0.33030635816E+01  0.44222898557E+02  0.00000000000E+00 0.  1.
<scales pt_clust_4="550.00000" pt_clust_5="550.00000" pt_clust_6="44.09937"></scales>
<mgrwt>
<rscale>  0 0.30000000E+03</rscale>
<asrwt>  1 0.44099371E+02</asrwt>
<pdfrwt beam="1">  1        1 0.88139044E+00 0.30000000E+03</pdfrwt>
<pdfrwt beam="2">0</pdfrwt>
<totfact> 0.18172872E-04</totfact>
</mgrwt>
<clustering>
<clus scale="   44.099">  1  6  2 -1</clus>
<clus scale="  469.728">  4  5 -1 -1</clus>
<clus scale="  300.000">  1  4  2 -1</clus>
</clustering>
</event>
<event>
 6    1  0.9462926E-012  0.3000000E+03  0.7818608E-02  0.1093470E+00
          1   -1    0    0  502    0  0.00000000000E+00  0.00000000000E+00  0.23174505783E+03  0.23174505783E+03  0.00000000000E+00 0.  1.
         13   -1    0    0    0    0 -0.00000000000E+00 -0.00000000000E+00 -0.27500000000E+03  0.27500000000E+03  0.00000000000E+00 0.  1.
    9000005    2    1    2  501    0 -0.28376200556E+02 -0.22669305405E+02 -0.49742118141E+02  0.46985075451E+03  0.46579646524E+03 0.  0.
         13    1    3    3    0    0 -0.78454690656E+02 -0.29139502120E+02 -0.24983747200E+03  0.26348246903E+03  0.00000000000E+00 0.  1.
          3    1    3    3  501    0  0.50078490100E+02  0.64701967145E+01  0.20009535386E+03  0.20636828548E+03  0.00000000000E+00 0.  1.
         21    1    1    2  502  501  0.28376200556E+02  0.22669305405E+02  0.64871759755E+01  0.36894303323E+02  0.00000000000E+00 0. -1.
<scales pt_clust_4="550.00000" pt_clust_5="550.00000" pt_clust_6="36.31950"></scales>
<mgrwt>
<rscale>  0 0.30000000E+03</rscale>
<asrwt>  1 0.36319501E+02</asrwt>
<pdfrwt beam="1">  1        1 0.84270930E+00 0.30000000E+03</pdfrwt>
<pdfrwt beam="2">0</pdfrwt>
<totfact> 0.46944711E-04</totfact>
</mgrwt>
<clustering>
<clus scale="   36.320">  1  6  2 -1</clus>
<clus scale="  465.796">  4  5 -1 -1</clus>
<clus scale="  300.000">  1  4  2 -1</clus>
</clustering>
</event>
<event>
 6    1  0.9462926E-012  0.3000000E+03  0.7818608E-02  0.1093470E+00
          1   -1    0    0  502    0  0.00000000000E+00  0.00000000000E+00  0.22776935694E+03  0.22776935694E+03  0.00000000000E+00 0.  1.
         13   -1    0    0    0    0 -0.00000000000E+00 -0.00000000000E+00 -0.27500000000E+03  0.27500000000E+03  0.00000000000E+00 0.  1.
    9000005    2    1    2  501    0 -0.23474950249E+02  0.28832377250E+02 -0.33732384631E+02  0.46321455638E+03  0.46048612596E+03 0.  0.
         13    1    3    3    0    0 -0.86374469654E+02 -0.63469520225E+02 -0.22074096982E+03  0.24538847724E+03  0.00000000000E+00 0.  1.
          1    1    3    3  501    0  0.62899519405E+02  0.92301897475E+02  0.18700858519E+03  0.21782607914E+03  0.00000000000E+00 0.  1.
         21    1    1    2  502  501  0.23474950249E+02 -0.28832377250E+02 -0.13498258425E+02  0.39554800563E+02  0.00000000000E+00 0.  1.
<scales pt_clust_4="550.00000" pt_clust_5="550.00000" pt_clust_6="37.18038"></scales>
<mgrwt>
<rscale>  0 0.30000000E+03</rscale>
<asrwt>  1 0.37180380E+02</asrwt>
<pdfrwt beam="1">  1        1 0.82825221E+00 0.30000000E+03</pdfrwt>
<pdfrwt beam="2">0</pdfrwt>
<totfact> 0.60463279E-04</totfact>
</mgrwt>
<clustering>
<clus scale="   37.180">  1  6  2 -1</clus>
<clus scale="  460.486">  4  5 -1 -1</clus>
<clus scale="  300.000">  1  4  2 -1</clus>
</clustering>
</event>
<event>
 6    1  0.9462926E-012  0.3000000E+03  0.7818608E-02  0.1093470E+00
          1   -1    0    0  502    0  0.00000000000E+00  0.00000000000E+00  0.23147917756E+03  0.23147917756E+03  0.00000000000E+00 0.  1.
         13   -1    0    0    0    0 -0.00000000000E+00 -0.00000000000E+00 -0.27500000000E+03  0.27500000000E+03  0.00000000000E+00 0.  1.
    9000005    2    1    2  501    0  0.13915944820E+02  0.27445973199E+02 -0.70325267189E+02  0.46566970288E+03  0.45929913348E+03 0.  0.
         13    1    3    3    0    0  0.17661399019E+03 -0.13280267767E+03  0.15958508232E+02  0.22154847486E+03  0.00000000000E+00 0.  1.
          3    1    3    3  501    0 -0.16269804537E+03  0.16024865087E+03 -0.86283775421E+02  0.24412122803E+03  0.00000000000E+00 0.  1.
         21    1    1    2  502  501 -0.13915944820E+02 -0.27445973199E+02  0.26804444747E+02  0.40809474676E+02  0.00000000000E+00 0. -1.
<scales pt_clust_4="550.00000" pt_clust_5="550.00000" pt_clust_6="30.77231"></scales>
<mgrwt>
<rscale>  0 0.30000000E+03</rscale>
<asrwt>  1 0.30772308E+02</asrwt>
<pdfrwt beam="1">  1        1 0.84174246E+00 0.30000000E+03</pdfrwt>
<pdfrwt beam="2">0</pdfrwt>
<totfact> 0.49338917E-04</totfact>
</mgrwt>
<clustering>
<clus scale="   30.772">  1  6  2 -1</clus>
<clus scale="  459.299">  4  5 -1 -1</clus>
<clus scale="  300.000">  1  4  2 -1</clus>
</clustering>
</event>
<event>
 6    1  0.9462926E-012  0.3000000E+03  0.7818608E-02  0.1093470E+00
          1   -1    0    0  502    0  0.00000000000E+00  0.00000000000E+00  0.23776314930E+03  0.23776314930E+03  0.00000000000E+00 0.  1.
         13   -1    0    0    0    0 -0.00000000000E+00 -0.00000000000E+00 -0.27500000000E+03  0.27500000000E+03  0.00000000000E+00 0.  1.
    9000005    2    1    2  501    0 -0.29746420449E+02 -0.85909902673E+01 -0.71836864928E+02  0.46633238765E+03  0.45972459795E+03 0.  0.
         13    1    3    3    0    0  0.31397554574E+02 -0.15810651116E+03  0.13051860171E+03  0.20740921073E+03  0.00000000000E+00 0.  1.
          1    1    3    3  501    0 -0.61143975023E+02  0.14951552089E+03 -0.20235546663E+03  0.25892317692E+03  0.00000000000E+00 0.  1.
         21    1    1    2  502  501  0.29746420449E+02  0.85909902673E+01  0.34600014232E+02  0.46430761659E+02  0.00000000000E+00 0.  1.
<scales pt_clust_4="550.00000" pt_clust_5="550.00000" pt_clust_6="30.96215"></scales>
<mgrwt>
<rscale>  0 0.30000000E+03</rscale>
<asrwt>  1 0.30962149E+02</asrwt>
<pdfrwt beam="1">  1        1 0.86459327E+00 0.30000000E+03</pdfrwt>
<pdfrwt beam="2">0</pdfrwt>
<totfact> 0.29536993E-04</totfact>
</mgrwt>
<clustering>
<clus scale="   30.962">  1  6  2 -1</clus>
<clus scale="  459.725">  4  5 -1 -1</clus>
<clus scale="  300.000">  1  4  2 -1</clus>
</clustering>
</event>
<event>
 6    1  0.9462926E-012  0.3000000E+03  0.7818608E-02  0.1093470E+00
          1   -1    0    0  502    0  0.00000000000E+00  0.00000000000E+00  0.24197795618E+03  0.24197795618E+03  0.00000000000E+00 0.  1.
         13   -1    0    0    0    0 -0.00000000000E+00 -0.00000000000E+00 -0.27500000000E+03  0.27500000000E+03  0.00000000000E+00 0.  1.
    9000005    2    1    2  501    0  0.18783823683E+02  0.35019637893E+02 -0.33742390315E+02  0.47723218949E+03  0.47437622908E+03 0.  0.
         13    1    3    3    0    0 -0.23871212731E+02  0.24829852622E+03  0.28326774511E+02  0.25104660737E+03  0.00000000000E+00 0.  1.
          1    1    3    3  501    0  0.42655036414E+02 -0.21327888832E+03 -0.62069164826E+02  0.22618558212E+03  0.00000000000E+00 0.  1.
         21    1    1    2  502  501 -0.18783823683E+02 -0.35019637893E+02  0.72034649141E+00  0.39745766685E+02  0.00000000000E+00 0.  1.
<scales pt_clust_4="550.00000" pt_clust_5="550.00000" pt_clust_6="39.73924"></scales>
<mgrwt>
<rscale>  0 0.30000000E+03</rscale>
<asrwt>  1 0.39739238E+02</asrwt>
<pdfrwt beam="1">  1        1 0.87991984E+00 0.30000000E+03</pdfrwt>
<pdfrwt beam="2">0</pdfrwt>
<totfact> 0.19323571E-04</totfact>
</mgrwt>
<clustering>
<clus scale="   39.739">  1  6  2 -1</clus>
<clus scale="  474.376">  4  5 -1 -1</clus>
<clus scale="  300.000">  1  4  2 -1</clus>
</clustering>
</event>
<event>
 6    1  0.9462926E-012  0.3000000E+03  0.7818608E-02  0.1093470E+00
          1   -1    0    0  502    0  0.00000000000E+00  0.00000000000E+00  0.23564747556E+03  0.23564747556E+03  0.00000000000E+00 0.  1.
         13   -1    0    0    0    0 -0.00000000000E+00 -0.00000000000E+00 -0.27500000000E+03  0.27500000000E+03  0.00000000000E+00 0.  1.
    9000005    2    1    2  501    0  0.14906922702E+02  0.40992009841E+02 -0.59908642536E+02  0.46242802713E+03  0.45645161147E+03 0.  0.
         13    1    3    3    0    0 -0.93984494901E+02 -0.18021339617E+03 -0.71875906354E+02  0.21558316111E+03  0.00000000000E+00 0.  1.
          1    1    3    3  501    0  0.10889141760E+03  0.22120540601E+03  0.11967263819E+02  0.24684486602E+03  0.00000000000E+00 0.  1.
         21    1    1    2  502  501 -0.14906922702E+02 -0.40992009841E+02  0.20556118095E+02  0.48219448425E+02  0.00000000000E+00 0. -1.
<scales pt_clust_4="550.00000" pt_clust_5="550.00000" pt_clust_6="43.61836"></scales>
<mgrwt>
<rscale>  0 0.30000000E+03</rscale>
<asrwt>  1 0.43618359E+02</asrwt>
<pdfrwt beam="1">  1        1 0.85689991E+00 0.30000000E+03</pdfrwt>
<pdfrwt beam="2">0</pdfrwt>
<totfact> 0.33481320E-04</totfact>
</mgrwt>
<clustering>
<clus scale="   43.618">  1  6  2 -1</clus>
<clus scale="  456.452">  4  5 -1 -1</clus>
<clus scale="  300.000">  1  4  2 -1</clus>
</clustering>
</event>
<event>
 6    1  0.9462926E-012  0.3000000E+03  0.7818608E-02  0.1093470E+00
          1   -1    0    0  502    0  0.00000000000E+00  0.00000000000E+00  0.22893631783E+03  0.22893631783E+03  0.00000000000E+00 0.  1.
         13   -1    0    0    0    0 -0.00000000000E+00 -0.00000000000E+00 -0.27500000000E+03  0.27500000000E+03  0.00000000000E+00 0.  1.
    9000005    2    1    2  501    0  0.25459485146E+02  0.18143771669E+02 -0.39646438999E+02  0.47202138646E+03  0.46931329335E+03 0.  0.
         13    1    3    3    0    0 -0.18099470434E+03  0.11181821827E+03 -0.10335787538E+03  0.23652747692E+03  0.00000000000E+00 0.  1.
          1    1    3    3  501    0  0.20645418949E+03 -0.93674446598E+02  0.63711436385E+02  0.23549390953E+03  0.00000000000E+00 0.  1.
         21    1    1    2  502  501 -0.25459485146E+02 -0.18143771669E+02 -0.64172431755E+01  0.31914931369E+02  0.00000000000E+00 0.  1.
<scales pt_clust_4="550.00000" pt_clust_5="550.00000" pt_clust_6="31.26312"></scales>
<mgrwt>
<rscale>  0 0.30000000E+03</rscale>
<asrwt>  1 0.31263122E+02</asrwt>
<pdfrwt beam="1">  1        1 0.83249570E+00 0.30000000E+03</pdfrwt>
<pdfrwt beam="2">0</pdfrwt>
<totfact> 0.57689106E-04</totfact>
</mgrwt>
<clustering>
<clus scale="   31.263">  1  6  2 -1</clus>
<clus scale="  469.313">  4  5 -1 -1</clus>
<clus scale="  300.000">  1  4  2 -1</clus>
</clustering>
</event>
<event>
 6    1  0.9462926E-012  0.3000000E+03  0.7818608E-02  0.1093470E+00
          1   -1    0    0  502    0  0.00000000000E+00  0.00000000000E+00  0.23636317295E+03  0.23636317295E+03  0.00000000000E+00 0.  1.
         13   -1    0    0    0    0 -0.00000000000E+00 -0.00000000000E+00 -0.27500000000E+03  0.27500000000E+03  0.00000000000E+00 0.  1.
    9000005    2    1    2  501    0  0.33345175386E+01 -0.33723817121E+02 -0.56120338375E+02  0.47323066691E+03  0.46866764010E+03 0.  0.
         13    1    3    3    0    0 -0.18904708547E+03 -0.78596063816E+02 -0.15069370296E+03  0.25421395297E+03  0.00000000000E+00 0.  1.
          1    1    3    3  501    0  0.19238160300E+03  0.44872246695E+02  0.94573364587E+02  0.21901671394E+03  0.00000000000E+00 0.  1.
         21    1    1    2  502  501 -0.33345175386E+01  0.33723817121E+02  0.17483511324E+02  0.38132506037E+02  0.00000000000E+00 0. -1.
<scales pt_clust_4="550.00000" pt_clust_5="550.00000" pt_clust_6="33.88827"></scales>
<mgrwt>
<rscale>  0 0.30000000E+03</rscale>
<asrwt>  1 0.33888270E+02</asrwt>
<pdfrwt beam="1">  1        1 0.85950245E+00 0.30000000E+03</pdfrwt>
<pdfrwt beam="2">0</pdfrwt>
<totfact> 0.32942099E-04</totfact>
</mgrwt>
<clustering>
<clus scale="   33.888">  1  6  2 -1</clus>
<clus scale="  468.668">  4  5 -1 -1</clus>
<clus scale="  300.000">  1  4  2 -1</clus>
</clustering>
</event>
<event>
 6    1  0.9462926E-012  0.3000000E+03  0.7818608E-02  0.1093470E+00
          1   -1    0    0  502    0  0.00000000000E+00  0.00000000000E+00  0.23581817173E+03  0.23581817173E+03  0.00000000000E+00 0.  1.
         13   -1    0    0    0    0 -0.00000000000E+00 -0.00000000000E+00 -0.27500000000E+03  0.27500000000E+03  0.00000000000E+00 0.  1.
    9000005    2    1    2  501    0 -0.19628381051E+02 -0.28216281657E+02 -0.12212451656E+02  0.46712859439E+03  0.46570220939E+03 0.  0.
         13    1    3    3    0    0 -0.19784411952E+03  0.77705009785E+02  0.96044778699E+02  0.23324871637E+03  0.00000000000E+00 0.  1.
          3    1    3    3  501    0  0.17821573847E+03 -0.10592129144E+03 -0.10825723035E+03  0.23387987802E+03  0.00000000000E+00 0.  1.
         21    1    1    2  502  501  0.19628381051E+02  0.28216281657E+02 -0.26969376613E+02  0.43689577339E+02  0.00000000000E+00 0. -1.
<scales pt_clust_4="550.00000" pt_clust_5="550.00000" pt_clust_6="34.37198"></scales>
<mgrwt>
<rscale>  0 0.30000000E+03</rscale>
<asrwt>  1 0.34371981E+02</asrwt>
<pdfrwt beam="1">  1        1 0.85752062E+00 0.30000000E+03</pdfrwt>
<pdfrwt beam="2">0</pdfrwt>
<totfact> 0.34466554E-04</totfact>
</mgrwt>
<clustering>
<clus scale="   34.372">  1  6  2 -1</clus>
<clus scale="  465.702">  4  5 -1 -1</clus>
<clus scale="  300.000">  1  4  2 -1</clus>
</clustering>
</event>
<event>
 6    1  0.9462926E-012  0.3000000E+03  0.7818608E-02  0.1093470E+00
          1   -1    0    0  502    0  0.00000000000E+00  0.00000000000E+00  0.23222584919E+03  0.23222584919E+03  0.00000000000E+00 0.  1.
         13   -1    0    0    0    0 -0.00000000000E+00 -0.00000000000E+00 -0.27500000000E+03  0.27500000000E+03  0.00000000000E+00 0.  1.
    9000005    2    1    2  501    0  0.92180416621E+01  0.36587538663E+02 -0.43904222201E+02  0.46947803682E+03  0.46589529516E+03 0.  0.
         13    1    3    3    0    0  0.38163006735E+02 -0.83211165098E+02  0.18673905989E+03  0.20797112677E+03  0.00000000000E+00 0.  1.
          3    1    3    3  501    0 -0.28944965073E+02  0.11979870376E+03 -0.23064328210E+03  0.26150691005E+03  0.00000000000E+00 0.  1.
         21    1    1    2  502  501 -0.92180416621E+01 -0.36587538663E+02  0.11300713904E+01  0.37747812372E+02  0.00000000000E+00 0.  1.
<scales pt_clust_4="550.00000" pt_clust_5="550.00000" pt_clust_6="37.73089"></scales>
<mgrwt>
<rscale>  0 0.30000000E+03</rscale>
<asrwt>  1 0.37730893E+02</asrwt>
<pdfrwt beam="1">  1        1 0.84445763E+00 0.30000000E+03</pdfrwt>
<pdfrwt beam="2">0</pdfrwt>
<totfact> 0.45042750E-04</totfact>
</mgrwt>
<clustering>
<clus scale="   37.731">  1  6  2 -1</clus>
<clus scale="  465.895">  4  5 -1 -1</clus>
<clus scale="  300.000">  1  4  2 -1</clus>
</clustering>
</event>
<event>
 6    1  0.9462926E-012  0.3000000E+03  0.7818608E-02  0.1093470E+00
          1   -1    0    0  502    0  0.00000000000E+00  0.00000000000E+00  0.23233897196E+03  0.23233897196E+03  0.00000000000E+00 0.  1.
         13   -1    0    0    0    0 -0.00000000000E+00 -0.00000000000E+00 -0.27500000000E+03  0.27500000000E+03  0.00000000000E+00 0.  1.
    9000005    2    1    2  501    0 -0.53616584080E+01 -0.30719417769E+02 -0.51456446151E+02  0.47493851843E+03  0.47111187677E+03 0.  0.
         13    1    3    3    0    0 -0.11468026850E+03 -0.21930296372E+03 -0.67060519725E+02  0.25640293911E+03  0.00000000000E+00 0.  1.
          1    1    3    3  501    0  0.10931861009E+03  0.18858354595E+03  0.15604073573E+02  0.21853557932E+03  0.00000000000E+00 0.  1.
         21    1    1    2  502  501  0.53616584080E+01  0.30719417769E+02  0.87954181080E+01  0.32400453526E+02  0.00000000000E+00 0. -1.
<scales pt_clust_4="550.00000" pt_clust_5="550.00000" pt_clust_6="31.18381"></scales>
<mgrwt>
<rscale>  0 0.30000000E+03</rscale>
<asrwt>  1 0.31183810E+02</asrwt>
<pdfrwt beam="1">  1        1 0.84486899E+00 0.30000000E+03</pdfrwt>
<pdfrwt beam="2">0</pdfrwt>
<totfact> 0.46301204E-04</totfact>
</mgrwt>
<clustering>
<clus scale="   31.184">  1  6  2 -1</clus>
<clus scale="  471.112">  4  5 -1 -1</clus>
<clus scale="  300.000">  1  4  2 -1</clus>
</clustering>
</event>
<event>
 6    1  0.9462926E-012  0.3000000E+03  0.7818608E-02  0.1093470E+00
          1   -1    0    0  502    0  0.00000000000E+00  0.00000000000E+00  0.26032519890E+03  0.26032519890E+03  0.00000000000E+00 0.  1.
         13   -1    0    0    0    0 -0.00000000000E+00 -0.00000000000E+00 -0.27500000000E+03  0.27500000000E+03  0.00000000000E+00 0.  1.
    9000005    2    1    2  501    0 -0.16414329015E+02  0.36420557902E+02 -0.64197249632E+02  0.47169847383E+03  0.46559883603E+03 0.  0.
         13    1    3    3    0    0 -0.10053972269E+03  0.65560051046E+02 -0.24351925694E+03  0.27149214469E+03  0.00000000000E+00 0.  1.
          1    1    3    3  501    0  0.84125393675E+02 -0.29139493144E+02  0.17932200730E+03  0.20020632913E+03  0.00000000000E+00 0.  1.
         21    1    1    2  502  501  0.16414329015E+02 -0.36420557902E+02  0.49522448533E+02  0.63626725074E+02  0.00000000000E+00 0.  1.
<scales pt_clust_4="550.00000" pt_clust_5="550.00000" pt_clust_6="39.94856"></scales>
<mgrwt>
<rscale>  0 0.30000000E+03</rscale>
<asrwt>  1 0.39948557E+02</asrwt>
<pdfrwt beam="1">  1        1 0.94663709E+00 0.30000000E+03</pdfrwt>
<pdfrwt beam="2">0</pdfrwt>
<totfact> 0.14091127E-05</totfact>
</mgrwt>
<clustering>
<clus scale="   39.949">  1  6  2 -1</clus>
<clus scale="  465.599">  4  5 -1 -1</clus>
<clus scale="  300.000">  1  4  2 -1</clus>
</clustering>
</event>
<event>
 6    1  0.9462926E-012  0.3000000E+03  0.7818608E-02  0.1093470E+00
          1   -1    0    0  502    0  0.00000000000E+00  0.00000000000E+00  0.24557703200E+03  0.24557703200E+03  0.00000000000E+00 0.  1.
         13   -1    0    0    0    0 -0.00000000000E+00 -0.00000000000E+00 -0.27500000000E+03  0.27500000000E+03  0.00000000000E+00 0.  1.
    9000005    2    1    2  501    0  0.16039483582E+02 -0.30778540421E+02 -0.54415142752E+02  0.47780797329E+03  0.47342884153E+03 0.  0.
         13    1    3    3    0    0 -0.21411430367E+03  0.43753569347E+02  0.32097101600E+02  0.22088352993E+03  0.00000000000E+00 0.  1.
          3    1    3    3  501    0  0.23015378725E+03 -0.74532109767E+02 -0.86512244352E+02  0.25692444336E+03  0.00000000000E+00 0.  1.
         21    1    1    2  502  501 -0.16039483582E+02  0.30778540421E+02  0.24992174756E+02  0.42769058711E+02  0.00000000000E+00 0.  1.
<scales pt_clust_4="550.00000" pt_clust_5="550.00000" pt_clust_6="34.70711"></scales>
<mgrwt>
<rscale>  0 0.30000000E+03</rscale>
<asrwt>  1 0.34707111E+02</asrwt>
<pdfrwt beam="1">  1        1 0.89300739E+00 0.30000000E+03</pdfrwt>
<pdfrwt beam="2">0</pdfrwt>
<totfact> 0.13310825E-04</totfact>
</mgrwt>
<clustering>
<clus scale="   34.707">  1  6  2 -1</clus>
<clus scale="  473.429">  4  5 -1 -1</clus>
<clus scale="  300.000">  1  4  2 -1</clus>
</clustering>
</event>
<event>
 6    1  0.9462926E-012  0.3000000E+03  0.7818608E-02  0.1093470E+00
          1   -1    0    0  502    0  0.00000000000E+00  0.00000000000E+00  0.22538460784E+03  0.22538460784E+03  0.00000000000E+00 0.  1.
         13   -1    0    0    0    0 -0.00000000000E+00 -0.00000000000E+00 -0.27500000000E+03  0.27500000000E+03  0.00000000000E+00 0.  1.
    9000005    2    1    2  501    0 -0.27771597713E+02 -0.19193982364E+02 -0.57576171383E+02  0.46569967445E+03  0.46089207052E+03 0.  0.
         13    1    3    3    0    0 -0.43432091845E+02 -0.23031222593E+03 -0.90924590977E+02  0.25139082971E+03  0.00000000000E+00 0.  1.
          3    1    3    3  501    0  0.15660494132E+02  0.21111824357E+03  0.33348419594E+02  0.21430884474E+03  0.00000000000E+00 0.  1.
         21    1    1    2  502  501  0.27771597713E+02  0.19193982364E+02  0.79607792197E+01  0.34684933391E+02  0.00000000000E+00 0.  1.
<scales pt_clust_4="550.00000" pt_clust_5="550.00000" pt_clust_6="33.75901"></scales>
<mgrwt>
<rscale>  0 0.30000000E+03</rscale>
<asrwt>  1 0.33759008E+02</asrwt>
<pdfrwt beam="1">  1        1 0.81958039E+00 0.30000000E+03</pdfrwt>
<pdfrwt beam="2">0</pdfrwt>
<totfact> 0.73430574E-04</totfact>
</mgrwt>
<clustering>
<clus scale="   33.759">  1  6  2 -1</clus>
<clus scale="  460.892">  4  5 -1 -1</clus>
<clus scale="  300.000">  1  4  2 -1</clus>
</clustering>
</event>
<event>
 6    1  0.9462926E-012  0.3000000E+03  0.7818608E-02  0.1093470E+00
          1   -1    0    0  502    0  0.00000000000E+00  0.00000000000E+00  0.23494743466E+03  0.23494743466E+03  0.00000000000E+00 0.  1.
         13   -1    0    0    0    0 -0.00000000000E+00 -0.00000000000E+00 -0.27500000000E+03  0.27500000000E+03  0.00000000000E+00 0.  1.
    9000005    2    1    2  501    0 -0.31511185817E+02  0.42496954511E+00 -0.74299042528E+02  0.46340759548E+03  0.45632566923E+03 0.  0.
         13    1    3    3    0    0 -0.48852136295E+02 -0.73025384137E+02 -0.25385864850E+03  0.26863255828E+03  0.00000000000E+00 0.  1.
          1    1    3    3  501    0  0.17340950479E+02  0.73450353682E+02  0.17955960598E+03  0.19477503720E+03  0.00000000000E+00 0.  1.
         21    1    1    2  502  501  0.31511185817E+02 -0.42496954511E+00  0.34246477188E+02  0.46539839176E+02  0.00000000000E+00 0. -1.
<scales pt_clust_4="550.00000" pt_clust_5="550.00000" pt_clust_6="31.51405"></scales>
<mgrwt>
<rscale>  0 0.30000000E+03</rscale>
<asrwt>  1 0.31514051E+02</asrwt>
<pdfrwt beam="1">  1        1 0.85435431E+00 0.30000000E+03</pdfrwt>
<pdfrwt beam="2">0</pdfrwt>
<totfact> 0.37711020E-04</totfact>
</mgrwt>
<clustering>
<clus scale="   31.514">  1  6  2 -1</clus>
<clus scale="  456.326">  4  5 -1 -1</clus>
<clus scale="  300.000">  1  4  2 -1</clus>
</clustering>
</event>
<event>
 6    1  0.9462926E-012  0.3000000E+03  0.7818608E-02  0.1093470E+00
          1   -1    0    0  502    0  0.00000000000E+00  0.00000000000E+00  0.22888207994E+03  0.22888207994E+03  0.00000000000E+00 0.  1.
         13   -1    0    0    0    0 -0.00000000000E+00 -0.00000000000E+00 -0.27500000000E+03  0.27500000000E+03  0.00000000000E+00 0.  1.
    9000005    2    1    2  501    0  0.12949632215E+02 -0.28622783037E+02 -0.39917684068E+02  0.47186021850E+03  0.46911798902E+03 0.  0.
         13    1    3    3    0    0 -0.20555622018E+03  0.49663762083E+02 -0.97275850952E+02  0.23277121836E+03  0.00000000000E+00 0.  1.
          3    1    3    3  501    0  0.21850585240E+03 -0.78286545120E+02  0.57358166884E+02  0.23908900014E+03  0.00000000000E+00 0.  1.
         21    1    1    2  502  501 -0.12949632215E+02  0.28622783037E+02 -0.62002359950E+01  0.32021861433E+02  0.00000000000E+00 0. -1.
<scales pt_clust_4="550.00000" pt_clust_5="550.00000" pt_clust_6="31.41588"></scales>
<mgrwt>
<rscale>  0 0.30000000E+03</rscale>
<asrwt>  1 0.31415882E+02</asrwt>
<pdfrwt beam="1">  1        1 0.83229847E+00 0.30000000E+03</pdfrwt>
<pdfrwt beam="2">0</pdfrwt>
<totfact> 0.57836120E-04</totfact>
</mgrwt>
<clustering>
<clus scale="   31.416">  1  6  2 -1</clus>
<clus scale="  469.118">  4  5 -1 -1</clus>
<clus scale="  300.000">  1  4  2 -1</clus>
</clustering>
</event>
<event>
 6    1  0.9462926E-012  0.3000000E+03  0.7818608E-02  0.1093470E+00
          1   -1    0    0  502    0  0.00000000000E+00  0.00000000000E+00  0.24050567428E+03  0.24050567428E+03  0.00000000000E+00 0.  1.
         13   -1    0    0    0    0 -0.00000000000E+00 -0.00000000000E+00 -0.27500000000E+03  0.27500000000E+03  0.00000000000E+00 0.  1.
    9000005    2    1    2  501    0  0.36188718527E+02 -0.25449379635E+02 -0.40597229334E+02  0.47084540440E+03  0.46700103378E+03 0.  0.
         13    1    3    3    0    0  0.15934177490E+03 -0.91745879352E+02  0.14800970144E+03  0.23603808871E+03  0.00000000000E+00 0.  1.
          1    1    3    3  501    0 -0.12315305637E+03  0.66296499717E+02 -0.18860693077E+03  0.23480731569E+03  0.00000000000E+00 0.  1.
         21    1    1    2  502  501 -0.36188718527E+02  0.25449379635E+02  0.61029036101E+01  0.44660269871E+02  0.00000000000E+00 0. -1.
<scales pt_clust_4="550.00000" pt_clust_5="550.00000" pt_clust_6="44.24132"></scales>
<mgrwt>
<rscale>  0 0.30000000E+03</rscale>
<asrwt>  1 0.44241319E+02</asrwt>
<pdfrwt beam="1">  1        1 0.87456609E+00 0.30000000E+03</pdfrwt>
<pdfrwt beam="2">0</pdfrwt>
<totfact> 0.21776440E-04</totfact>
</mgrwt>
<clustering>
<clus scale="   44.241">  1  6  2 -1</clus>
<clus scale="  467.001">  4  5 -1 -1</clus>
<clus scale="  300.000">  1  4  2 -1</clus>
</clustering>
</event>
<event>
 6    1  0.9462926E-012  0.3000000E+03  0.7818608E-02  0.1093470E+00
          1   -1    0    0  502    0  0.00000000000E+00  0.00000000000E+00  0.24240544830E+03  0.24240544830E+03  0.00000000000E+00 0.  1.
         13   -1    0    0    0    0 -0.00000000000E+00 -0.00000000000E+00 -0.27500000000E+03  0.27500000000E+03  0.00000000000E+00 0.  1.
    9000005    2    1    2  501    0  0.11252244979E+02  0.36597978145E+02  0.65534502396E+00  0.46669469349E+03  0.46512093313E+03 0.  0.
         13    1    3    3    0    0  0.14284476867E+02 -0.19023217239E+03  0.10415496068E+03  0.21734898556E+03  0.00000000000E+00 0.  1.
          3    1    3    3  501    0 -0.30322318877E+01  0.22683015053E+03 -0.10349961566E+03  0.24934570793E+03  0.00000000000E+00 0.  1.
         21    1    1    2  502  501 -0.11252244979E+02 -0.36597978145E+02 -0.33249896722E+02  0.50710754811E+02  0.00000000000E+00 0.  1.
<scales pt_clust_4="550.00000" pt_clust_5="550.00000" pt_clust_6="38.28873"></scales>
<mgrwt>
<rscale>  0 0.30000000E+03</rscale>
<asrwt>  1 0.38288725E+02</asrwt>
<pdfrwt beam="1">  1        1 0.88147436E+00 0.30000000E+03</pdfrwt>
<pdfrwt beam="2">0</pdfrwt>
<totfact> 0.18598906E-04</totfact>
</mgrwt>
<clustering>
<clus scale="   38.289">  1  6  2 -1</clus>
<clus scale="  465.121">  4  5 -1 -1</clus>
<clus scale="  300.000">  1  4  2 -1</clus>
</clustering>
</event>
<event>
 6    1  0.9462926E-012  0.3000000E+03  0.7818608E-02  0.1093470E+00
          1   -1    0    0  502    0  0.00000000000E+00  0.00000000000E+00  0.23866160934E+03  0.23866160934E+03  0.00000000000E+00 0.  1.
         13   -1    0    0    0    0 -0.00000000000E+00 -0.00000000000E+00 -0.27500000000E+03  0.27500000000E+03  0.00000000000E+00 0.  1.
    9000005    2    1    2  501    0 -0.25695485813E+02  0.16383002376E+02 -0.68264188675E+02  0.46952639282E+03  0.46353680905E+03 0.  0.
         13    1    3    3    0    0  0.21538359692E+03  0.23923073067E+02  0.71153197497E+01  0.21682489484E+03  0.00000000000E+00 0.  1.
          3    1    3    3  501    0 -0.24107908273E+03 -0.75400706910E+01 -0.75379508424E+02  0.25270149799E+03  0.00000000000E+00 0.  1.
         21    1    1    2  502  501  0.25695485813E+02 -0.16383002376E+02  0.31925798013E+02  0.44135216515E+02  0.00000000000E+00 0.  1.
<scales pt_clust_4="550.00000" pt_clust_5="550.00000" pt_clust_6="30.47394"></scales>
<mgrwt>
<rscale>  0 0.30000000E+03</rscale>
<asrwt>  1 0.30473936E+02</asrwt>
<pdfrwt beam="1">  1        1 0.86786040E+00 0.30000000E+03</pdfrwt>
<pdfrwt beam="2">0</pdfrwt>
<totfact> 0.27352115E-04</totfact>
</mgrwt>
<clustering>
<clus scale="   30.474">  1  6  2 -1</clus>
<clus scale="  463.537">  4  5 -1 -1</clus>
<clus scale="  300.000">  1  4  2 -1</clus>
</clustering>
</event>
<event>
 6    1  0.9462926E-012  0.3000000E+03  0.7818608E-02  0.1093470E+00
          1   -1    0    0  502    0  0.00000000000E+00  0.00000000000E+00  0.23619675372E+03  0.23619675372E+03  0.00000000000E+00 0.  1.
         13   -1    0    0    0    0 -0.00000000000E+00 -0.00000000000E+00 -0.27500000000E+03  0.27500000000E+03  0.00000000000E+00 0.  1.
    9000005    2    1    2  501    0 -0.36258067096E+02  0.44202379475E+01 -0.62173060166E+02  0.46783393400E+03  0.46224334982E+03 0.  0.
         13    1    3    3    0    0  0.13185272068E+03  0.17437072525E+03 -0.67284996064E+02  0.22873032259E+03  0.00000000000E+00 0.  1.
          1    1    3    3  501    0 -0.16811078778E+03 -0.16995048730E+03  0.51119358979E+01  0.23910361141E+03  0.00000000000E+00 0.  1.
         21    1    1    2  502  501  0.36258067096E+02 -0.44202379475E+01  0.23369813881E+02  0.43362819718E+02  0.00000000000E+00 0.  1.
<scales pt_clust_4="550.00000" pt_clust_5="550.00000" pt_clust_6="36.52651"></scales>
<mgrwt>
<rscale>  0 0.30000000E+03</rscale>
<asrwt>  1 0.36526510E+02</asrwt>
<pdfrwt beam="1">  1        1 0.85889729E+00 0.30000000E+03</pdfrwt>
<pdfrwt beam="2">0</pdfrwt>
<totfact> 0.32966475E-04</totfact>
</mgrwt>
<clustering>
<clus scale="   36.527">  1  6  2 -1</clus>
<clus scale="  462.243">  4  5 -1 -1</clus>
<clus scale="  300.000">  1  4  2 -1</clus>
</clustering>
</event>
<event>
 6    1  0.9462926E-012  0.3000000E+03  0.7818608E-02  0.1093470E+00
          1   -1    0    0  502    0  0.00000000000E+00  0.00000000000E+00  0.22014786477E+03  0.22014786477E+03  0.00000000000E+00 0.  1.
         13   -1    0    0    0    0 -0.00000000000E+00 -0.00000000000E+00 -0.27500000000E+03  0.27500000000E+03  0.00000000000E+00 0.  1.
    9000005    2    1    2  501    0  0.57646929993E+01  0.31438557522E+02 -0.50583706449E+02  0.46290140653E+03  0.45901784957E+03 0.  0.
         13    1    3    3    0    0 -0.17017905361E+02 -0.21344541488E+03 -0.27427183920E+02  0.21587219518E+03  0.00000000000E+00 0.  1.
          1    1    3    3  501    0  0.22782598360E+02  0.24488397240E+03 -0.23156522529E+02  0.24702921135E+03  0.00000000000E+00 0.  1.
         21    1    1    2  502  501 -0.57646929993E+01 -0.31438557522E+02 -0.42684287839E+01  0.32246458235E+02  0.00000000000E+00 0.  1.
<scales pt_clust_4="550.00000" pt_clust_5="550.00000" pt_clust_6="31.96272"></scales>
<mgrwt>
<rscale>  0 0.30000000E+03</rscale>
<asrwt>  1 0.31962722E+02</asrwt>
<pdfrwt beam="1">  1        1 0.80053769E+00 0.30000000E+03</pdfrwt>
<pdfrwt beam="2">0</pdfrwt>
<totfact> 0.10455281E-03</totfact>
</mgrwt>
<clustering>
<clus scale="   31.963">  1  6  2 -1</clus>
<clus scale="  459.018">  4  5 -1 -1</clus>
<clus scale="  300.000">  1  4  2 -1</clus>
</clustering>
</event>
<event>
 6    1  0.9462926E-012  0.3000000E+03  0.7818608E-02  0.1093470E+00
          1   -1    0    0  502    0  0.00000000000E+00  0.00000000000E+00  0.23495441869E+03  0.23495441869E+03  0.00000000000E+00 0.  1.
         13   -1    0    0    0    0 -0.00000000000E+00 -0.00000000000E+00 -0.27500000000E+03  0.27500000000E+03  0.00000000000E+00 0.  1.
    9000005    2    1    2  501    0 -0.26472510139E+02 -0.22625433693E+02 -0.60909329031E+02  0.46935885229E+03  0.46408520965E+03 0.  0.
         13    1    3    3    0    0  0.15721634999E+03  0.62228021174E+02  0.11232321650E+03  0.20299214834E+03  0.00000000000E+00 0.  1.
          1    1    3    3  501    0 -0.18368886013E+03 -0.84853454867E+02 -0.17323254553E+03  0.26636670394E+03  0.00000000000E+00 0.  1.
         21    1    1    2  502  501  0.26472510139E+02  0.22625433693E+02  0.20863747725E+02  0.40595566408E+02  0.00000000000E+00 0. -1.
<scales pt_clust_4="550.00000" pt_clust_5="550.00000" pt_clust_6="34.82390"></scales>
<mgrwt>
<rscale>  0 0.30000000E+03</rscale>
<asrwt>  1 0.34823900E+02</asrwt>
<pdfrwt beam="1">  1        1 0.85437970E+00 0.30000000E+03</pdfrwt>
<pdfrwt beam="2">0</pdfrwt>
<totfact> 0.36984912E-04</totfact>
</mgrwt>
<clustering>
<clus scale="   34.824">  1  6  2 -1</clus>
<clus scale="  464.085">  4  5 -1 -1</clus>
<clus scale="  300.000">  1  4  2 -1</clus>
</clustering>
</event>
<event>
 6    1  0.9462926E-012  0.3000000E+03  0.7818608E-02  0.1093470E+00
          1   -1    0    0  502    0  0.00000000000E+00  0.00000000000E+00  0.24495711317E+03  0.24495711317E+03  0.00000000000E+00 0.  1.
         13   -1    0    0    0    0 -0.00000000000E+00 -0.00000000000E+00 -0.27500000000E+03  0.27500000000E+03  0.00000000000E+00 0.  1.
    9000005    2    1    2  501    0  0.23369055361E+02 -0.20498634096E+02 -0.72079980766E+02  0.46767495546E+03  0.46104016483E+03 0.  0.
         13    1    3    3    0    0  0.14868126990E+03  0.53877380221E+02 -0.21278070735E+03  0.26511228101E+03  0.00000000000E+00 0.  1.
          3    1    3    3  501    0 -0.12531221454E+03 -0.74376014317E+02  0.14070072659E+03  0.20256267445E+03  0.00000000000E+00 0.  1.
         21    1    1    2  502  501 -0.23369055361E+02  0.20498634096E+02  0.42037093932E+02  0.52282157707E+02  0.00000000000E+00 0. -1.
<scales pt_clust_4="550.00000" pt_clust_5="550.00000" pt_clust_6="31.08547"></scales>
<mgrwt>
<rscale>  0 0.30000000E+03</rscale>
<asrwt>  1 0.31085475E+02</asrwt>
<pdfrwt beam="1">  1        1 0.89075314E+00 0.30000000E+03</pdfrwt>
<pdfrwt beam="2">0</pdfrwt>
<totfact> 0.14489987E-04</totfact>
</mgrwt>
<clustering>
<clus scale="   31.085">  1  6  2 -1</clus>
<clus scale="  461.040">  4  5 -1 -1</clus>
<clus scale="  300.000">  1  4  2 -1</clus>
</clustering>
</event>
<event>
 6    1  0.9462926E-012  0.3000000E+03  0.7818608E-02  0.1093470E+00
          1   -1    0    0  502    0  0.00000000000E+00  0.00000000000E+00  0.25035886848E+03  0.25035886848E+03  0.00000000000E+00 0.  1.
         13   -1    0    0    0    0 -0.00000000000E+00 -0.00000000000E+00 -0.27500000000E+03  0.27500000000E+03  0.00000000000E+00 0.  1.
    9000005    2    1    2  501    0  0.27212654849E+02  0.13849826639E+02 -0.47631357042E+02  0.48713718940E+03  0.48384041671E+03 0.  0.
         13    1    3    3    0    0  0.18165794097E+03  0.18062767208E+03 -0.72941646369E+01  0.25627947299E+03  0.00000000000E+00 0.  1.
          1    1    3    3  501    0 -0.15444528612E+03 -0.16677784545E+03 -0.40337192405E+02  0.23085771641E+03  0.00000000000E+00 0.  1.
         21    1    1    2  502  501 -0.27212654849E+02 -0.13849826639E+02  0.22990225521E+02  0.38221679076E+02  0.00000000000E+00 0.  1.
<scales pt_clust_4="550.00000" pt_clust_5="550.00000" pt_clust_6="30.53435"></scales>
<mgrwt>
<rscale>  0 0.30000000E+03</rscale>
<asrwt>  1 0.30534346E+02</asrwt>
<pdfrwt beam="1">  1        1 0.91039589E+00 0.30000000E+03</pdfrwt>
<pdfrwt beam="2">0</pdfrwt>
<totfact> 0.72116636E-05</totfact>
</mgrwt>
<clustering>
<clus scale="   30.534">  1  6  2 -1</clus>
<clus scale="  483.840">  4  5 -1 -1</clus>
<clus scale="  300.000">  1  4  2 -1</clus>
</clustering>
</event>
<event>
 6    1  0.9462926E-012  0.3000000E+03  0.7818608E-02  0.1093470E+00
          1   -1    0    0  502    0  0.00000000000E+00  0.00000000000E+00  0.23518089840E+03  0.23518089840E+03  0.00000000000E+00 0.  1.
         13   -1    0    0    0    0 -0.00000000000E+00 -0.00000000000E+00 -0.27500000000E+03  0.27500000000E+03  0.00000000000E+00 0.  1.
    9000005    2    1    2  501    0  0.23495397196E+02 -0.40342098356E+02 -0.27647729649E+02  0.46193506040E+03  0.45873748973E+03 0.  0.
         13    1    3    3    0    0 -0.15498516820E+03  0.12006059941E+03 -0.87388409357E+02  0.21464315498E+03  0.00000000000E+00 0.  1.
          1    1    3    3  501    0  0.17848056539E+03 -0.16040269777E+03  0.59740679708E+02  0.24729190542E+03  0.00000000000E+00 0.  1.
         21    1    1    2  502  501 -0.23495397196E+02  0.40342098356E+02 -0.12171371951E+02  0.48245838000E+02  0.00000000000E+00 0.  1.
<scales pt_clust_4="550.00000" pt_clust_5="550.00000" pt_clust_6="46.68534"></scales>
<mgrwt>
<rscale>  0 0.30000000E+03</rscale>
<asrwt>  1 0.46685338E+02</asrwt>
<pdfrwt beam="1">  1        1 0.85520327E+00 0.30000000E+03</pdfrwt>
<pdfrwt beam="2">0</pdfrwt>
<totfact> 0.34410393E-04</totfact>
</mgrwt>
<clustering>
<clus scale="   46.685">  1  6  2 -1</clus>
<clus scale="  458.737">  4  5 -1 -1</clus>
<clus scale="  300.000">  1  4  2 -1</clus>
</clustering>
</event>
<event>
 6    1  0.9462926E-012  0.3000000E+03  0.7818608E-02  0.1093470E+00
          1   -1    0    0  502    0  0.00000000000E+00  0.00000000000E+00  0.24847993308E+03  0.24847993308E+03  0.00000000000E+00 0.  1.
         13   -1    0    0    0    0 -0.00000000000E+00 -0.00000000000E+00 -0.27500000000E+03  0.27500000000E+03  0.00000000000E+00 0.  1.
    9000005    2    1    2  501    0  0.30008488626E+02 -0.54084311657E+01 -0.34891042890E+02  0.49185978514E+03  0.48967224022E+03 0.  0.
         13    1    3    3    0    0  0.23061581967E+02 -0.16755842616E+03 -0.19892073682E+03  0.26110749180E+03  0.00000000000E+00 0.  1.
          3    1    3    3  501    0  0.69469066592E+01  0.16214999499E+03  0.16402969393E+03  0.23075229333E+03  0.00000000000E+00 0.  1.
         21    1    1    2  502  501 -0.30008488626E+02  0.54084311657E+01  0.83709759731E+01  0.31620147945E+02  0.00000000000E+00 0.  1.
<scales pt_clust_4="550.00000" pt_clust_5="550.00000" pt_clust_6="30.49197"></scales>
<mgrwt>
<rscale>  0 0.30000000E+03</rscale>
<asrwt>  1 0.30491975E+02</asrwt>
<pdfrwt beam="1">  1        1 0.90356339E+00 0.30000000E+03</pdfrwt>
<pdfrwt beam="2">0</pdfrwt>
<totfact> 0.10069758E-04</totfact>
</mgrwt>
<clustering>
<clus scale="   30.492">  1  6  2 -1</clus>
<clus scale="  489.672">  4  5 -1 -1</clus>
<clus scale="  300.000">  1  4  2 -1</clus>
</clustering>
</event>
<event>
 6    1  0.9462926E-012  0.3000000E+03  0.7818608E-02  0.1093470E+00
          1   -1    0    0  502    0  0.00000000000E+00  0.00000000000E+00  0.23343879079E+03  0.23343879079E+03  0.00000000000E+00 0.  1.
         13   -1    0    0    0    0 -0.00000000000E+00 -0.00000000000E+00 -0.27500000000E+03  0.27500000000E+03  0.00000000000E+00 0.  1.
    9000005    2    1    2  501    0 -0.25809580864E+02  0.15304189678E+02 -0.45741792075E+02  0.47814308219E+03  0.47500330822E+03 0.  0.
         13    1    3    3    0    0  0.48541201688E+02  0.21003151905E+03  0.85414884441E+02  0.23187321911E+03  0.00000000000E+00 0.  1.
          3    1    3    3  501    0 -0.74350782553E+02 -0.19472732937E+03 -0.13115667652E+03  0.24626986309E+03  0.00000000000E+00 0.  1.
         21    1    1    2  502  501  0.25809580864E+02 -0.15304189678E+02  0.41805828625E+01  0.30295708593E+02  0.00000000000E+00 0.  1.
<scales pt_clust_4="550.00000" pt_clust_5="550.00000" pt_clust_6="30.00588"></scales>
<mgrwt>
<rscale>  0 0.30000000E+03</rscale>
<asrwt>  1 0.30005878E+02</asrwt>
<pdfrwt beam="1">  1        1 0.84886833E+00 0.30000000E+03</pdfrwt>
<pdfrwt beam="2">0</pdfrwt>
<totfact> 0.42935545E-04</totfact>
</mgrwt>
<clustering>
<clus scale="   30.006">  1  6  2 -1</clus>
<clus scale="  475.003">  4  5 -1 -1</clus>
<clus scale="  300.000">  1  4  2 -1</clus>
</clustering>
</event>
<event>
 6    1  0.9462926E-012  0.3000000E+03  0.7818608E-02  0.1093470E+00
          1   -1    0    0  502    0  0.00000000000E+00  0.00000000000E+00  0.25000519567E+03  0.25000519567E+03  0.00000000000E+00 0.  1.
         13   -1    0    0    0    0 -0.00000000000E+00 -0.00000000000E+00 -0.27500000000E+03  0.27500000000E+03  0.00000000000E+00 0.  1.
    9000005    2    1    2  501    0 -0.33379698626E+02  0.45508067861E+01 -0.61643760271E+02  0.47522507821E+03  0.47000426344E+03 0.  0.
         13    1    3    3    0    0 -0.62437808436E+02 -0.22235722879E+03  0.21193749429E+02  0.23192755794E+03  0.00000000000E+00 0.  1.
          1    1    3    3  501    0  0.29058109810E+02  0.22690803558E+03 -0.82837509701E+02  0.24329752027E+03  0.00000000000E+00 0.  1.
         21    1    1    2  502  501  0.33379698626E+02 -0.45508067861E+01  0.36648955940E+02  0.49780117459E+02  0.00000000000E+00 0.  1.
<scales pt_clust_4="550.00000" pt_clust_5="550.00000" pt_clust_6="33.68849"></scales>
<mgrwt>
<rscale>  0 0.30000000E+03</rscale>
<asrwt>  1 0.33688487E+02</asrwt>
<pdfrwt beam="1">  1        1 0.90910980E+00 0.30000000E+03</pdfrwt>
<pdfrwt beam="2">0</pdfrwt>
<totfact> 0.76022859E-05</totfact>
</mgrwt>
<clustering>
<clus scale="   33.688">  1  6  2 -1</clus>
<clus scale="  470.004">  4  5 -1 -1</clus>
<clus scale="  300.000">  1  4  2 -1</clus>
</clustering>
</event>
<event>
 6    1  0.9462926E-012  0.3000000E+03  0.7818608E-02  0.1093470E+00
          1   -1    0    0  502    0  0.00000000000E+00  0.00000000000E+00  0.24250834755E+03  0.24250834755E+03  0.00000000000E+00 0.  1.
         13   -1    0    0    0    0 -0.00000000000E+00 -0.00000000000E+00 -0.27500000000E+03  0.27500000000E+03  0.00000000000E+00 0.  1.
    9000005    2    1    2  501    0 -0.22048130935E+02  0.23991189908E+02 -0.36241607155E+02  0.48470957576E+03  0.48225327523E+03 0.  0.
         13    1    3    3    0    0  0.12652971365E+03 -0.79243627694E+02 -0.19391055950E+03  0.24472561380E+03  0.00000000000E+00 0.  1.
          3    1    3    3  501    0 -0.14857784458E+03  0.10323481760E+03  0.15766895234E+03  0.23998396196E+03  0.00000000000E+00 0.  1.
         21    1    1    2  502  501  0.22048130935E+02 -0.23991189908E+02  0.37499547060E+01  0.32798771794E+02  0.00000000000E+00 0. -1.
<scales pt_clust_4="550.00000" pt_clust_5="550.00000" pt_clust_6="32.58370"></scales>
<mgrwt>
<rscale>  0 0.30000000E+03</rscale>
<asrwt>  1 0.32583696E+02</asrwt>
<pdfrwt beam="1">  1        1 0.88184854E+00 0.30000000E+03</pdfrwt>
<pdfrwt beam="2">0</pdfrwt>
<totfact> 0.18955640E-04</totfact>
</mgrwt>
<clustering>
<clus scale="   32.584">  1  6  2 -1</clus>
<clus scale="  482.253">  4  5 -1 -1</clus>
<clus scale="  300.000">  1  4  2 -1</clus>
</clustering>
</event>
<event>
 6    1  0.9462926E-012  0.3000000E+03  0.7818608E-02  0.1093470E+00
          1   -1    0    0  502    0  0.00000000000E+00  0.00000000000E+00  0.24994652760E+03  0.24994652760E+03  0.00000000000E+00 0.  1.
         13   -1    0    0    0    0 -0.00000000000E+00 -0.00000000000E+00 -0.27500000000E+03  0.27500000000E+03  0.00000000000E+00 0.  1.
    9000005    2    1    2  501    0 -0.43979052693E+02  0.40172811430E+02 -0.26562064162E+02  0.46536223685E+03  0.46076941780E+03 0.  0.
         13    1    3    3    0    0  0.10375172161E+03  0.15509465430E+03 -0.15147543251E+03  0.24034054627E+03  0.00000000000E+00 0.  1.
          1    1    3    3  501    0 -0.14773077430E+03 -0.11492184287E+03  0.12491336834E+03  0.22502169059E+03  0.00000000000E+00 0.  1.
         21    1    1    2  502  501  0.43979052693E+02 -0.40172811430E+02  0.15085917574E+01  0.59584290740E+02  0.00000000000E+00 0. -1.
<scales pt_clust_4="550.00000" pt_clust_5="550.00000" pt_clust_6="59.56519"></scales>
<mgrwt>
<rscale>  0 0.30000000E+03</rscale>
<asrwt>  1 0.59565190E+02</asrwt>
<pdfrwt beam="1">  1        1 0.90889646E+00 0.30000000E+03</pdfrwt>
<pdfrwt beam="2">0</pdfrwt>
<totfact> 0.69450634E-05</totfact>
</mgrwt>
<clustering>
<clus scale="   59.565">  1  6  2 -1</clus>
<clus scale="  460.769">  4  5 -1 -1</clus>
<clus scale="  300.000">  1  4  2 -1</clus>
</clustering>
</event>
<event>
 6    1  0.9462926E-012  0.3000000E+03  0.7818608E-02  0.1093470E+00
          1   -1    0    0  502    0  0.00000000000E+00  0.00000000000E+00  0.24329649866E+03  0.24329649866E+03  0.00000000000E+00 0.  1.
         13   -1    0    0    0    0 -0.00000000000E+00 -0.00000000000E+00 -0.27500000000E+03  0.27500000000E+03  0.00000000000E+00 0.  1.
    9000005    2    1    2  501    0  0.82663746361E+01  0.30483422469E+02 -0.61449635262E+02  0.47490981316E+03  0.46985710697E+03 0.  0.
         13    1    3    3    0    0 -0.16477267530E+03 -0.14599490710E+03 -0.58284442000E+02  0.22773147258E+03  0.00000000000E+00 0.  1.
          1    1    3    3  501    0  0.17303904993E+03  0.17647832956E+03 -0.31651932618E+01  0.24717834059E+03  0.00000000000E+00 0.  1.
         21    1    1    2  502  501 -0.82663746361E+01 -0.30483422469E+02  0.29746133922E+02  0.43386685496E+02  0.00000000000E+00 0.  1.
<scales pt_clust_4="550.00000" pt_clust_5="550.00000" pt_clust_6="31.58436"></scales>
<mgrwt>
<rscale>  0 0.30000000E+03</rscale>
<asrwt>  1 0.31584363E+02</asrwt>
<pdfrwt beam="1">  1        1 0.88471454E+00 0.30000000E+03</pdfrwt>
<pdfrwt beam="2">0</pdfrwt>
<totfact> 0.17459346E-04</totfact>
</mgrwt>
<clustering>
<clus scale="   31.584">  1  6  2 -1</clus>
<clus scale="  469.857">  4  5 -1 -1</clus>
<clus scale="  300.000">  1  4  2 -1</clus>
</clustering>
</event>
<event>
 6    1  0.9462926E-012  0.3000000E+03  0.7818608E-02  0.1093470E+00
          1   -1    0    0  502    0  0.00000000000E+00  0.00000000000E+00  0.24574031471E+03  0.24574031471E+03  0.00000000000E+00 0.  1.
         13   -1    0    0    0    0 -0.00000000000E+00 -0.00000000000E+00 -0.27500000000E+03  0.27500000000E+03  0.00000000000E+00 0.  1.
    9000005    2    1    2  501    0 -0.25584475866E+02  0.19734113892E+02 -0.40156134290E+02  0.48664143999E+03  0.48390430390E+03 0.  0.
         13    1    3    3    0    0  0.21815026641E+03  0.59253395094E+02 -0.72999775844E+02  0.23754888095E+03  0.00000000000E+00 0.  1.
          1    1    3    3  501    0 -0.24373474228E+03 -0.39519281201E+02  0.32843641554E+02  0.24909255904E+03  0.00000000000E+00 0.  1.
         21    1    1    2  502  501  0.25584475866E+02 -0.19734113892E+02  0.10896449002E+02  0.34098874722E+02  0.00000000000E+00 0.  1.
<scales pt_clust_4="550.00000" pt_clust_5="550.00000" pt_clust_6="32.31100"></scales>
<mgrwt>
<rscale>  0 0.30000000E+03</rscale>
<asrwt>  1 0.32310999E+02</asrwt>
<pdfrwt beam="1">  1        1 0.89360114E+00 0.30000000E+03</pdfrwt>
<pdfrwt beam="2">0</pdfrwt>
<totfact> 0.13278030E-04</totfact>
</mgrwt>
<clustering>
<clus scale="   32.311">  1  6  2 -1</clus>
<clus scale="  483.904">  4  5 -1 -1</clus>
<clus scale="  300.000">  1  4  2 -1</clus>
</clustering>
</event>
<event>
 6    1  0.9462926E-012  0.3000000E+03  0.7818608E-02  0.1093470E+00
          1   -1    0    0  502    0  0.00000000000E+00  0.00000000000E+00  0.23479148086E+03  0.23479148086E+03  0.00000000000E+00 0.  1.
         13   -1    0    0    0    0 -0.00000000000E+00 -0.00000000000E+00 -0.27500000000E+03  0.27500000000E+03  0.00000000000E+00 0.  1.
    9000005    2    1    2  501    0 -0.35025924667E+02  0.16687545236E+01 -0.67765101723E+02  0.46519366271E+03  0.45889370738E+03 0.  0.
         13    1    3    3    0    0 -0.12460247378E+03 -0.63457543053E+01  0.17006800248E+03  0.21092456125E+03  0.00000000000E+00 0.  1.
          1    1    3    3  501    0  0.89576549113E+02  0.80145088290E+01 -0.23783310420E+03  0.25426910146E+03  0.00000000000E+00 0.  1.
         21    1    1    2  502  501  0.35025924667E+02 -0.16687545236E+01  0.27556582584E+02  0.44597818155E+02  0.00000000000E+00 0.  1.
<scales pt_clust_4="550.00000" pt_clust_5="550.00000" pt_clust_6="35.06565"></scales>
<mgrwt>
<rscale>  0 0.30000000E+03</rscale>
<asrwt>  1 0.35065655E+02</asrwt>
<pdfrwt beam="1">  1        1 0.85378720E+00 0.30000000E+03</pdfrwt>
<pdfrwt beam="2">0</pdfrwt>
<totfact> 0.37430934E-04</totfact>
</mgrwt>
<clustering>
<clus scale="   35.066">  1  6  2 -1</clus>
<clus scale="  458.894">  4  5 -1 -1</clus>
<clus scale="  300.000">  1  4  2 -1</clus>
</clustering>
</event>
<event>
 6    1  0.9462926E-012  0.3000000E+03  0.7818608E-02  0.1093470E+00
          1   -1    0    0  502    0  0.00000000000E+00  0.00000000000E+00  0.22482524018E+03  0.22482524018E+03  0.00000000000E+00 0.  1.
         13   -1    0    0    0    0 -0.00000000000E+00 -0.00000000000E+00 -0.27500000000E+03  0.27500000000E+03  0.00000000000E+00 0.  1.
    9000005    2    1    2  501    0  0.72037414753E+01 -0.34407104010E+02 -0.57980568010E+02  0.46381588946E+03  0.45883296563E+03 0.  0.
         13    1    3    3    0    0  0.12201802281E+03 -0.21354631409E+03 -0.49450440188E+02  0.25087003046E+03  0.00000000000E+00 0.  1.
          1    1    3    3  501    0 -0.11481428133E+03  0.17913921008E+03 -0.85301278214E+01  0.21294585900E+03  0.00000000000E+00 0.  1.
         21    1    1    2  502  501 -0.72037414753E+01  0.34407104010E+02  0.78058081895E+01  0.36009350717E+02  0.00000000000E+00 0. -1.
<scales pt_clust_4="550.00000" pt_clust_5="550.00000" pt_clust_6="35.15313"></scales>
<mgrwt>
<rscale>  0 0.30000000E+03</rscale>
<asrwt>  1 0.35153132E+02</asrwt>
<pdfrwt beam="1">  1        1 0.81754633E+00 0.30000000E+03</pdfrwt>
<pdfrwt beam="2">0</pdfrwt>
<totfact> 0.75816189E-04</totfact>
</mgrwt>
<clustering>
<clus scale="   35.153">  1  6  2 -1</clus>
<clus scale="  458.833">  4  5 -1 -1</clus>
<clus scale="  300.000">  1  4  2 -1</clus>
</clustering>
</event>
<event>
 6    1  0.9462926E-012  0.3000000E+03  0.7818608E-02  0.1093470E+00
          1   -1    0    0  502    0  0.00000000000E+00  0.00000000000E+00  0.23119610082E+03  0.23119610082E+03  0.00000000000E+00 0.  1.
         13   -1    0    0    0    0 -0.00000000000E+00 -0.00000000000E+00 -0.27500000000E+03  0.27500000000E+03  0.00000000000E+00 0.  1.
    9000005    2    1    2  501    0  0.22722682446E+02 -0.31836905206E+02 -0.63930999802E+02  0.46220736351E+03  0.45609052316E+03 0.  0.
         13    1    3    3    0    0 -0.13480478693E+03  0.15154183272E+03 -0.84207992318E+02  0.21960929765E+03  0.00000000000E+00 0.  1.
          3    1    3    3  501    0  0.15752746938E+03 -0.18337873793E+03  0.20276992516E+02  0.24259806586E+03  0.00000000000E+00 0.  1.
         21    1    1    2  502  501 -0.22722682446E+02  0.31836905206E+02  0.20127100618E+02  0.43988737308E+02  0.00000000000E+00 0. -1.
<scales pt_clust_4="550.00000" pt_clust_5="550.00000" pt_clust_6="39.11405"></scales>
<mgrwt>
<rscale>  0 0.30000000E+03</rscale>
<asrwt>  1 0.39114049E+02</asrwt>
<pdfrwt beam="1">  1        1 0.84071309E+00 0.30000000E+03</pdfrwt>
<pdfrwt beam="2">0</pdfrwt>
<totfact> 0.48075353E-04</totfact>
</mgrwt>
<clustering>
<clus scale="   39.114">  1  6  2 -1</clus>
<clus scale="  456.091">  4  5 -1 -1</clus>
<clus scale="  300.000">  1  4  2 -1</clus>
</clustering>
</event>
<event>
 6    1  0.9462926E-012  0.3000000E+03  0.7818608E-02  0.1093470E+00
          1   -1    0    0  502    0  0.00000000000E+00  0.00000000000E+00  0.23597987435E+03  0.23597987435E+03  0.00000000000E+00 0.  1.
         13   -1    0    0    0    0 -0.00000000000E+00 -0.00000000000E+00 -0.27500000000E+03  0.27500000000E+03  0.00000000000E+00 0.  1.
    9000005    2    1    2  501    0  0.13711641291E+01  0.33537193386E+02 -0.58277301164E+02  0.47228281709E+03  0.46746999055E+03 0.  0.
         13    1    3    3    0    0  0.10038613253E+03  0.22803378469E+03 -0.13708321284E+02  0.24952895751E+03  0.00000000000E+00 0.  1.
          1    1    3    3  501    0 -0.99014968399E+02 -0.19449659130E+03 -0.44568979880E+02  0.22275385959E+03  0.00000000000E+00 0.  1.
         21    1    1    2  502  501 -0.13711641291E+01 -0.33537193386E+02  0.19257175510E+02  0.38697057252E+02  0.00000000000E+00 0.  1.
<scales pt_clust_4="550.00000" pt_clust_5="550.00000" pt_clust_6="33.56521"></scales>
<mgrwt>
<rscale>  0 0.30000000E+03</rscale>
<asrwt>  1 0.33565212E+02</asrwt>
<pdfrwt beam="1">  1        1 0.85810863E+00 0.30000000E+03</pdfrwt>
<pdfrwt beam="2">0</pdfrwt>
<totfact> 0.34136579E-04</totfact>
</mgrwt>
<clustering>
<clus scale="   33.565">  1  6  2 -1</clus>
<clus scale="  467.470">  4  5 -1 -1</clus>
<clus scale="  300.000">  1  4  2 -1</clus>
</clustering>
</event>
<event>
 6    1  0.9462926E-012  0.3000000E+03  0.7818608E-02  0.1093470E+00
          1   -1    0    0  502    0  0.00000000000E+00  0.00000000000E+00  0.23230848446E+03  0.23230848446E+03  0.00000000000E+00 0.  1.
         13   -1    0    0    0    0 -0.00000000000E+00 -0.00000000000E+00 -0.27500000000E+03  0.27500000000E+03  0.00000000000E+00 0.  1.
    9000005    2    1    2  501    0 -0.24938267145E+02  0.23850633405E+02 -0.53006710775E+02  0.47129219461E+03  0.46702874797E+03 0.  0.
         13    1    3    3    0    0 -0.15030366758E+02 -0.21834240334E+03  0.15483733289E+02  0.21940615993E+03  0.00000000000E+00 0.  1.
          1    1    3    3  501    0 -0.99079003874E+01  0.24219303674E+03 -0.68490444064E+02  0.25188603467E+03  0.00000000000E+00 0.  1.
         21    1    1    2  502  501  0.24938267145E+02 -0.23850633405E+02  0.10315195234E+02  0.36016289853E+02  0.00000000000E+00 0. -1.
<scales pt_clust_4="550.00000" pt_clust_5="550.00000" pt_clust_6="34.50753"></scales>
<mgrwt>
<rscale>  0 0.30000000E+03</rscale>
<asrwt>  1 0.34507534E+02</asrwt>
<pdfrwt beam="1">  1        1 0.84475813E+00 0.30000000E+03</pdfrwt>
<pdfrwt beam="2">0</pdfrwt>
<totfact> 0.45523070E-04</totfact>
</mgrwt>
<clustering>
<clus scale="   34.508">  1  6  2 -1</clus>
<clus scale="  467.029">  4  5 -1 -1</clus>
<clus scale="  300.000">  1  4  2 -1</clus>
</clustering>
</event>
<event>
 6    1  0.9462926E-012  0.3000000E+03  0.7818608E-02  0.1093470E+00
          1   -1    0    0  502    0  0.00000000000E+00  0.00000000000E+00  0.24165231378E+03  0.24165231378E+03  0.00000000000E+00 0.  1.
         13   -1    0    0    0    0 -0.00000000000E+00 -0.00000000000E+00 -0.27500000000E+03  0.27500000000E+03  0.00000000000E+00 0.  1.
    9000005    2    1    2  501    0  0.37616506465E+02 -0.23330651360E+02 -0.59926945929E+02  0.46502114201E+03  0.45901427300E+03 0.  0.
         13    1    3    3    0    0  0.20153711593E+03 -0.14016024085E+03 -0.90065028453E+02  0.26148386482E+03  0.00000000000E+00 0.  1.
          1    1    3    3  501    0 -0.16392060946E+03  0.11682958949E+03  0.30138082524E+02  0.20353727719E+03  0.00000000000E+00 0.  1.
         21    1    1    2  502  501 -0.37616506465E+02  0.23330651360E+02  0.26579259709E+02  0.51631171769E+02  0.00000000000E+00 0.  1.
<scales pt_clust_4="550.00000" pt_clust_5="550.00000" pt_clust_6="44.26422"></scales>
<mgrwt>
<rscale>  0 0.30000000E+03</rscale>
<asrwt>  1 0.44264216E+02</asrwt>
<pdfrwt beam="1">  1        1 0.87873569E+00 0.30000000E+03</pdfrwt>
<pdfrwt beam="2">0</pdfrwt>
<totfact> 0.19583091E-04</totfact>
</mgrwt>
<clustering>
<clus scale="   44.264">  1  6  2 -1</clus>
<clus scale="  459.014">  4  5 -1 -1</clus>
<clus scale="  300.000">  1  4  2 -1</clus>
</clustering>
</event>
<event>
 6    1  0.9462926E-012  0.3000000E+03  0.7818608E-02  0.1093470E+00
          1   -1    0    0  502    0  0.00000000000E+00  0.00000000000E+00  0.23610978168E+03  0.23610978168E+03  0.00000000000E+00 0.  1.
         13   -1    0    0    0    0 -0.00000000000E+00 -0.00000000000E+00 -0.27500000000E+03  0.27500000000E+03  0.00000000000E+00 0.  1.
    9000005    2    1    2  501    0 -0.37712403817E+02  0.65082159506E+01 -0.40695579149E+02  0.47279736067E+03  0.46948549692E+03 0.  0.
         13    1    3    3    0    0 -0.88069560594E+01  0.16894685737E+03 -0.18708018152E+03  0.25222925566E+03  0.00000000000E+00 0.  1.
          1    1    3    3  501    0 -0.28905447758E+02 -0.16243864142E+03  0.14638460237E+03  0.22056810501E+03  0.00000000000E+00 0.  1.
         21    1    1    2  502  501  0.37712403817E+02 -0.65082159506E+01  0.18053608335E+01  0.38312421018E+02  0.00000000000E+00 0. -1.
<scales pt_clust_4="550.00000" pt_clust_5="550.00000" pt_clust_6="38.26986"></scales>
<mgrwt>
<rscale>  0 0.30000000E+03</rscale>
<asrwt>  1 0.38269861E+02</asrwt>
<pdfrwt beam="1">  1        1 0.85858102E+00 0.30000000E+03</pdfrwt>
<pdfrwt beam="2">0</pdfrwt>
<totfact> 0.32935208E-04</totfact>
</mgrwt>
<clustering>
<clus scale="   38.270">  1  6  2 -1</clus>
<clus scale="  469.485">  4  5 -1 -1</clus>
<clus scale="  300.000">  1  4  2 -1</clus>
</clustering>
</event>
<event>
 6    1  0.9462926E-012  0.3000000E+03  0.7818608E-02  0.1093470E+00
          1   -1    0    0  502    0  0.00000000000E+00  0.00000000000E+00  0.25441845794E+03  0.25441845794E+03  0.00000000000E+00 0.  1.
         13   -1    0    0    0    0 -0.00000000000E+00 -0.00000000000E+00 -0.27500000000E+03  0.27500000000E+03  0.00000000000E+00 0.  1.
    9000005    2    1    2  501    0  0.38257688477E+02  0.50051613154E+00 -0.73667227563E+01  0.48893966482E+03  0.48738467968E+03 0.  0.
         13    1    3    3    0    0  0.11320015810E+03 -0.25119430935E+02  0.21971913355E+03  0.24843864283E+03  0.00000000000E+00 0.  1.
          3    1    3    3  501    0 -0.74942469625E+02  0.25619947066E+02 -0.22708585631E+03  0.24050102198E+03  0.00000000000E+00 0.  1.
         21    1    1    2  502  501 -0.38257688477E+02 -0.50051613154E+00 -0.13214819300E+02  0.40478793128E+02  0.00000000000E+00 0.  1.
<scales pt_clust_4="550.00000" pt_clust_5="550.00000" pt_clust_6="38.26098"></scales>
<mgrwt>
<rscale>  0 0.30000000E+03</rscale>
<asrwt>  1 0.38260982E+02</asrwt>
<pdfrwt beam="1">  1        1 0.92515803E+00 0.30000000E+03</pdfrwt>
<pdfrwt beam="2">0</pdfrwt>
<totfact> 0.32015484E-05</totfact>
</mgrwt>
<clustering>
<clus scale="   38.261">  1  6  2 -1</clus>
<clus scale="  487.385">  4  5 -1 -1</clus>
<clus scale="  300.000">  1  4  2 -1</clus>
</clustering>
</event>
<event>
 6    1  0.9462926E-012  0.3000000E+03  0.7818608E-02  0.1093470E+00
          1   -1    0    0  502    0  0.00000000000E+00  0.00000000000E+00  0.24634377375E+03  0.24634377375E+03  0.00000000000E+00 0.  1.
         13   -1    0    0    0    0 -0.00000000000E+00 -0.00000000000E+00 -0.27500000000E+03  0.27500000000E+03  0.00000000000E+00 0.  1.
    9000005    2    1    2  501    0 -0.42513186629E+02 -0.17533220996E+02 -0.34920860044E+02  0.47493223949E+03  0.47140893157E+03 0.  0.
         13    1    3    3    0    0  0.12768148433E+03 -0.17724125415E+03  0.54259501204E+02  0.22508024588E+03  0.00000000000E+00 0.  1.
          1    1    3    3  501    0 -0.17019467096E+03  0.15970803316E+03 -0.89180361248E+02  0.24985199361E+03  0.00000000000E+00 0.  1.
         21    1    1    2  502  501  0.42513186629E+02  0.17533220996E+02  0.62646337947E+01  0.46411534261E+02  0.00000000000E+00 0. -1.
<scales pt_clust_4="550.00000" pt_clust_5="550.00000" pt_clust_6="45.98679"></scales>
<mgrwt>
<rscale>  0 0.30000000E+03</rscale>
<asrwt>  1 0.45986790E+02</asrwt>
<pdfrwt beam="1">  1        1 0.89579554E+00 0.30000000E+03</pdfrwt>
<pdfrwt beam="2">0</pdfrwt>
<totfact> 0.11753564E-04</totfact>
</mgrwt>
<clustering>
<clus scale="   45.987">  1  6  2 -1</clus>
<clus scale="  471.409">  4  5 -1 -1</clus>
<clus scale="  300.000">  1  4  2 -1</clus>
</clustering>
</event>
<event>
 6    1  0.9462926E-012  0.3000000E+03  0.7818608E-02  0.1093470E+00
          1   -1    0    0  502    0  0.00000000000E+00  0.00000000000E+00  0.24314598131E+03  0.24314598131E+03  0.00000000000E+00 0.  1.
         13   -1    0    0    0    0 -0.00000000000E+00 -0.00000000000E+00 -0.27500000000E+03  0.27500000000E+03  0.00000000000E+00 0.  1.
    9000005    2    1    2  501    0 -0.34150538626E+02  0.23571464717E+02 -0.49796509346E+02  0.47293750635E+03  0.46847445964E+03 0.  0.
         13    1    3    3    0    0 -0.17211970752E+03 -0.67800719766E+01 -0.20187016564E+03  0.26537280732E+03  0.00000000000E+00 0.  1.
          1    1    3    3  501    0  0.13796916889E+03  0.30351536694E+02  0.15207365629E+03  0.20756469903E+03  0.00000000000E+00 0.  1.
         21    1    1    2  502  501  0.34150538626E+02 -0.23571464717E+02  0.17942490657E+02  0.45208474961E+02  0.00000000000E+00 0.  1.
<scales pt_clust_4="550.00000" pt_clust_5="550.00000" pt_clust_6="41.49546"></scales>
<mgrwt>
<rscale>  0 0.30000000E+03</rscale>
<asrwt>  1 0.41495460E+02</asrwt>
<pdfrwt beam="1">  1        1 0.88416720E+00 0.30000000E+03</pdfrwt>
<pdfrwt beam="2">0</pdfrwt>
<totfact> 0.16882855E-04</totfact>
</mgrwt>
<clustering>
<clus scale="   41.495">  1  6  2 -1</clus>
<clus scale="  468.474">  4  5 -1 -1</clus>
<clus scale="  300.000">  1  4  2 -1</clus>
</clustering>
</event>
<event>
 6    1  0.9462926E-012  0.3000000E+03  0.7818608E-02  0.1093470E+00
          1   -1    0    0  502    0  0.00000000000E+00  0.00000000000E+00  0.22686230033E+03  0.22686230033E+03  0.00000000000E+00 0.  1.
         13   -1    0    0    0    0 -0.00000000000E+00 -0.00000000000E+00 -0.27500000000E+03  0.27500000000E+03  0.00000000000E+00 0.  1.
    9000005    2    1    2  501    0  0.26959722683E+02  0.15005639767E+02 -0.49606098490E+02  0.47097294833E+03  0.46733580772E+03 0.  0.
         13    1    3    3    0    0  0.12192512058E+02 -0.15413985331E+03 -0.19400524097E+03  0.24808423016E+03  0.00000000000E+00 0.  1.
          1    1    3    3  501    0  0.14767210625E+02  0.16914549308E+03  0.14439914248E+03  0.22288871817E+03  0.00000000000E+00 0.  1.
         21    1    1    2  502  501 -0.26959722683E+02 -0.15005639767E+02  0.14683988196E+01  0.30889352001E+02  0.00000000000E+00 0. -1.
<scales pt_clust_4="550.00000" pt_clust_5="550.00000" pt_clust_6="30.85443"></scales>
<mgrwt>
<rscale>  0 0.30000000E+03</rscale>
<asrwt>  1 0.30854430E+02</asrwt>
<pdfrwt beam="1">  1        1 0.82495382E+00 0.30000000E+03</pdfrwt>
<pdfrwt beam="2">0</pdfrwt>
<totfact> 0.66957874E-04</totfact>
</mgrwt>
<clustering>
<clus scale="   30.854">  1  6  2 -1</clus>
<clus scale="  467.336">  4  5 -1 -1</clus>
<clus scale="  300.000">  1  4  2 -1</clus>
</clustering>
</event>
<event>
 6    1  0.9462926E-012  0.3000000E+03  0.7818608E-02  0.1093470E+00
          1   -1    0    0  502    0  0.00000000000E+00  0.00000000000E+00  0.24378268712E+03  0.24378268712E+03  0.00000000000E+00 0.  1.
         13   -1    0    0    0    0 -0.00000000000E+00 -0.00000000000E+00 -0.27500000000E+03  0.27500000000E+03  0.00000000000E+00 0.  1.
    9000005    2    1    2  501    0  0.11513745788E+02  0.33657349354E+02 -0.57319259427E+02  0.47466131904E+03  0.46984304484E+03 0.  0.
         13    1    3    3    0    0 -0.21921672961E+03 -0.49651426142E+02 -0.11158004866E+02  0.22504608358E+03  0.00000000000E+00 0.  1.
          3    1    3    3  501    0  0.23073047540E+03  0.83308775495E+02 -0.46161254561E+02  0.24961523547E+03  0.00000000000E+00 0.  1.
         21    1    1    2  502  501 -0.11513745788E+02 -0.33657349354E+02  0.26101946550E+02  0.44121368080E+02  0.00000000000E+00 0.  1.
<scales pt_clust_4="550.00000" pt_clust_5="550.00000" pt_clust_6="35.57223"></scales>
<mgrwt>
<rscale>  0 0.30000000E+03</rscale>
<asrwt>  1 0.35572229E+02</asrwt>
<pdfrwt beam="1">  1        1 0.88648250E+00 0.30000000E+03</pdfrwt>
<pdfrwt beam="2">0</pdfrwt>
<totfact> 0.16142574E-04</totfact>
</mgrwt>
<clustering>
<clus scale="   35.572">  1  6  2 -1</clus>
<clus scale="  469.843">  4  5 -1 -1</clus>
<clus scale="  300.000">  1  4  2 -1</clus>
</clustering>
</event>
<event>
 6    1  0.9462926E-012  0.3000000E+03  0.7818608E-02  0.1093470E+00
          1   -1    0    0  502    0  0.00000000000E+00  0.00000000000E+00  0.24555124559E+03  0.24555124559E+03  0.00000000000E+00 0.  1.
         13   -1    0    0    0    0 -0.00000000000E+00 -0.00000000000E+00 -0.27500000000E+03  0.27500000000E+03  0.00000000000E+00 0.  1.
    9000005    2    1    2  501    0 -0.35533212437E+02  0.55262826720E+01 -0.28510594248E+02  0.48457862919E+03  0.48240070988E+03 0.  0.
         13    1    3    3    0    0 -0.80802022111E+02  0.59431787603E+02  0.21170316718E+03  0.23426338841E+03  0.00000000000E+00 0.  1.
          3    1    3    3  501    0  0.45268809675E+02 -0.53905504931E+02 -0.24021376142E+03  0.25031524078E+03  0.00000000000E+00 0.  1.
         21    1    1    2  502  501  0.35533212437E+02 -0.55262826720E+01 -0.93816016108E+00  0.35972616401E+02  0.00000000000E+00 0. -1.
<scales pt_clust_4="550.00000" pt_clust_5="550.00000" pt_clust_6="35.96038"></scales>
<mgrwt>
<rscale>  0 0.30000000E+03</rscale>
<asrwt>  1 0.35960381E+02</asrwt>
<pdfrwt beam="1">  1        1 0.89291362E+00 0.30000000E+03</pdfrwt>
<pdfrwt beam="2">0</pdfrwt>
<totfact> 0.13256691E-04</totfact>
</mgrwt>
<clustering>
<clus scale="   35.960">  1  6  2 -1</clus>
<clus scale="  482.401">  4  5 -1 -1</clus>
<clus scale="  300.000">  1  4  2 -1</clus>
</clustering>
</event>
<event>
 6    1  0.9462926E-012  0.3000000E+03  0.7818608E-02  0.1093470E+00
          1   -1    0    0  502    0  0.00000000000E+00  0.00000000000E+00  0.21951100505E+03  0.21951100505E+03  0.00000000000E+00 0.  1.
         13   -1    0    0    0    0 -0.00000000000E+00 -0.00000000000E+00 -0.27500000000E+03  0.27500000000E+03  0.00000000000E+00 0.  1.
    9000005    2    1    2  501    0 -0.30758998366E+02  0.20192149627E+01 -0.65540996395E+02  0.46208823616E+03  0.45637673317E+03 0.  0.
         13    1    3    3    0    0  0.46672066022E+02 -0.21851833985E+03 -0.39419502671E+02  0.22689743011E+03  0.00000000000E+00 0.  1.
          3    1    3    3  501    0 -0.77431064387E+02  0.22053755481E+03 -0.26121493724E+02  0.23519080605E+03  0.00000000000E+00 0.  1.
         21    1    1    2  502  501  0.30758998366E+02 -0.20192149627E+01  0.10052001441E+02  0.32422768890E+02  0.00000000000E+00 0. -1.
<scales pt_clust_4="550.00000" pt_clust_5="550.00000" pt_clust_6="30.82520"></scales>
<mgrwt>
<rscale>  0 0.30000000E+03</rscale>
<asrwt>  1 0.30825204E+02</asrwt>
<pdfrwt beam="1">  1        1 0.79822184E+00 0.30000000E+03</pdfrwt>
<pdfrwt beam="2">0</pdfrwt>
<totfact> 0.10942181E-03</totfact>
</mgrwt>
<clustering>
<clus scale="   30.825">  1  6  2 -1</clus>
<clus scale="  456.377">  4  5 -1 -1</clus>
<clus scale="  300.000">  1  4  2 -1</clus>
</clustering>
</event>
<event>
 6    1  0.9462926E-012  0.3000000E+03  0.7818608E-02  0.1093470E+00
          1   -1    0    0  502    0  0.00000000000E+00  0.00000000000E+00  0.23197696925E+03  0.23197696925E+03  0.00000000000E+00 0.  1.
         13   -1    0    0    0    0 -0.00000000000E+00 -0.00000000000E+00 -0.27500000000E+03  0.27500000000E+03  0.00000000000E+00 0.  1.
    9000005    2    1    2  501    0 -0.26312451227E+02  0.32115213464E+02 -0.45008061841E+02  0.46541169078E+03  0.46136599816E+03 0.  0.
         13    1    3    3    0    0 -0.95632635796E+01 -0.13256161411E+03 -0.19901969059E+03  0.23931751877E+03  0.00000000000E+00 0.  1.
          1    1    3    3  501    0 -0.16749187647E+02  0.16467682758E+03  0.15401162875E+03  0.22609417201E+03  0.00000000000E+00 0.  1.
         21    1    1    2  502  501  0.26312451227E+02 -0.32115213464E+02  0.19850310865E+01  0.41565278465E+02  0.00000000000E+00 0. -1.
<scales pt_clust_4="550.00000" pt_clust_5="550.00000" pt_clust_6="41.51785"></scales>
<mgrwt>
<rscale>  0 0.30000000E+03</rscale>
<asrwt>  1 0.41517852E+02</asrwt>
<pdfrwt beam="1">  1        1 0.84355262E+00 0.30000000E+03</pdfrwt>
<pdfrwt beam="2">0</pdfrwt>
<totfact> 0.45061181E-04</totfact>
</mgrwt>
<clustering>
<clus scale="   41.518">  1  6  2 -1</clus>
<clus scale="  461.366">  4  5 -1 -1</clus>
<clus scale="  300.000">  1  4  2 -1</clus>
</clustering>
</event>
<event>
 6    1  0.9462926E-012  0.3000000E+03  0.7818608E-02  0.1093470E+00
          1   -1    0    0  502    0  0.00000000000E+00  0.00000000000E+00  0.23013630090E+03  0.23013630090E+03  0.00000000000E+00 0.  1.
         13   -1    0    0    0    0 -0.00000000000E+00 -0.00000000000E+00 -0.27500000000E+03  0.27500000000E+03  0.00000000000E+00 0.  1.
    9000005    2    1    2  501    0  0.29175798873E+02  0.24940013014E+02 -0.56628130294E+02  0.46499114764E+03  0.45993128917E+03 0.  0.
         13    1    3    3    0    0 -0.17507303361E+03  0.12286830106E+03  0.41945621899E+02  0.21796013787E+03  0.00000000000E+00 0.  1.
          1    1    3    3  501    0  0.20424883248E+03 -0.97928288043E+02 -0.98573752193E+02  0.24703100978E+03  0.00000000000E+00 0.  1.
         21    1    1    2  502  501 -0.29175798873E+02 -0.24940013014E+02  0.11764431198E+02  0.40145153262E+02  0.00000000000E+00 0.  1.
<scales pt_clust_4="550.00000" pt_clust_5="550.00000" pt_clust_6="38.38270"></scales>
<mgrwt>
<rscale>  0 0.30000000E+03</rscale>
<asrwt>  1 0.38382698E+02</asrwt>
<pdfrwt beam="1">  1        1 0.83685928E+00 0.30000000E+03</pdfrwt>
<pdfrwt beam="2">0</pdfrwt>
<totfact> 0.51552508E-04</totfact>
</mgrwt>
<clustering>
<clus scale="   38.383">  1  6  2 -1</clus>
<clus scale="  459.931">  4  5 -1 -1</clus>
<clus scale="  300.000">  1  4  2 -1</clus>
</clustering>
</event>
<event>
 6    1  0.9462926E-012  0.3000000E+03  0.7818608E-02  0.1093470E+00
          1   -1    0    0  502    0  0.00000000000E+00  0.00000000000E+00  0.23304471299E+03  0.23304471299E+03  0.00000000000E+00 0.  1.
         13   -1    0    0    0    0 -0.00000000000E+00 -0.00000000000E+00 -0.27500000000E+03  0.27500000000E+03  0.00000000000E+00 0.  1.
    9000005    2    1    2  501    0 -0.20036843129E+02  0.34221172912E+02 -0.36861814153E+02  0.46806337705E+03  0.46492146416E+03 0.  0.
         13    1    3    3    0    0 -0.30905469758E+01 -0.20701742049E+03 -0.80841789356E+02  0.22226371448E+03  0.00000000000E+00 0.  1.
          3    1    3    3  501    0 -0.16946296153E+02  0.24123859340E+03  0.43979975202E+02  0.24579966257E+03  0.00000000000E+00 0.  1.
         21    1    1    2  502  501  0.20036843129E+02 -0.34221172912E+02 -0.50934728543E+01  0.39981335942E+02  0.00000000000E+00 0.  1.
<scales pt_clust_4="550.00000" pt_clust_5="550.00000" pt_clust_6="39.65558"></scales>
<mgrwt>
<rscale>  0 0.30000000E+03</rscale>
<asrwt>  1 0.39655584E+02</asrwt>
<pdfrwt beam="1">  1        1 0.84743532E+00 0.30000000E+03</pdfrwt>
<pdfrwt beam="2">0</pdfrwt>
<totfact> 0.41998901E-04</totfact>
</mgrwt>
<clustering>
<clus scale="   39.656">  1  6  2 -1</clus>
<clus scale="  464.921">  4  5 -1 -1</clus>
<clus scale="  300.000">  1  4  2 -1</clus>
</clustering>
</event>
<event>
 6    1  0.9462926E-012  0.3000000E+03  0.7818608E-02  0.1093470E+00
          1   -1    0    0  502    0  0.00000000000E+00  0.00000000000E+00  0.23355455734E+03  0.23355455734E+03  0.00000000000E+00 0.  1.
         13   -1    0    0    0    0 -0.00000000000E+00 -0.00000000000E+00 -0.27500000000E+03  0.27500000000E+03  0.00000000000E+00 0.  1.
    9000005    2    1    2  501    0 -0.94967674041E+01 -0.34192847954E+02 -0.65133492219E+02  0.46588767165E+03  0.45994522646E+03 0.  0.
         13    1    3    3    0    0 -0.12153571495E+03 -0.55388600741E+02 -0.22968170585E+03  0.26569251608E+03  0.00000000000E+00 0.  1.
          1    1    3    3  501    0  0.11203894755E+03  0.21195752787E+02  0.16454821363E+03  0.20019515557E+03  0.00000000000E+00 0.  1.
         21    1    1    2  502  501  0.94967674041E+01  0.34192847954E+02  0.23688049560E+02  0.42666885688E+02  0.00000000000E+00 0. -1.
<scales pt_clust_4="550.00000" pt_clust_5="550.00000" pt_clust_6="35.48717"></scales>
<mgrwt>
<rscale>  0 0.30000000E+03</rscale>
<asrwt>  1 0.35487173E+02</asrwt>
<pdfrwt beam="1">  1        1 0.84928930E+00 0.30000000E+03</pdfrwt>
<pdfrwt beam="2">0</pdfrwt>
<totfact> 0.41219251E-04</totfact>
</mgrwt>
<clustering>
<clus scale="   35.487">  1  6  2 -1</clus>
<clus scale="  459.945">  4  5 -1 -1</clus>
<clus scale="  300.000">  1  4  2 -1</clus>
</clustering>
</event>
<event>
 6    1  0.9462926E-012  0.3000000E+03  0.7818608E-02  0.1093470E+00
          1   -1    0    0  502    0  0.00000000000E+00  0.00000000000E+00  0.25581047593E+03  0.25581047593E+03  0.00000000000E+00 0.  1.
         13   -1    0    0    0    0 -0.00000000000E+00 -0.00000000000E+00 -0.27500000000E+03  0.27500000000E+03  0.00000000000E+00 0.  1.
    9000005    2    1    2  501    0  0.19053355800E+02  0.28041659425E+02 -0.22211879903E+02  0.49677373600E+03  0.49511757405E+03 0.  0.
         13    1    3    3    0    0 -0.11032030622E+03 -0.19970139592E+03  0.28705188091E+02  0.22994609220E+03  0.00000000000E+00 0.  1.
          1    1    3    3  501    0  0.12937366202E+03  0.22774305534E+03 -0.50917067994E+02  0.26682764380E+03  0.00000000000E+00 0.  1.
         21    1    1    2  502  501 -0.19053355800E+02 -0.28041659425E+02  0.30223558342E+01  0.34036739935E+02  0.00000000000E+00 0. -1.
<scales pt_clust_4="550.00000" pt_clust_5="550.00000" pt_clust_6="33.90229"></scales>
<mgrwt>
<rscale>  0 0.30000000E+03</rscale>
<asrwt>  1 0.33902287E+02</asrwt>
<pdfrwt beam="1">  1        1 0.93021991E+00 0.30000000E+03</pdfrwt>
<pdfrwt beam="2">0</pdfrwt>
<totfact> 0.26239566E-05</totfact>
</mgrwt>
<clustering>
<clus scale="   33.902">  1  6  2 -1</clus>
<clus scale="  495.118">  4  5 -1 -1</clus>
<clus scale="  300.000">  1  4  2 -1</clus>
</clustering>
</event>
<event>
 6    1  0.9462926E-012  0.3000000E+03  0.7818608E-02  0.1093470E+00
          1   -1    0    0  502    0  0.00000000000E+00  0.00000000000E+00  0.26042835832E+03  0.26042835832E+03  0.00000000000E+00 0.  1.
         13   -1    0    0    0    0 -0.00000000000E+00 -0.00000000000E+00 -0.27500000000E+03  0.27500000000E+03  0.00000000000E+00 0.  1.
    9000005    2    1    2  501    0 -0.78520748802E+01  0.31232844583E+02  0.64599456531E+01  0.49696443592E+03  0.49587778132E+03 0.  0.
         13    1    3    3    0    0  0.90336644598E+02 -0.21345048443E+03  0.22234097823E+02  0.23284366808E+03  0.00000000000E+00 0.  1.
          3    1    3    3  501    0 -0.98188719479E+02  0.24468332901E+03 -0.15774152170E+02  0.26412076784E+03  0.00000000000E+00 0.  1.
         21    1    1    2  502  501  0.78520748802E+01 -0.31232844583E+02 -0.21031587333E+02  0.38463922400E+02  0.00000000000E+00 0.  1.
<scales pt_clust_4="550.00000" pt_clust_5="550.00000" pt_clust_6="32.20476"></scales>
<mgrwt>
<rscale>  0 0.30000000E+03</rscale>
<asrwt>  1 0.32204762E+02</asrwt>
<pdfrwt beam="1">  1        1 0.94701221E+00 0.30000000E+03</pdfrwt>
<pdfrwt beam="2">0</pdfrwt>
<totfact> 0.14417169E-05</totfact>
</mgrwt>
<clustering>
<clus scale="   32.205">  1  6  2 -1</clus>
<clus scale="  495.878">  4  5 -1 -1</clus>
<clus scale="  300.000">  1  4  2 -1</clus>
</clustering>
</event>
<event>
 6    1  0.9462926E-012  0.3000000E+03  0.7818608E-02  0.1093470E+00
          1   -1    0    0  502    0  0.00000000000E+00  0.00000000000E+00  0.22695033851E+03  0.22695033851E+03  0.00000000000E+00 0.  1.
         13   -1    0    0    0    0 -0.00000000000E+00 -0.00000000000E+00 -0.27500000000E+03  0.27500000000E+03  0.00000000000E+00 0.  1.
    9000005    2    1    2  501    0 -0.30049933073E+02  0.18888291240E+02 -0.46828748634E+02  0.46643616315E+03  0.46272021413E+03 0.  0.
         13    1    3    3    0    0  0.10946775357E+03 -0.23951393851E+02 -0.21580109159E+03  0.24316037809E+03  0.00000000000E+00 0.  1.
          1    1    3    3  501    0 -0.13951768665E+03  0.42839685092E+02  0.16897234296E+03  0.22327578505E+03  0.00000000000E+00 0.  1.
         21    1    1    2  502  501  0.30049933073E+02 -0.18888291240E+02 -0.12209128548E+01  0.35514175365E+02  0.00000000000E+00 0.  1.
<scales pt_clust_4="550.00000" pt_clust_5="550.00000" pt_clust_6="35.49318"></scales>
<mgrwt>
<rscale>  0 0.30000000E+03</rscale>
<asrwt>  1 0.35493183E+02</asrwt>
<pdfrwt beam="1">  1        1 0.82527396E+00 0.30000000E+03</pdfrwt>
<pdfrwt beam="2">0</pdfrwt>
<totfact> 0.64781153E-04</totfact>
</mgrwt>
<clustering>
<clus scale="   35.493">  1  6  2 -1</clus>
<clus scale="  462.720">  4  5 -1 -1</clus>
<clus scale="  300.000">  1  4  2 -1</clus>
</clustering>
</event>
<event>
 6    1  0.9462926E-012  0.3000000E+03  0.7818608E-02  0.1093470E+00
          1   -1    0    0  502    0  0.00000000000E+00  0.00000000000E+00  0.23745473277E+03  0.23745473277E+03  0.00000000000E+00 0.  1.
         13   -1    0    0    0    0 -0.00000000000E+00 -0.00000000000E+00 -0.27500000000E+03  0.27500000000E+03  0.00000000000E+00 0.  1.
    9000005    2    1    2  501    0  0.31486451423E+02  0.37569475953E+02 -0.43116610358E+02  0.46312014033E+03  0.45849575804E+03 0.  0.
         13    1    3    3    0    0  0.14460643517E+03  0.10682190213E+03 -0.19246909781E+03  0.26337481557E+03  0.00000000000E+00 0.  1.
          3    1    3    3  501    0 -0.11311998374E+03 -0.69252426180E+02  0.14935248745E+03  0.19974532476E+03  0.00000000000E+00 0.  1.
         21    1    1    2  502  501 -0.31486451423E+02 -0.37569475953E+02  0.55713431228E+01  0.49334592435E+02  0.00000000000E+00 0. -1.
<scales pt_clust_4="550.00000" pt_clust_5="550.00000" pt_clust_6="49.01900"></scales>
<mgrwt>
<rscale>  0 0.30000000E+03</rscale>
<asrwt>  1 0.49018998E+02</asrwt>
<pdfrwt beam="1">  1        1 0.86347176E+00 0.30000000E+03</pdfrwt>
<pdfrwt beam="2">0</pdfrwt>
<totfact> 0.27917607E-04</totfact>
</mgrwt>
<clustering>
<clus scale="   49.019">  1  6  2 -1</clus>
<clus scale="  458.496">  4  5 -1 -1</clus>
<clus scale="  300.000">  1  4  2 -1</clus>
</clustering>
</event>
<event>
 6    1  0.9462926E-012  0.3000000E+03  0.7818608E-02  0.1093470E+00
          1   -1    0    0  502    0  0.00000000000E+00  0.00000000000E+00  0.23878233324E+03  0.23878233324E+03  0.00000000000E+00 0.  1.
         13   -1    0    0    0    0 -0.00000000000E+00 -0.00000000000E+00 -0.27500000000E+03  0.27500000000E+03  0.00000000000E+00 0.  1.
    9000005    2    1    2  501    0  0.43012302616E+02 -0.74484611369E+01 -0.58408147910E+02  0.46481341245E+03  0.45905823041E+03 0.  0.
         13    1    3    3    0    0 -0.11645917359E+03 -0.10910357775E+03 -0.17955515825E+03  0.24022153243E+03  0.00000000000E+00 0.  1.
          1    1    3    3  501    0  0.15947147621E+03  0.10165511661E+03  0.12114701034E+03  0.22459188002E+03  0.00000000000E+00 0.  1.
         21    1    1    2  502  501 -0.43012302616E+02  0.74484611369E+01  0.22190481153E+02  0.48968920791E+02  0.00000000000E+00 0.  1.
<scales pt_clust_4="550.00000" pt_clust_5="550.00000" pt_clust_6="43.65247"></scales>
<mgrwt>
<rscale>  0 0.30000000E+03</rscale>
<asrwt>  1 0.43652466E+02</asrwt>
<pdfrwt beam="1">  1        1 0.86829939E+00 0.30000000E+03</pdfrwt>
<pdfrwt beam="2">0</pdfrwt>
<totfact> 0.25319483E-04</totfact>
</mgrwt>
<clustering>
<clus scale="   43.652">  1  6  2 -1</clus>
<clus scale="  459.058">  4  5 -1 -1</clus>
<clus scale="  300.000">  1  4  2 -1</clus>
</clustering>
</event>
<event>
 6    1  0.9462926E-012  0.3000000E+03  0.7818608E-02  0.1093470E+00
          1   -1    0    0  502    0  0.00000000000E+00  0.00000000000E+00  0.25860350845E+03  0.25860350845E+03  0.00000000000E+00 0.  1.
         13   -1    0    0    0    0 -0.00000000000E+00 -0.00000000000E+00 -0.27500000000E+03  0.27500000000E+03  0.00000000000E+00 0.  1.
    9000005    2    1    2  501    0 -0.86756353371E+01 -0.29888142923E+02 -0.43581422979E+02  0.49228053381E+03  0.48935898460E+03 0.  0.
         13    1    3    3    0    0  0.56881115651E+02 -0.15304856780E+03 -0.21581872527E+03  0.27062344244E+03  0.00000000000E+00 0.  1.
          1    1    3    3  501    0 -0.65556750989E+02  0.12316042487E+03  0.17223730229E+03  0.22165709137E+03  0.00000000000E+00 0.  1.
         21    1    1    2  502  501  0.86756353371E+01  0.29888142923E+02  0.27184931424E+02  0.41322974632E+02  0.00000000000E+00 0. -1.
<scales pt_clust_4="550.00000" pt_clust_5="550.00000" pt_clust_6="31.12182"></scales>
<mgrwt>
<rscale>  0 0.30000000E+03</rscale>
<asrwt>  1 0.31121821E+02</asrwt>
<pdfrwt beam="1">  1        1 0.94037639E+00 0.30000000E+03</pdfrwt>
<pdfrwt beam="2">0</pdfrwt>
<totfact> 0.19301831E-05</totfact>
</mgrwt>
<clustering>
<clus scale="   31.122">  1  6  2 -1</clus>
<clus scale="  489.359">  4  5 -1 -1</clus>
<clus scale="  300.000">  1  4  2 -1</clus>
</clustering>
</event>
<event>
 6    1  0.9462926E-012  0.3000000E+03  0.7818608E-02  0.1093470E+00
          1   -1    0    0  502    0  0.00000000000E+00  0.00000000000E+00  0.23654575603E+03  0.23654575603E+03  0.00000000000E+00 0.  1.
         13   -1    0    0    0    0 -0.00000000000E+00 -0.00000000000E+00 -0.27500000000E+03  0.27500000000E+03  0.00000000000E+00 0.  1.
    9000005    2    1    2  501    0 -0.38052242904E+02 -0.32596857268E+01 -0.37026645511E+02  0.47332747796E+03  0.47032895953E+03 0.  0.
         13    1    3    3    0    0 -0.46890690900E+02 -0.11685498079E+03 -0.22249790235E+03  0.25565433691E+03  0.00000000000E+00 0.  1.
          3    1    3    3  501    0  0.88384479960E+01  0.11359529506E+03  0.18547125684E+03  0.21767314105E+03  0.00000000000E+00 0.  1.
         21    1    1    2  502  501  0.38052242904E+02  0.32596857268E+01 -0.14275984615E+01  0.38218278067E+02  0.00000000000E+00 0.  1.
<scales pt_clust_4="550.00000" pt_clust_5="550.00000" pt_clust_6="38.19161"></scales>
<mgrwt>
<rscale>  0 0.30000000E+03</rscale>
<asrwt>  1 0.38191606E+02</asrwt>
<pdfrwt beam="1">  1        1 0.86016639E+00 0.30000000E+03</pdfrwt>
<pdfrwt beam="2">0</pdfrwt>
<totfact> 0.31696840E-04</totfact>
</mgrwt>
<clustering>
<clus scale="   38.192">  1  6  2 -1</clus>
<clus scale="  470.329">  4  5 -1 -1</clus>
<clus scale="  300.000">  1  4  2 -1</clus>
</clustering>
</event>
<event>
 6    1  0.9462926E-012  0.3000000E+03  0.7818608E-02  0.1093470E+00
          1   -1    0    0  502    0  0.00000000000E+00  0.00000000000E+00  0.24616548794E+03  0.24616548794E+03  0.00000000000E+00 0.  1.
         13   -1    0    0    0    0 -0.00000000000E+00 -0.00000000000E+00 -0.27500000000E+03  0.27500000000E+03  0.00000000000E+00 0.  1.
    9000005    2    1    2  501    0  0.33237774372E+02 -0.27735323054E+02 -0.52831022779E+02  0.47166972734E+03  0.46669820755E+03 0.  0.
         13    1    3    3    0    0 -0.44279795351E+02 -0.17616741968E+03 -0.18430167063E+03  0.25877164804E+03  0.00000000000E+00 0.  1.
          1    1    3    3  501    0  0.77517569723E+02  0.14843209663E+03  0.13147064785E+03  0.21289807930E+03  0.00000000000E+00 0.  1.
         21    1    1    2  502  501 -0.33237774372E+02  0.27735323054E+02  0.23996510714E+02  0.49495760592E+02  0.00000000000E+00 0. -1.
<scales pt_clust_4="550.00000" pt_clust_5="550.00000" pt_clust_6="43.28970"></scales>
<mgrwt>
<rscale>  0 0.30000000E+03</rscale>
<asrwt>  1 0.43289696E+02</asrwt>
<pdfrwt beam="1">  1        1 0.89514723E+00 0.30000000E+03</pdfrwt>
<pdfrwt beam="2">0</pdfrwt>
<totfact> 0.12081103E-04</totfact>
</mgrwt>
<clustering>
<clus scale="   43.290">  1  6  2 -1</clus>
<clus scale="  466.698">  4  5 -1 -1</clus>
<clus scale="  300.000">  1  4  2 -1</clus>
</clustering>
</event>
<event>
 6    1  0.9462926E-012  0.3000000E+03  0.7818608E-02  0.1093470E+00
          1   -1    0    0  502    0  0.00000000000E+00  0.00000000000E+00  0.23240221877E+03  0.23240221877E+03  0.00000000000E+00 0.  1.
         13   -1    0    0    0    0 -0.00000000000E+00 -0.00000000000E+00 -0.27500000000E+03  0.27500000000E+03  0.00000000000E+00 0.  1.
    9000005    2    1    2  501    0 -0.26469964997E+02  0.14359595081E+02 -0.56624513584E+02  0.47418164926E+03  0.46982448206E+03 0.  0.
         13    1    3    3    0    0 -0.74400915819E+02  0.22898621675E+03  0.19271323076E+02  0.24153999178E+03  0.00000000000E+00 0.  1.
          3    1    3    3  501    0  0.47930950822E+02 -0.21462662167E+03 -0.75895836659E+02  0.23264165748E+03  0.00000000000E+00 0.  1.
         21    1    1    2  502  501  0.26469964997E+02 -0.14359595081E+02  0.14026732355E+02  0.33220569508E+02  0.00000000000E+00 0.  1.
<scales pt_clust_4="550.00000" pt_clust_5="550.00000" pt_clust_6="30.11407"></scales>
<mgrwt>
<rscale>  0 0.30000000E+03</rscale>
<asrwt>  1 0.30114067E+02</asrwt>
<pdfrwt beam="1">  1        1 0.84509898E+00 0.30000000E+03</pdfrwt>
<pdfrwt beam="2">0</pdfrwt>
<totfact> 0.46397224E-04</totfact>
</mgrwt>
<clustering>
<clus scale="   30.114">  1  6  2 -1</clus>
<clus scale="  469.824">  4  5 -1 -1</clus>
<clus scale="  300.000">  1  4  2 -1</clus>
</clustering>
</event>
<event>
 6    1  0.9462926E-012  0.3000000E+03  0.7818608E-02  0.1093470E+00
          1   -1    0    0  502    0  0.00000000000E+00  0.00000000000E+00  0.26546167458E+03  0.26546167458E+03  0.00000000000E+00 0.  1.
         13   -1    0    0    0    0 -0.00000000000E+00 -0.00000000000E+00 -0.27500000000E+03  0.27500000000E+03  0.00000000000E+00 0.  1.
    9000005    2    1    2  501    0  0.38961752457E+02  0.24566004362E+02 -0.34237703818E+02  0.48819728883E+03  0.48481219635E+03 0.  0.
         13    1    3    3    0    0  0.23639240250E+03  0.82767087981E+02 -0.10352876354E+03  0.27101653768E+03  0.00000000000E+00 0.  1.
          1    1    3    3  501    0 -0.19743065005E+03 -0.58201083619E+02  0.69291059727E+02  0.21718075115E+03  0.00000000000E+00 0.  1.
         21    1    1    2  502  501 -0.38961752457E+02 -0.24566004362E+02  0.24699378403E+02  0.52264385755E+02  0.00000000000E+00 0.  1.
<scales pt_clust_4="550.00000" pt_clust_5="550.00000" pt_clust_6="46.05982"></scales>
<mgrwt>
<rscale>  0 0.30000000E+03</rscale>
<asrwt>  1 0.46059817E+02</asrwt>
<pdfrwt beam="1">  1        1 0.96531518E+00 0.30000000E+03</pdfrwt>
<pdfrwt beam="2">0</pdfrwt>
<totfact> 0.55880142E-06</totfact>
</mgrwt>
<clustering>
<clus scale="   46.060">  1  6  2 -1</clus>
<clus scale="  484.812">  4  5 -1 -1</clus>
<clus scale="  300.000">  1  4  2 -1</clus>
</clustering>
</event>
<event>
 6    1  0.9462926E-012  0.3000000E+03  0.7818608E-02  0.1093470E+00
          1   -1    0    0  502    0  0.00000000000E+00  0.00000000000E+00  0.23923587643E+03  0.23923587643E+03  0.00000000000E+00 0.  1.
         13   -1    0    0    0    0 -0.00000000000E+00 -0.00000000000E+00 -0.27500000000E+03  0.27500000000E+03  0.00000000000E+00 0.  1.
    9000005    2    1    2  501    0 -0.29507974420E+02  0.24049387127E+02 -0.50723328825E+02  0.47333512586E+03  0.46906736372E+03 0.  0.
         13    1    3    3    0    0 -0.33067060317E+02 -0.77687845072E+02  0.19220883722E+03  0.20993586844E+03  0.00000000000E+00 0.  1.
          1    1    3    3  501    0  0.35590858975E+01  0.10173723220E+03 -0.24293216605E+03  0.26339925742E+03  0.00000000000E+00 0.  1.
         21    1    1    2  502  501  0.29507974420E+02 -0.24049387127E+02  0.14959205252E+02  0.40900750572E+02  0.00000000000E+00 0.  1.
<scales pt_clust_4="550.00000" pt_clust_5="550.00000" pt_clust_6="38.06696"></scales>
<mgrwt>
<rscale>  0 0.30000000E+03</rscale>
<asrwt>  1 0.38066962E+02</asrwt>
<pdfrwt beam="1">  1        1 0.86994864E+00 0.30000000E+03</pdfrwt>
<pdfrwt beam="2">0</pdfrwt>
<totfact> 0.24963469E-04</totfact>
</mgrwt>
<clustering>
<clus scale="   38.067">  1  6  2 -1</clus>
<clus scale="  469.067">  4  5 -1 -1</clus>
<clus scale="  300.000">  1  4  2 -1</clus>
</clustering>
</event>
<event>
 6    1  0.9462926E-012  0.3000000E+03  0.7818608E-02  0.1093470E+00
          1   -1    0    0  502    0  0.00000000000E+00  0.00000000000E+00  0.23620528871E+03  0.23620528871E+03  0.00000000000E+00 0.  1.
         13   -1    0    0    0    0 -0.00000000000E+00 -0.00000000000E+00 -0.27500000000E+03  0.27500000000E+03  0.00000000000E+00 0.  1.
    9000005    2    1    2  501    0 -0.17429952045E+02 -0.24645590989E+02 -0.40265480110E+02  0.48098325132E+03  0.47834336075E+03 0.  0.
         13    1    3    3    0    0  0.18421289777E+03 -0.15302403138E+03 -0.64966472219E+01  0.23956826232E+03  0.00000000000E+00 0.  1.
          1    1    3    3  501    0 -0.20164284981E+03  0.12837844039E+03 -0.33768832888E+02  0.24141498900E+03  0.00000000000E+00 0.  1.
         21    1    1    2  502  501  0.17429952045E+02  0.24645590989E+02  0.14707688246E+01  0.30222037397E+02  0.00000000000E+00 0.  1.
<scales pt_clust_4="550.00000" pt_clust_5="550.00000" pt_clust_6="30.18623"></scales>
<mgrwt>
<rscale>  0 0.30000000E+03</rscale>
<asrwt>  1 0.30186228E+02</asrwt>
<pdfrwt beam="1">  1        1 0.85892832E+00 0.30000000E+03</pdfrwt>
<pdfrwt beam="2">0</pdfrwt>
<totfact> 0.34149727E-04</totfact>
</mgrwt>
<clustering>
<clus scale="   30.186">  1  6  2 -1</clus>
<clus scale="  478.343">  4  5 -1 -1</clus>
<clus scale="  300.000">  1  4  2 -1</clus>
</clustering>
</event>
<event>
 6    1  0.9462926E-012  0.3000000E+03  0.7818608E-02  0.1093470E+00
          1   -1    0    0  502    0  0.00000000000E+00  0.00000000000E+00  0.25660024616E+03  0.25660024616E+03  0.00000000000E+00 0.  1.
         13   -1    0    0    0    0 -0.00000000000E+00 -0.00000000000E+00 -0.27500000000E+03  0.27500000000E+03  0.00000000000E+00 0.  1.
    9000005    2    1    2  501    0 -0.20617085918E+02  0.30160763213E+02 -0.59757372963E+02  0.47641701928E+03  0.47124038109E+03 0.  0.
         13    1    3    3    0    0 -0.11063199458E+03  0.37272454483E+02  0.18319342467E+03  0.21722915304E+03  0.00000000000E+00 0.  1.
          1    1    3    3  501    0  0.90014908659E+02 -0.71116912705E+01 -0.24295079764E+03  0.25918786624E+03  0.00000000000E+00 0.  1.
         21    1    1    2  502  501  0.20617085918E+02 -0.30160763213E+02  0.41357619124E+02  0.55183226880E+02  0.00000000000E+00 0. -1.
<scales pt_clust_4="550.00000" pt_clust_5="550.00000" pt_clust_6="36.53404"></scales>
<mgrwt>
<rscale>  0 0.30000000E+03</rscale>
<asrwt>  1 0.36534037E+02</asrwt>
<pdfrwt beam="1">  1        1 0.93309180E+00 0.30000000E+03</pdfrwt>
<pdfrwt beam="2">0</pdfrwt>
<totfact> 0.23589292E-05</totfact>
</mgrwt>
<clustering>
<clus scale="   36.534">  1  6  2 -1</clus>
<clus scale="  471.240">  4  5 -1 -1</clus>
<clus scale="  300.000">  1  4  2 -1</clus>
</clustering>
</event>
<event>
 6    1  0.9462926E-012  0.3000000E+03  0.7818608E-02  0.1093470E+00
          1   -1    0    0  502    0  0.00000000000E+00  0.00000000000E+00  0.24192770274E+03  0.24192770274E+03  0.00000000000E+00 0.  1.
         13   -1    0    0    0    0 -0.00000000000E+00 -0.00000000000E+00 -0.27500000000E+03  0.27500000000E+03  0.00000000000E+00 0.  1.
    9000005    2    1    2  501    0  0.29295472581E+02  0.22230182269E+02 -0.62374659923E+02  0.46990606756E+03  0.46429377382E+03 0.  0.
         13    1    3    3    0    0 -0.14377530775E+03  0.17152216827E+03  0.25016947919E+02  0.22520444270E+03  0.00000000000E+00 0.  1.
          1    1    3    3  501    0  0.17307078034E+03 -0.14929198600E+03 -0.87391607842E+02  0.24470162486E+03  0.00000000000E+00 0.  1.
         21    1    1    2  502  501 -0.29295472581E+02 -0.22230182269E+02  0.29302362668E+02  0.47021635184E+02  0.00000000000E+00 0. -1.
<scales pt_clust_4="550.00000" pt_clust_5="550.00000" pt_clust_6="36.77507"></scales>
<mgrwt>
<rscale>  0 0.30000000E+03</rscale>
<asrwt>  1 0.36775069E+02</asrwt>
<pdfrwt beam="1">  1        1 0.87973710E+00 0.30000000E+03</pdfrwt>
<pdfrwt beam="2">0</pdfrwt>
<totfact> 0.19702520E-04</totfact>
</mgrwt>
<clustering>
<clus scale="   36.775">  1  6  2 -1</clus>
<clus scale="  464.294">  4  5 -1 -1</clus>
<clus scale="  300.000">  1  4  2 -1</clus>
</clustering>
</event>
<event>
 6    1  0.9462926E-012  0.3000000E+03  0.7818608E-02  0.1093470E+00
          1   -1    0    0  502    0  0.00000000000E+00  0.00000000000E+00  0.24266886493E+03  0.24266886493E+03  0.00000000000E+00 0.  1.
         13   -1    0    0    0    0 -0.00000000000E+00 -0.00000000000E+00 -0.27500000000E+03  0.27500000000E+03  0.00000000000E+00 0.  1.
    9000005    2    1    2  501    0  0.11703179516E+02 -0.30851331646E+02 -0.43685027435E+02  0.48277359381E+03  0.47965945438E+03 0.  0.
         13    1    3    3    0    0  0.21186956480E+03  0.66004562655E+01 -0.14350920566E+03  0.25598275454E+03  0.00000000000E+00 0.  1.
          1    1    3    3  501    0 -0.20016638529E+03 -0.37451787911E+02  0.99824178225E+02  0.22679083927E+03  0.00000000000E+00 0.  1.
         21    1    1    2  502  501 -0.11703179516E+02  0.30851331646E+02  0.11353892368E+02  0.34895271127E+02  0.00000000000E+00 0.  1.
<scales pt_clust_4="550.00000" pt_clust_5="550.00000" pt_clust_6="32.99650"></scales>
<mgrwt>
<rscale>  0 0.30000000E+03</rscale>
<asrwt>  1 0.32996501E+02</asrwt>
<pdfrwt beam="1">  1        1 0.88243224E+00 0.30000000E+03</pdfrwt>
<pdfrwt beam="2">0</pdfrwt>
<totfact> 0.18581296E-04</totfact>
</mgrwt>
<clustering>
<clus scale="   32.997">  1  6  2 -1</clus>
<clus scale="  479.659">  4  5 -1 -1</clus>
<clus scale="  300.000">  1  4  2 -1</clus>
</clustering>
</event>
<event>
 6    1  0.9462926E-012  0.3000000E+03  0.7818608E-02  0.1093470E+00
          1   -1    0    0  502    0  0.00000000000E+00  0.00000000000E+00  0.23367135830E+03  0.23367135830E+03  0.00000000000E+00 0.  1.
         13   -1    0    0    0    0 -0.00000000000E+00 -0.00000000000E+00 -0.27500000000E+03  0.27500000000E+03  0.00000000000E+00 0.  1.
    9000005    2    1    2  501    0 -0.16430362545E+02 -0.25769440442E+02 -0.44025433265E+02  0.47799085050E+03  0.47497683471E+03 0.  0.
         13    1    3    3    0    0  0.20676678985E+03  0.23540207633E+01  0.79273726315E+02  0.22145512070E+03  0.00000000000E+00 0.  1.
          3    1    3    3  501    0 -0.22319715240E+03 -0.28123461206E+02 -0.12329915958E+03  0.25653572980E+03  0.00000000000E+00 0.  1.
         21    1    1    2  502  501  0.16430362545E+02  0.25769440442E+02  0.26967915601E+01  0.30680507799E+02  0.00000000000E+00 0.  1.
<scales pt_clust_4="550.00000" pt_clust_5="550.00000" pt_clust_6="30.56176"></scales>
<mgrwt>
<rscale>  0 0.30000000E+03</rscale>
<asrwt>  1 0.30561755E+02</asrwt>
<pdfrwt beam="1">  1        1 0.84971403E+00 0.30000000E+03</pdfrwt>
<pdfrwt beam="2">0</pdfrwt>
<totfact> 0.42016005E-04</totfact>
</mgrwt>
<clustering>
<clus scale="   30.562">  1  6  2 -1</clus>
<clus scale="  474.977">  4  5 -1 -1</clus>
<clus scale="  300.000">  1  4  2 -1</clus>
</clustering>
</event>
<event>
 6    1  0.9462926E-012  0.3000000E+03  0.7818608E-02  0.1093470E+00
          1   -1    0    0  502    0  0.00000000000E+00  0.00000000000E+00  0.23631464586E+03  0.23631464586E+03  0.00000000000E+00 0.  1.
         13   -1    0    0    0    0 -0.00000000000E+00 -0.00000000000E+00 -0.27500000000E+03  0.27500000000E+03  0.00000000000E+00 0.  1.
    9000005    2    1    2  501    0 -0.15607334682E+02  0.29538123522E+02 -0.30905007093E+02  0.47701270076E+03  0.47483671676E+03 0.  0.
         13    1    3    3    0    0 -0.21384109092E+03 -0.49574323557E+02  0.83488550709E+02  0.23485306858E+03  0.00000000000E+00 0.  1.
          1    1    3    3  501    0  0.19823375623E+03  0.79112447080E+02 -0.11439355780E+03  0.24215963218E+03  0.00000000000E+00 0.  1.
         21    1    1    2  502  501  0.15607334682E+02 -0.29538123522E+02 -0.77803470510E+01  0.34301945096E+02  0.00000000000E+00 0. -1.
<scales pt_clust_4="550.00000" pt_clust_5="550.00000" pt_clust_6="33.40794"></scales>
<mgrwt>
<rscale>  0 0.30000000E+03</rscale>
<asrwt>  1 0.33407944E+02</asrwt>
<pdfrwt beam="1">  1        1 0.85932598E+00 0.30000000E+03</pdfrwt>
<pdfrwt beam="2">0</pdfrwt>
<totfact> 0.33173493E-04</totfact>
</mgrwt>
<clustering>
<clus scale="   33.408">  1  6  2 -1</clus>
<clus scale="  474.837">  4  5 -1 -1</clus>
<clus scale="  300.000">  1  4  2 -1</clus>
</clustering>
</event>
<event>
 6    1  0.9462926E-012  0.3000000E+03  0.7818608E-02  0.1093470E+00
          1   -1    0    0  502    0  0.00000000000E+00  0.00000000000E+00  0.24575404689E+03  0.24575404689E+03  0.00000000000E+00 0.  1.
         13   -1    0    0    0    0 -0.00000000000E+00 -0.00000000000E+00 -0.27500000000E+03  0.27500000000E+03  0.00000000000E+00 0.  1.
    9000005    2    1    2  501    0  0.39686171795E+02  0.34846327305E+01 -0.16189286646E+02  0.47883017020E+03  0.47689527571E+03 0.  0.
         13    1    3    3    0    0 -0.30544275069E+02  0.17121501872E+03  0.15211545489E+03  0.23105550630E+03  0.00000000000E+00 0.  1.
          3    1    3    3  501    0  0.70230446864E+02 -0.16773038599E+03 -0.16830474154E+03  0.24777466391E+03  0.00000000000E+00 0.  1.
         21    1    1    2  502  501 -0.39686171795E+02 -0.34846327305E+01 -0.13056666467E+02  0.41923876684E+02  0.00000000000E+00 0.  1.
<scales pt_clust_4="550.00000" pt_clust_5="550.00000" pt_clust_6="39.83888"></scales>
<mgrwt>
<rscale>  0 0.30000000E+03</rscale>
<asrwt>  1 0.39838882E+02</asrwt>
<pdfrwt beam="1">  1        1 0.89365108E+00 0.30000000E+03</pdfrwt>
<pdfrwt beam="2">0</pdfrwt>
<totfact> 0.12753248E-04</totfact>
</mgrwt>
<clustering>
<clus scale="   39.839">  1  6  2 -1</clus>
<clus scale="  476.895">  4  5 -1 -1</clus>
<clus scale="  300.000">  1  4  2 -1</clus>
</clustering>
</event>
<event>
 6    1  0.9462926E-012  0.3000000E+03  0.7818608E-02  0.1093470E+00
          1   -1    0    0  502    0  0.00000000000E+00  0.00000000000E+00  0.22479599597E+03  0.22479599597E+03  0.00000000000E+00 0.  1.
         13   -1    0    0    0    0 -0.00000000000E+00 -0.00000000000E+00 -0.27500000000E+03  0.27500000000E+03  0.00000000000E+00 0.  1.
    9000005    2    1    2  501    0 -0.22275169659E+02  0.21053055436E+02 -0.42012007247E+02  0.46807024715E+03  0.46517236933E+03 0.  0.
         13    1    3    3    0    0 -0.23921786327E+03 -0.32515490883E+01 -0.66738916017E+02  0.24837439802E+03  0.00000000000E+00 0.  1.
          1    1    3    3  501    0  0.21694269361E+03  0.24304604524E+02  0.24726908770E+02  0.21969584914E+03  0.00000000000E+00 0.  1.
         21    1    1    2  502  501  0.22275169659E+02 -0.21053055436E+02 -0.81919967842E+01  0.31725748815E+02  0.00000000000E+00 0.  1.
<scales pt_clust_4="550.00000" pt_clust_5="550.00000" pt_clust_6="30.64988"></scales>
<mgrwt>
<rscale>  0 0.30000000E+03</rscale>
<asrwt>  1 0.30649882E+02</asrwt>
<pdfrwt beam="1">  1        1 0.81743999E+00 0.30000000E+03</pdfrwt>
<pdfrwt beam="2">0</pdfrwt>
<totfact> 0.77967100E-04</totfact>
</mgrwt>
<clustering>
<clus scale="   30.650">  1  6  2 -1</clus>
<clus scale="  465.172">  4  5 -1 -1</clus>
<clus scale="  300.000">  1  4  2 -1</clus>
</clustering>
</event>
<event>
 6    1  0.9462926E-012  0.3000000E+03  0.7818608E-02  0.1093470E+00
          1   -1    0    0  502    0  0.00000000000E+00  0.00000000000E+00  0.23645901588E+03  0.23645901588E+03  0.00000000000E+00 0.  1.
         13   -1    0    0    0    0 -0.00000000000E+00 -0.00000000000E+00 -0.27500000000E+03  0.27500000000E+03  0.00000000000E+00 0.  1.
    9000005    2    1    2  501    0  0.36995619986E+02 -0.86828592983E+01 -0.62261146905E+02  0.46666265368E+03  0.46092679894E+03 0.  0.
         13    1    3    3    0    0 -0.15443670663E+03 -0.12749173185E+03  0.61644947396E+02  0.20953505097E+03  0.00000000000E+00 0.  1.
          1    1    3    3  501    0  0.19143232662E+03  0.11880887255E+03 -0.12390609430E+03  0.25712760271E+03  0.00000000000E+00 0.  1.
         21    1    1    2  502  501 -0.36995619986E+02  0.86828592983E+01  0.23720162783E+02  0.44796362198E+02  0.00000000000E+00 0.  1.
<scales pt_clust_4="550.00000" pt_clust_5="550.00000" pt_clust_6="38.00089"></scales>
<mgrwt>
<rscale>  0 0.30000000E+03</rscale>
<asrwt>  1 0.38000894E+02</asrwt>
<pdfrwt beam="1">  1        1 0.85985097E+00 0.30000000E+03</pdfrwt>
<pdfrwt beam="2">0</pdfrwt>
<totfact> 0.31972869E-04</totfact>
</mgrwt>
<clustering>
<clus scale="   38.001">  1  6  2 -1</clus>
<clus scale="  460.927">  4  5 -1 -1</clus>
<clus scale="  300.000">  1  4  2 -1</clus>
</clustering>
</event>
<event>
 6    1  0.9462926E-012  0.3000000E+03  0.7818608E-02  0.1093470E+00
          1   -1    0    0  502    0  0.00000000000E+00  0.00000000000E+00  0.24597528659E+03  0.24597528659E+03  0.00000000000E+00 0.  1.
         13   -1    0    0    0    0 -0.00000000000E+00 -0.00000000000E+00 -0.27500000000E+03  0.27500000000E+03  0.00000000000E+00 0.  1.
    9000005    2    1    2  501    0 -0.40165522670E+02 -0.18598067088E+02 -0.52315714349E+02  0.47095900888E+03  0.46594666730E+03 0.  0.
         13    1    3    3    0    0  0.16942152148E+02  0.15035470370E+03 -0.19197900561E+03  0.24443713310E+03  0.00000000000E+00 0.  1.
          3    1    3    3  501    0 -0.57107674818E+02 -0.16895277079E+03  0.13966329126E+03  0.22652187578E+03  0.00000000000E+00 0.  1.
         21    1    1    2  502  501  0.40165522670E+02  0.18598067088E+02  0.23291000938E+02  0.50016277705E+02  0.00000000000E+00 0. -1.
<scales pt_clust_4="550.00000" pt_clust_5="550.00000" pt_clust_6="44.26237"></scales>
<mgrwt>
<rscale>  0 0.30000000E+03</rscale>
<asrwt>  1 0.44262369E+02</asrwt>
<pdfrwt beam="1">  1        1 0.89445559E+00 0.30000000E+03</pdfrwt>
<pdfrwt beam="2">0</pdfrwt>
<totfact> 0.12250602E-04</totfact>
</mgrwt>
<clustering>
<clus scale="   44.262">  1  6  2 -1</clus>
<clus scale="  465.947">  4  5 -1 -1</clus>
<clus scale="  300.000">  1  4  2 -1</clus>
</clustering>
</event>
<event>
 6    1  0.9462926E-012  0.3000000E+03  0.7818608E-02  0.1093470E+00
          1   -1    0    0  502    0  0.00000000000E+00  0.00000000000E+00  0.23087831980E+03  0.23087831980E+03  0.00000000000E+00 0.  1.
         13   -1    0    0    0    0 -0.00000000000E+00 -0.00000000000E+00 -0.27500000000E+03  0.27500000000E+03  0.00000000000E+00 0.  1.
    9000005    2    1    2  501    0  0.29842182424E+02 -0.11983794400E+02 -0.57146286772E+02  0.47118238983E+03  0.46659723447E+03 0.  0.
         13    1    3    3    0    0  0.84205355617E+02  0.16337651999E+03 -0.17437375781E+03  0.25335476434E+03  0.00000000000E+00 0.  1.
          3    1    3    3  501    0 -0.54363173192E+02 -0.17536031439E+03  0.11722747104E+03  0.21782762549E+03  0.00000000000E+00 0.  1.
         21    1    1    2  502  501 -0.29842182424E+02  0.11983794400E+02  0.13024606568E+02  0.34695929968E+02  0.00000000000E+00 0. -1.
<scales pt_clust_4="550.00000" pt_clust_5="550.00000" pt_clust_6="32.15847"></scales>
<mgrwt>
<rscale>  0 0.30000000E+03</rscale>
<asrwt>  1 0.32158470E+02</asrwt>
<pdfrwt beam="1">  1        1 0.83955753E+00 0.30000000E+03</pdfrwt>
<pdfrwt beam="2">0</pdfrwt>
<totfact> 0.50897692E-04</totfact>
</mgrwt>
<clustering>
<clus scale="   32.158">  1  6  2 -1</clus>
<clus scale="  466.597">  4  5 -1 -1</clus>
<clus scale="  300.000">  1  4  2 -1</clus>
</clustering>
</event>
<event>
 6    1  0.9462926E-012  0.3000000E+03  0.7818608E-02  0.1093470E+00
          1   -1    0    0  502    0  0.00000000000E+00  0.00000000000E+00  0.21921201767E+03  0.21921201767E+03  0.00000000000E+00 0.  1.
         13   -1    0    0    0    0 -0.00000000000E+00 -0.00000000000E+00 -0.27500000000E+03  0.27500000000E+03  0.00000000000E+00 0.  1.
    9000005    2    1    2  501    0  0.25855728001E+02 -0.15266873600E+02 -0.61132324804E+02  0.46371352432E+03  0.45868450530E+03 0.  0.
         13    1    3    3    0    0  0.87054847356E+02 -0.12894597656E+03  0.15007831521E+03  0.21616917453E+03  0.00000000000E+00 0.  1.
          3    1    3    3  501    0 -0.61199119355E+02  0.11367910296E+03 -0.21121064001E+03  0.24754434979E+03  0.00000000000E+00 0.  1.
         21    1    1    2  502  501 -0.25855728001E+02  0.15266873600E+02  0.53443424697E+01  0.30498493347E+02  0.00000000000E+00 0.  1.
<scales pt_clust_4="550.00000" pt_clust_5="550.00000" pt_clust_6="30.02659"></scales>
<mgrwt>
<rscale>  0 0.30000000E+03</rscale>
<asrwt>  1 0.30026590E+02</asrwt>
<pdfrwt beam="1">  1        1 0.79713461E+00 0.30000000E+03</pdfrwt>
<pdfrwt beam="2">0</pdfrwt>
<totfact> 0.11199867E-03</totfact>
</mgrwt>
<clustering>
<clus scale="   30.027">  1  6  2 -1</clus>
<clus scale="  458.685">  4  5 -1 -1</clus>
<clus scale="  300.000">  1  4  2 -1</clus>
</clustering>
</event>
<event>
 6    1  0.9462926E-012  0.3000000E+03  0.7818608E-02  0.1093470E+00
          1   -1    0    0  502    0  0.00000000000E+00  0.00000000000E+00  0.23694651208E+03  0.23694651208E+03  0.00000000000E+00 0.  1.
         13   -1    0    0    0    0 -0.00000000000E+00 -0.00000000000E+00 -0.27500000000E+03  0.27500000000E+03  0.00000000000E+00 0.  1.
    9000005    2    1    2  501    0  0.37482545130E+02  0.19485782617E+02 -0.15261445371E+02  0.46394532337E+03  0.46176586540E+03 0.  0.
         13    1    3    3    0    0  0.16137717992E+03 -0.14533390870E+03  0.86797761664E+02  0.23387687070E+03  0.00000000000E+00 0.  1.
          1    1    3    3  501    0 -0.12389463479E+03  0.16481969131E+03 -0.10205920704E+03  0.23006845267E+03  0.00000000000E+00 0.  1.
         21    1    1    2  502  501 -0.37482545130E+02 -0.19485782617E+02 -0.22792042551E+02  0.48001188707E+02  0.00000000000E+00 0. -1.
<scales pt_clust_4="550.00000" pt_clust_5="550.00000" pt_clust_6="42.24498"></scales>
<mgrwt>
<rscale>  0 0.30000000E+03</rscale>
<asrwt>  1 0.42244984E+02</asrwt>
<pdfrwt beam="1">  1        1 0.86162368E+00 0.30000000E+03</pdfrwt>
<pdfrwt beam="2">0</pdfrwt>
<totfact> 0.30017769E-04</totfact>
</mgrwt>
<clustering>
<clus scale="   42.245">  1  6  2 -1</clus>
<clus scale="  461.766">  4  5 -1 -1</clus>
<clus scale="  300.000">  1  4  2 -1</clus>
</clustering>
</event>
<event>
 6    1  0.9462926E-012  0.3000000E+03  0.7818608E-02  0.1093470E+00
          1   -1    0    0  502    0  0.00000000000E+00  0.00000000000E+00  0.22624357539E+03  0.22624357539E+03  0.00000000000E+00 0.  1.
         13   -1    0    0    0    0 -0.00000000000E+00 -0.00000000000E+00 -0.27500000000E+03  0.27500000000E+03  0.00000000000E+00 0.  1.
    9000005    2    1    2  501    0 -0.20187605654E+02 -0.25420734915E+02 -0.65481957324E+02  0.46472650226E+03  0.45894344094E+03 0.  0.
         13    1    3    3    0    0  0.10560883644E+03  0.13992426288E+03 -0.15920277598E+03  0.23680698798E+03  0.00000000000E+00 0.  1.
          3    1    3    3  501    0 -0.12579644209E+03 -0.16534499780E+03  0.93720818654E+02  0.22791951428E+03  0.00000000000E+00 0.  1.
         21    1    1    2  502  501  0.20187605654E+02  0.25420734915E+02  0.16725532718E+02  0.36517073135E+02  0.00000000000E+00 0. -1.
<scales pt_clust_4="550.00000" pt_clust_5="550.00000" pt_clust_6="32.46156"></scales>
<mgrwt>
<rscale>  0 0.30000000E+03</rscale>
<asrwt>  1 0.32461565E+02</asrwt>
<pdfrwt beam="1">  1        1 0.82270391E+00 0.30000000E+03</pdfrwt>
<pdfrwt beam="2">0</pdfrwt>
<totfact> 0.69452099E-04</totfact>
</mgrwt>
<clustering>
<clus scale="   32.462">  1  6  2 -1</clus>
<clus scale="  458.943">  4  5 -1 -1</clus>
<clus scale="  300.000">  1  4  2 -1</clus>
</clustering>
</event>
<event>
 6    1  0.9462926E-012  0.3000000E+03  0.7818608E-02  0.1093470E+00
          1   -1    0    0  502    0  0.00000000000E+00  0.00000000000E+00  0.26176211013E+03  0.26176211013E+03  0.00000000000E+00 0.  1.
         13   -1    0    0    0    0 -0.00000000000E+00 -0.00000000000E+00 -0.27500000000E+03  0.27500000000E+03  0.00000000000E+00 0.  1.
    9000005    2    1    2  501    0 -0.33061695493E+02  0.48597415415E+01 -0.59748893377E+02  0.47949112058E+03  0.47457887823E+03 0.  0.
         13    1    3    3    0    0 -0.26974828204E+01 -0.32382266121E+02  0.20644923670E+03  0.20899084886E+03  0.00000000000E+00 0.  1.
          1    1    3    3  501    0 -0.30364212673E+02  0.37242007662E+02 -0.26619813008E+03  0.27050027172E+03  0.00000000000E+00 0.  1.
         21    1    1    2  502  501  0.33061695493E+02 -0.48597415415E+01  0.46511003504E+02  0.57270989547E+02  0.00000000000E+00 0.  1.
<scales pt_clust_4="550.00000" pt_clust_5="550.00000" pt_clust_6="33.41695"></scales>
<mgrwt>
<rscale>  0 0.30000000E+03</rscale>
<asrwt>  1 0.33416954E+02</asrwt>
<pdfrwt beam="1">  1        1 0.95186222E+00 0.30000000E+03</pdfrwt>
<pdfrwt beam="2">0</pdfrwt>
<totfact> 0.11391508E-05</totfact>
</mgrwt>
<clustering>
<clus scale="   33.417">  1  6  2 -1</clus>
<clus scale="  474.579">  4  5 -1 -1</clus>
<clus scale="  300.000">  1  4  2 -1</clus>
</clustering>
</event>
<event>
 6    1  0.9462926E-012  0.3000000E+03  0.7818608E-02  0.1093470E+00
          1   -1    0    0  502    0  0.00000000000E+00  0.00000000000E+00  0.24130351676E+03  0.24130351676E+03  0.00000000000E+00 0.  1.
         13   -1    0    0    0    0 -0.00000000000E+00 -0.00000000000E+00 -0.27500000000E+03  0.27500000000E+03  0.00000000000E+00 0.  1.
    9000005    2    1    2  501    0  0.21814930796E+02  0.21300871721E+02 -0.36732651181E+02  0.48566307523E+03  0.48331120061E+03 0.  0.
         13    1    3    3    0    0  0.19606233019E+03  0.13870099719E+03 -0.10863904519E+03  0.26359219655E+03  0.00000000000E+00 0.  1.
          3    1    3    3  501    0 -0.17424739940E+03 -0.11740012547E+03  0.71906394007E+02  0.22207087868E+03  0.00000000000E+00 0.  1.
         21    1    1    2  502  501 -0.21814930796E+02 -0.21300871721E+02  0.30361679426E+01  0.30640441535E+02  0.00000000000E+00 0. -1.
<scales pt_clust_4="550.00000" pt_clust_5="550.00000" pt_clust_6="30.48964"></scales>
<mgrwt>
<rscale>  0 0.30000000E+03</rscale>
<asrwt>  1 0.30489643E+02</asrwt>
<pdfrwt beam="1">  1        1 0.87746733E+00 0.30000000E+03</pdfrwt>
<pdfrwt beam="2">0</pdfrwt>
<totfact> 0.21702978E-04</totfact>
</mgrwt>
<clustering>
<clus scale="   30.490">  1  6  2 -1</clus>
<clus scale="  483.311">  4  5 -1 -1</clus>
<clus scale="  300.000">  1  4  2 -1</clus>
</clustering>
</event>
<event>
 6    1  0.9462926E-012  0.3000000E+03  0.7818608E-02  0.1093470E+00
          1   -1    0    0  502    0  0.00000000000E+00  0.00000000000E+00  0.23237457225E+03  0.23237457225E+03  0.00000000000E+00 0.  1.
         13   -1    0    0    0    0 -0.00000000000E+00 -0.00000000000E+00 -0.27500000000E+03  0.27500000000E+03  0.00000000000E+00 0.  1.
    9000005    2    1    2  501    0  0.29745583492E+02  0.19424891140E+02 -0.53321834492E+02  0.47027283038E+03  0.46588753023E+03 0.  0.
         13    1    3    3    0    0 -0.10080400014E+03 -0.19000789988E+03  0.10553917998E+02  0.21535049024E+03  0.00000000000E+00 0.  1.
          3    1    3    3  501    0  0.13054958364E+03  0.20943279102E+03 -0.63875752490E+02  0.25492234013E+03  0.00000000000E+00 0.  1.
         21    1    1    2  502  501 -0.29745583492E+02 -0.19424891140E+02  0.10696406746E+02  0.37101741878E+02  0.00000000000E+00 0.  1.
<scales pt_clust_4="550.00000" pt_clust_5="550.00000" pt_clust_6="35.52641"></scales>
<mgrwt>
<rscale>  0 0.30000000E+03</rscale>
<asrwt>  1 0.35526415E+02</asrwt>
<pdfrwt beam="1">  1        1 0.84499844E+00 0.30000000E+03</pdfrwt>
<pdfrwt beam="2">0</pdfrwt>
<totfact> 0.45058072E-04</totfact>
</mgrwt>
<clustering>
<clus scale="   35.526">  1  6  2 -1</clus>
<clus scale="  465.888">  4  5 -1 -1</clus>
<clus scale="  300.000">  1  4  2 -1</clus>
</clustering>
</event>
<event>
 6    1  0.9462926E-012  0.3000000E+03  0.7818608E-02  0.1093470E+00
          1   -1    0    0  502    0  0.00000000000E+00  0.00000000000E+00  0.22444822863E+03  0.22444822863E+03  0.00000000000E+00 0.  1.
         13   -1    0    0    0    0 -0.00000000000E+00 -0.00000000000E+00 -0.27500000000E+03  0.27500000000E+03  0.00000000000E+00 0.  1.
    9000005    2    1    2  501    0  0.36971457756E+01 -0.30617605353E+02 -0.69227084783E+02  0.46339446356E+03  0.45715526131E+03 0.  0.
         13    1    3    3    0    0  0.11744872959E+03  0.10055827599E+03  0.12793234346E+03  0.20068097930E+03  0.00000000000E+00 0.  1.
          1    1    3    3  501    0 -0.11375158381E+03 -0.13117588134E+03 -0.19715942824E+03  0.26271348426E+03  0.00000000000E+00 0.  1.
         21    1    1    2  502  501 -0.36971457756E+01  0.30617605353E+02  0.18675313409E+02  0.36053765065E+02  0.00000000000E+00 0.  1.
<scales pt_clust_4="550.00000" pt_clust_5="550.00000" pt_clust_6="30.84002"></scales>
<mgrwt>
<rscale>  0 0.30000000E+03</rscale>
<asrwt>  1 0.30840017E+02</asrwt>
<pdfrwt beam="1">  1        1 0.81617538E+00 0.30000000E+03</pdfrwt>
<pdfrwt beam="2">0</pdfrwt>
<totfact> 0.79760404E-04</totfact>
</mgrwt>
<clustering>
<clus scale="   30.840">  1  6  2 -1</clus>
<clus scale="  457.155">  4  5 -1 -1</clus>
<clus scale="  300.000">  1  4  2 -1</clus>
</clustering>
</event>
<event>
 6    1  0.9462926E-012  0.3000000E+03  0.7818608E-02  0.1093470E+00
          1   -1    0    0  502    0  0.00000000000E+00  0.00000000000E+00  0.22925329826E+03  0.22925329826E+03  0.00000000000E+00 0.  1.
         13   -1    0    0    0    0 -0.00000000000E+00 -0.00000000000E+00 -0.27500000000E+03  0.27500000000E+03  0.00000000000E+00 0.  1.
    9000005    2    1    2  501    0  0.93307696814E+01 -0.33148266347E+02 -0.63652955050E+02  0.46543957991E+03  0.45977867831E+03 0.  0.
         13    1    3    3    0    0  0.46351458112E+02 -0.16576290330E+03  0.13844960249E+03  0.22089384376E+03  0.00000000000E+00 0.  1.
          3    1    3    3  501    0 -0.37020688431E+02  0.13261463696E+03 -0.20210255754E+03  0.24454573615E+03  0.00000000000E+00 0.  1.
         21    1    1    2  502  501 -0.93307696814E+01  0.33148266347E+02  0.17906253308E+02  0.38813718351E+02  0.00000000000E+00 0.  1.
<scales pt_clust_4="550.00000" pt_clust_5="550.00000" pt_clust_6="34.43648"></scales>
<mgrwt>
<rscale>  0 0.30000000E+03</rscale>
<asrwt>  1 0.34436475E+02</asrwt>
<pdfrwt beam="1">  1        1 0.83364836E+00 0.30000000E+03</pdfrwt>
<pdfrwt beam="2">0</pdfrwt>
<totfact> 0.55521682E-04</totfact>
</mgrwt>
<clustering>
<clus scale="   34.436">  1  6  2 -1</clus>
<clus scale="  459.779">  4  5 -1 -1</clus>
<clus scale="  300.000">  1  4  2 -1</clus>
</clustering>
</event>
<event>
 6    1  0.9462926E-012  0.3000000E+03  0.7818608E-02  0.1093470E+00
          1   -1    0    0  502    0  0.00000000000E+00  0.00000000000E+00  0.21988559301E+03  0.21988559301E+03  0.00000000000E+00 0.  1.
         13   -1    0    0    0    0 -0.00000000000E+00 -0.00000000000E+00 -0.27500000000E+03  0.27500000000E+03  0.00000000000E+00 0.  1.
    9000005    2    1    2  501    0 -0.33422900858E+02  0.13648942881E+01 -0.53245036658E+02  0.46138264115E+03  0.45707762402E+03 0.  0.
         13    1    3    3    0    0 -0.22314495949E+03 -0.84631510482E+02 -0.79236863390E+02  0.25146499962E+03  0.00000000000E+00 0.  1.
          1    1    3    3  501    0  0.18972205864E+03  0.85996404770E+02  0.25991826733E+02  0.20991764152E+03  0.00000000000E+00 0.  1.
         21    1    1    2  502  501  0.33422900858E+02 -0.13648942881E+01 -0.18693703326E+01  0.33502951864E+02  0.00000000000E+00 0. -1.
<scales pt_clust_4="550.00000" pt_clust_5="550.00000" pt_clust_6="33.45076"></scales>
<mgrwt>
<rscale>  0 0.30000000E+03</rscale>
<asrwt>  1 0.33450758E+02</asrwt>
<pdfrwt beam="1">  1        1 0.79958397E+00 0.30000000E+03</pdfrwt>
<pdfrwt beam="2">0</pdfrwt>
<totfact> 0.10531510E-03</totfact>
</mgrwt>
<clustering>
<clus scale="   33.451">  1  6  2 -1</clus>
<clus scale="  457.078">  4  5 -1 -1</clus>
<clus scale="  300.000">  1  4  2 -1</clus>
</clustering>
</event>
<event>
 6    1  0.9462926E-012  0.3000000E+03  0.7818608E-02  0.1093470E+00
          1   -1    0    0  502    0  0.00000000000E+00  0.00000000000E+00  0.22998687216E+03  0.22998687216E+03  0.00000000000E+00 0.  1.
         13   -1    0    0    0    0 -0.00000000000E+00 -0.00000000000E+00 -0.27500000000E+03  0.27500000000E+03  0.00000000000E+00 0.  1.
    9000005    2    1    2  501    0  0.27675470601E+02 -0.17238235772E+02 -0.45175509793E+02  0.47238143069E+03  0.46908453495E+03 0.  0.
         13    1    3    3    0    0 -0.38074690087E+02 -0.23193889717E+03 -0.73006516500E+02  0.24612046948E+03  0.00000000000E+00 0.  1.
          3    1    3    3  501    0  0.65750160688E+02  0.21470066139E+03  0.27831006706E+02  0.22626096121E+03  0.00000000000E+00 0.  1.
         21    1    1    2  502  501 -0.27675470601E+02  0.17238235772E+02  0.16238195017E+00  0.32605441470E+02  0.00000000000E+00 0. -1.
<scales pt_clust_4="550.00000" pt_clust_5="550.00000" pt_clust_6="32.60504"></scales>
<mgrwt>
<rscale>  0 0.30000000E+03</rscale>
<asrwt>  1 0.32605037E+02</asrwt>
<pdfrwt beam="1">  1        1 0.83631590E+00 0.30000000E+03</pdfrwt>
<pdfrwt beam="2">0</pdfrwt>
<totfact> 0.53631470E-04</totfact>
</mgrwt>
<clustering>
<clus scale="   32.605">  1  6  2 -1</clus>
<clus scale="  469.085">  4  5 -1 -1</clus>
<clus scale="  300.000">  1  4  2 -1</clus>
</clustering>
</event>
<event>
 6    1  0.9462926E-012  0.3000000E+03  0.7818608E-02  0.1093470E+00
          1   -1    0    0  502    0  0.00000000000E+00  0.00000000000E+00  0.23162084027E+03  0.23162084027E+03  0.00000000000E+00 0.  1.
         13   -1    0    0    0    0 -0.00000000000E+00 -0.00000000000E+00 -0.27500000000E+03  0.27500000000E+03  0.00000000000E+00 0.  1.
    9000005    2    1    2  501    0 -0.26442203757E+02  0.18256258757E+02 -0.64402668442E+02  0.46822202464E+03  0.46265719440E+03 0.  0.
         13    1    3    3    0    0 -0.14836613858E+03  0.13317769633E+03 -0.17679540973E+03  0.26646843486E+03  0.00000000000E+00 0.  1.
          3    1    3    3  501    0  0.12192393482E+03 -0.11492143757E+03  0.11239274129E+03  0.20175358978E+03  0.00000000000E+00 0.  1.
         21    1    1    2  502  501  0.26442203757E+02 -0.18256258757E+02  0.21023508711E+02  0.38398815631E+02  0.00000000000E+00 0.  1.
<scales pt_clust_4="550.00000" pt_clust_5="550.00000" pt_clust_6="32.13224"></scales>
<mgrwt>
<rscale>  0 0.30000000E+03</rscale>
<asrwt>  1 0.32132244E+02</asrwt>
<pdfrwt beam="1">  1        1 0.84225760E+00 0.30000000E+03</pdfrwt>
<pdfrwt beam="2">0</pdfrwt>
<totfact> 0.48456308E-04</totfact>
</mgrwt>
<clustering>
<clus scale="   32.132">  1  6  2 -1</clus>
<clus scale="  462.657">  4  5 -1 -1</clus>
<clus scale="  300.000">  1  4  2 -1</clus>
</clustering>
</event>
<event>
 6    1  0.9462926E-012  0.3000000E+03  0.7818608E-02  0.1093470E+00
          1   -1    0    0  502    0  0.00000000000E+00  0.00000000000E+00  0.23561599528E+03  0.23561599528E+03  0.00000000000E+00 0.  1.
         13   -1    0    0    0    0 -0.00000000000E+00 -0.00000000000E+00 -0.27500000000E+03  0.27500000000E+03  0.00000000000E+00 0.  1.
    9000005    2    1    2  501    0 -0.10704569343E+02  0.35427322123E+02 -0.31751470985E+02  0.47282792138E+03  0.47030671308E+03 0.  0.
         13    1    3    3    0    0  0.16806149491E+03 -0.13730517097E+03  0.23160079312E+02  0.21825161012E+03  0.00000000000E+00 0.  1.
          1    1    3    3  501    0 -0.17876606425E+03  0.17273249309E+03 -0.54911550297E+02  0.25457631126E+03  0.00000000000E+00 0.  1.
         21    1    1    2  502  501  0.10704569343E+02 -0.35427322123E+02 -0.76325337375E+01  0.37788073898E+02  0.00000000000E+00 0.  1.
<scales pt_clust_4="550.00000" pt_clust_5="550.00000" pt_clust_6="37.00925"></scales>
<mgrwt>
<rscale>  0 0.30000000E+03</rscale>
<asrwt>  1 0.37009247E+02</asrwt>
<pdfrwt beam="1">  1        1 0.85678544E+00 0.30000000E+03</pdfrwt>
<pdfrwt beam="2">0</pdfrwt>
<totfact> 0.34592904E-04</totfact>
</mgrwt>
<clustering>
<clus scale="   37.009">  1  6  2 -1</clus>
<clus scale="  470.307">  4  5 -1 -1</clus>
<clus scale="  300.000">  1  4  2 -1</clus>
</clustering>
</event>
<event>
 6    1  0.9462926E-012  0.3000000E+03  0.7818608E-02  0.1093470E+00
          1   -1    0    0  502    0  0.00000000000E+00  0.00000000000E+00  0.25186253081E+03  0.25186253081E+03  0.00000000000E+00 0.  1.
         13   -1    0    0    0    0 -0.00000000000E+00 -0.00000000000E+00 -0.27500000000E+03  0.27500000000E+03  0.00000000000E+00 0.  1.
    9000005    2    1    2  501    0  0.10383269200E+02  0.50822299623E+02 -0.53120512360E+02  0.46694841481E+03  0.46100793360E+03 0.  0.
         13    1    3    3    0    0 -0.18204500540E+03 -0.72142845005E+02  0.69452324730E+02  0.20777054528E+03  0.00000000000E+00 0.  1.
          1    1    3    3  501    0  0.19242827460E+03  0.12296514463E+03 -0.12257283709E+03  0.25917786953E+03  0.00000000000E+00 0.  1.
         21    1    1    2  502  501 -0.10383269200E+02 -0.50822299623E+02  0.29983043166E+02  0.59914115998E+02  0.00000000000E+00 0. -1.
<scales pt_clust_4="550.00000" pt_clust_5="550.00000" pt_clust_6="51.87214"></scales>
<mgrwt>
<rscale>  0 0.30000000E+03</rscale>
<asrwt>  1 0.51872135E+02</asrwt>
<pdfrwt beam="1">  1        1 0.91586375E+00 0.30000000E+03</pdfrwt>
<pdfrwt beam="2">0</pdfrwt>
<totfact> 0.48169544E-05</totfact>
</mgrwt>
<clustering>
<clus scale="   51.872">  1  6  2 -1</clus>
<clus scale="  461.008">  4  5 -1 -1</clus>
<clus scale="  300.000">  1  4  2 -1</clus>
</clustering>
</event>
<event>
 6    1  0.9462926E-012  0.3000000E+03  0.7818608E-02  0.1093470E+00
          1   -1    0    0  502    0  0.00000000000E+00  0.00000000000E+00  0.22745945453E+03  0.22745945453E+03  0.00000000000E+00 0.  1.
         13   -1    0    0    0    0 -0.00000000000E+00 -0.00000000000E+00 -0.27500000000E+03  0.27500000000E+03  0.00000000000E+00 0.  1.
    9000005    2    1    2  501    0  0.82966539282E+01 -0.29583630979E+02 -0.55771954141E+02  0.47065093716E+03  0.46632367310E+03 0.  0.
         13    1    3    3    0    0 -0.15595446586E+03  0.11080804919E+03  0.88549325539E+02  0.21081082098E+03  0.00000000000E+00 0.  1.
          3    1    3    3  501    0  0.16425111979E+03 -0.14039168016E+03 -0.14432127968E+03  0.25984011619E+03  0.00000000000E+00 0.  1.
         21    1    1    2  502  501 -0.82966539282E+01  0.29583630979E+02  0.82314086715E+01  0.31808517366E+02  0.00000000000E+00 0.  1.
<scales pt_clust_4="550.00000" pt_clust_5="550.00000" pt_clust_6="30.72500"></scales>
<mgrwt>
<rscale>  0 0.30000000E+03</rscale>
<asrwt>  1 0.30725001E+02</asrwt>
<pdfrwt beam="1">  1        1 0.82712529E+00 0.30000000E+03</pdfrwt>
<pdfrwt beam="2">0</pdfrwt>
<totfact> 0.64105511E-04</totfact>
</mgrwt>
<clustering>
<clus scale="   30.725">  1  6  2 -1</clus>
<clus scale="  466.324">  4  5 -1 -1</clus>
<clus scale="  300.000">  1  4  2 -1</clus>
</clustering>
</event>
<event>
 6    1  0.9462926E-012  0.3000000E+03  0.7818608E-02  0.1093470E+00
          1   -1    0    0  502    0  0.00000000000E+00  0.00000000000E+00  0.23202280956E+03  0.23202280956E+03  0.00000000000E+00 0.  1.
         13   -1    0    0    0    0 -0.00000000000E+00 -0.00000000000E+00 -0.27500000000E+03  0.27500000000E+03  0.00000000000E+00 0.  1.
    9000005    2    1    2  501    0  0.32572196399E+01  0.33005531129E+02 -0.42420277859E+02  0.47385226968E+03  0.47078287877E+03 0.  0.
         13    1    3    3    0    0  0.66738109820E+02 -0.15623527472E+03  0.12694123921E+03  0.21207902910E+03  0.00000000000E+00 0.  1.
          3    1    3    3  501    0 -0.63480890180E+02  0.18924080585E+03 -0.16936151707E+03  0.26177324058E+03  0.00000000000E+00 0.  1.
         21    1    1    2  502  501 -0.32572196399E+01 -0.33005531129E+02 -0.55691257664E+00  0.33170539888E+02  0.00000000000E+00 0. -1.
<scales pt_clust_4="550.00000" pt_clust_5="550.00000" pt_clust_6="33.16586"></scales>
<mgrwt>
<rscale>  0 0.30000000E+03</rscale>
<asrwt>  1 0.33165864E+02</asrwt>
<pdfrwt beam="1">  1        1 0.84371931E+00 0.30000000E+03</pdfrwt>
<pdfrwt beam="2">0</pdfrwt>
<totfact> 0.46819829E-04</totfact>
</mgrwt>
<clustering>
<clus scale="   33.166">  1  6  2 -1</clus>
<clus scale="  470.783">  4  5 -1 -1</clus>
<clus scale="  300.000">  1  4  2 -1</clus>
</clustering>
</event>
<event>
 6    1  0.9462926E-012  0.3000000E+03  0.7818608E-02  0.1093470E+00
          1   -1    0    0  502    0  0.00000000000E+00  0.00000000000E+00  0.22749019803E+03  0.22749019803E+03  0.00000000000E+00 0.  1.
         13   -1    0    0    0    0 -0.00000000000E+00 -0.00000000000E+00 -0.27500000000E+03  0.27500000000E+03  0.00000000000E+00 0.  1.
    9000005    2    1    2  501    0  0.19149328382E+02 -0.24074426572E+02 -0.53737948799E+02  0.47110445915E+03  0.46701752590E+03 0.  0.
         13    1    3    3    0    0  0.17360822167E+03  0.12587891358E+03  0.66512948958E+02  0.22452012804E+03  0.00000000000E+00 0.  1.
          1    1    3    3  501    0 -0.15445889329E+03 -0.14995334015E+03 -0.12025089776E+03  0.24658433111E+03  0.00000000000E+00 0.  1.
         21    1    1    2  502  501 -0.19149328382E+02  0.24074426572E+02  0.62281468327E+01  0.31385738883E+02  0.00000000000E+00 0. -1.
<scales pt_clust_4="550.00000" pt_clust_5="550.00000" pt_clust_6="30.76158"></scales>
<mgrwt>
<rscale>  0 0.30000000E+03</rscale>
<asrwt>  1 0.30761580E+02</asrwt>
<pdfrwt beam="1">  1        1 0.82723708E+00 0.30000000E+03</pdfrwt>
<pdfrwt beam="2">0</pdfrwt>
<totfact> 0.63946347E-04</totfact>
</mgrwt>
<clustering>
<clus scale="   30.762">  1  6  2 -1</clus>
<clus scale="  467.018">  4  5 -1 -1</clus>
<clus scale="  300.000">  1  4  2 -1</clus>
</clustering>
</event>
<event>
 6    1  0.9462926E-012  0.3000000E+03  0.7818608E-02  0.1093470E+00
          1   -1    0    0  502    0  0.00000000000E+00  0.00000000000E+00  0.22255824675E+03  0.22255824675E+03  0.00000000000E+00 0.  1.
         13   -1    0    0    0    0 -0.00000000000E+00 -0.00000000000E+00 -0.27500000000E+03  0.27500000000E+03  0.00000000000E+00 0.  1.
    9000005    2    1    2  501    0 -0.18634411533E+02 -0.28092215271E+02 -0.51920496000E+02  0.46384347905E+03  0.45969405184E+03 0.  0.
         13    1    3    3    0    0 -0.14275486277E+03 -0.17012441984E+03 -0.13263445827E+03  0.25867579823E+03  0.00000000000E+00 0.  1.
          1    1    3    3  501    0  0.12412045123E+03  0.14203220457E+03  0.80713962267E+02  0.20516768082E+03  0.00000000000E+00 0.  1.
         21    1    1    2  502  501  0.18634411533E+02  0.28092215271E+02 -0.52125724949E+00  0.33714767701E+02  0.00000000000E+00 0.  1.
<scales pt_clust_4="550.00000" pt_clust_5="550.00000" pt_clust_6="33.71074"></scales>
<mgrwt>
<rscale>  0 0.30000000E+03</rscale>
<asrwt>  1 0.33710738E+02</asrwt>
<pdfrwt beam="1">  1        1 0.80930272E+00 0.30000000E+03</pdfrwt>
<pdfrwt beam="2">0</pdfrwt>
<totfact> 0.88935381E-04</totfact>
</mgrwt>
<clustering>
<clus scale="   33.711">  1  6  2 -1</clus>
<clus scale="  459.694">  4  5 -1 -1</clus>
<clus scale="  300.000">  1  4  2 -1</clus>
</clustering>
</event>
<event>
 6    1  0.9462926E-012  0.3000000E+03  0.7818608E-02  0.1093470E+00
          1   -1    0    0  502    0  0.00000000000E+00  0.00000000000E+00  0.23879418753E+03  0.23879418753E+03  0.00000000000E+00 0.  1.
         13   -1    0    0    0    0 -0.00000000000E+00 -0.00000000000E+00 -0.27500000000E+03  0.27500000000E+03  0.00000000000E+00 0.  1.
    9000005    2    1    2  501    0  0.29921703289E+02 -0.21835818904E+02 -0.42363069550E+02  0.47624391283E+03  0.47290752112E+03 0.  0.
         13    1    3    3    0    0  0.24731168140E+03  0.20375896120E+02  0.11220224793E+02  0.24840317700E+03  0.00000000000E+00 0.  1.
          3    1    3    3  501    0 -0.21738997811E+03 -0.42211715024E+02 -0.53583294343E+02  0.22784073583E+03  0.00000000000E+00 0.  1.
         21    1    1    2  502  501 -0.29921703289E+02  0.21835818904E+02  0.61572570771E+01  0.37550274694E+02  0.00000000000E+00 0. -1.
<scales pt_clust_4="550.00000" pt_clust_5="550.00000" pt_clust_6="37.04202"></scales>
<mgrwt>
<rscale>  0 0.30000000E+03</rscale>
<asrwt>  1 0.37042021E+02</asrwt>
<pdfrwt beam="1">  1        1 0.86834250E+00 0.30000000E+03</pdfrwt>
<pdfrwt beam="2">0</pdfrwt>
<totfact> 0.26062085E-04</totfact>
</mgrwt>
<clustering>
<clus scale="   37.042">  1  6  2 -1</clus>
<clus scale="  472.908">  4  5 -1 -1</clus>
<clus scale="  300.000">  1  4  2 -1</clus>
</clustering>
</event>
<event>
 6    1  0.9462926E-012  0.3000000E+03  0.7818608E-02  0.1093470E+00
          1   -1    0    0  502    0  0.00000000000E+00  0.00000000000E+00  0.22931073653E+03  0.22931073653E+03  0.00000000000E+00 0.  1.
         13   -1    0    0    0    0 -0.00000000000E+00 -0.00000000000E+00 -0.27500000000E+03  0.27500000000E+03  0.00000000000E+00 0.  1.
    9000005    2    1    2  501    0  0.49819384159E+01  0.42313062092E+02 -0.31572173976E+02  0.45942747518E+03  0.45635686458E+03 0.  0.
         13    1    3    3    0    0 -0.23741460973E+02 -0.90038657665E+02  0.18320775668E+03  0.20551325736E+03  0.00000000000E+00 0.  1.
          3    1    3    3  501    0  0.28723399389E+02  0.13235171976E+03 -0.21477993066E+03  0.25391421782E+03  0.00000000000E+00 0.  1.
         21    1    1    2  502  501 -0.49819384159E+01 -0.42313062092E+02 -0.14117089491E+02  0.44883261354E+02  0.00000000000E+00 0.  1.
<scales pt_clust_4="550.00000" pt_clust_5="550.00000" pt_clust_6="42.60536"></scales>
<mgrwt>
<rscale>  0 0.30000000E+03</rscale>
<asrwt>  1 0.42605361E+02</asrwt>
<pdfrwt beam="1">  1        1 0.83385722E+00 0.30000000E+03</pdfrwt>
<pdfrwt beam="2">0</pdfrwt>
<totfact> 0.53199198E-04</totfact>
</mgrwt>
<clustering>
<clus scale="   42.605">  1  6  2 -1</clus>
<clus scale="  456.357">  4  5 -1 -1</clus>
<clus scale="  300.000">  1  4  2 -1</clus>
</clustering>
</event>
<event>
 6    1  0.9462926E-012  0.3000000E+03  0.7818608E-02  0.1093470E+00
          1   -1    0    0  502    0  0.00000000000E+00  0.00000000000E+00  0.23863557986E+03  0.23863557986E+03  0.00000000000E+00 0.  1.
         13   -1    0    0    0    0 -0.00000000000E+00 -0.00000000000E+00 -0.27500000000E+03  0.27500000000E+03  0.00000000000E+00 0.  1.
    9000005    2    1    2  501    0  0.32777270672E+02  0.26504774946E+01 -0.35572584960E+02  0.48074178855E+03  0.47829476681E+03 0.  0.
         13    1    3    3    0    0 -0.21397096749E+03  0.24482575806E+02  0.45459737968E+02  0.22011260578E+03  0.00000000000E+00 0.  1.
          1    1    3    3  501    0  0.24674823816E+03 -0.21832098312E+02 -0.81032322927E+02  0.26062918277E+03  0.00000000000E+00 0.  1.
         21    1    1    2  502  501 -0.32777270672E+02 -0.26504774946E+01 -0.79183517932E+00  0.32893791308E+02  0.00000000000E+00 0. -1.
<scales pt_clust_4="550.00000" pt_clust_5="550.00000" pt_clust_6="32.88426"></scales>
<mgrwt>
<rscale>  0 0.30000000E+03</rscale>
<asrwt>  1 0.32884259E+02</asrwt>
<pdfrwt beam="1">  1        1 0.86776574E+00 0.30000000E+03</pdfrwt>
<pdfrwt beam="2">0</pdfrwt>
<totfact> 0.27019331E-04</totfact>
</mgrwt>
<clustering>
<clus scale="   32.884">  1  6  2 -1</clus>
<clus scale="  478.295">  4  5 -1 -1</clus>
<clus scale="  300.000">  1  4  2 -1</clus>
</clustering>
</event>
<event>
 6    1  0.1584060E-011  0.3000000E+03  0.7818608E-02  0.1093470E+00
          1   -1    0    0  502    0  0.00000000000E+00  0.00000000000E+00  0.21745473600E+03  0.21745473600E+03  0.00000000000E+00 0.  1.
         13   -1    0    0    0    0 -0.00000000000E+00 -0.00000000000E+00 -0.27500000000E+03  0.27500000000E+03  0.00000000000E+00 0.  1.
    9000005    2    1    2  501    0 -0.92302342716E+01  0.28577598174E+02 -0.56696633544E+02  0.46241149191E+03  0.45793886410E+03 0.  0.
         13    1    3    3    0    0 -0.70870464018E+01  0.21701388518E+03 -0.13789243147E+03  0.25721503697E+03  0.00000000000E+00 0.  1.
          3    1    3    3  501    0 -0.21431878699E+01 -0.18843628701E+03  0.81195797925E+02  0.20519645493E+03  0.00000000000E+00 0.  1.
         21    1    1    2  502  501  0.92302342716E+01 -0.28577598174E+02 -0.84863045266E+00  0.30043244095E+02  0.00000000000E+00 0. -1.
<scales pt_clust_4="550.00000" pt_clust_5="550.00000" pt_clust_6="30.03126"></scales>
<mgrwt>
<rscale>  0 0.30000000E+03</rscale>
<asrwt>  1 0.30031256E+02</asrwt>
<pdfrwt beam="1">  1        1 0.79074449E+00 0.30000000E+03</pdfrwt>
<pdfrwt beam="2">0</pdfrwt>
<totfact> 0.12524192E-03</totfact>
</mgrwt>
<clustering>
<clus scale="   30.031">  1  6  2 -1</clus>
<clus scale="  457.939">  4  5 -1 -1</clus>
<clus scale="  300.000">  1  4  2 -1</clus>
</clustering>
</event>
<event>
 6    1  0.9462926E-012  0.3000000E+03  0.7818608E-02  0.1093470E+00
          1   -1    0    0  502    0  0.00000000000E+00  0.00000000000E+00  0.23496384851E+03  0.23496384851E+03  0.00000000000E+00 0.  1.
         13   -1    0    0    0    0 -0.00000000000E+00 -0.00000000000E+00 -0.27500000000E+03  0.27500000000E+03  0.00000000000E+00 0.  1.
    9000005    2    1    2  501    0 -0.15851700127E+02  0.41158322958E+02 -0.34873134491E+02  0.46555730968E+03  0.46214953115E+03 0.  0.
         13    1    3    3    0    0 -0.24074244938E+01 -0.11286473577E+03 -0.20601653095E+03  0.23491925272E+03  0.00000000000E+00 0.  1.
          3    1    3    3  501    0 -0.13444275633E+02  0.15402305873E+03  0.17114339646E+03  0.23063805696E+03  0.00000000000E+00 0.  1.
         21    1    1    2  502  501  0.15851700127E+02 -0.41158322958E+02 -0.51630170026E+01  0.44406538822E+02  0.00000000000E+00 0. -1.
<scales pt_clust_4="550.00000" pt_clust_5="550.00000" pt_clust_6="44.10540"></scales>
<mgrwt>
<rscale>  0 0.30000000E+03</rscale>
<asrwt>  1 0.44105395E+02</asrwt>
<pdfrwt beam="1">  1        1 0.85441399E+00 0.30000000E+03</pdfrwt>
<pdfrwt beam="2">0</pdfrwt>
<totfact> 0.35390798E-04</totfact>
</mgrwt>
<clustering>
<clus scale="   44.105">  1  6  2 -1</clus>
<clus scale="  462.150">  4  5 -1 -1</clus>
<clus scale="  300.000">  1  4  2 -1</clus>
</clustering>
</event>
<event>
 6    1  0.9462926E-012  0.3000000E+03  0.7818608E-02  0.1093470E+00
          1   -1    0    0  502    0  0.00000000000E+00  0.00000000000E+00  0.23877661599E+03  0.23877661599E+03  0.00000000000E+00 0.  1.
         13   -1    0    0    0    0 -0.00000000000E+00 -0.00000000000E+00 -0.27500000000E+03  0.27500000000E+03  0.00000000000E+00 0.  1.
    9000005    2    1    2  501    0 -0.20151817596E+02 -0.31721687506E+02 -0.68350547894E+02  0.46433457042E+03  0.45773620644E+03 0.  0.
         13    1    3    3    0    0  0.12575929070E+02 -0.11793510081E+03 -0.24099850586E+03  0.26860216272E+03  0.00000000000E+00 0.  1.
          1    1    3    3  501    0 -0.32727746666E+02  0.86213413304E+02  0.17264795796E+03  0.19573240770E+03  0.00000000000E+00 0.  1.
         21    1    1    2  502  501  0.20151817596E+02  0.31721687506E+02  0.32127163887E+02  0.49442045569E+02  0.00000000000E+00 0.  1.
<scales pt_clust_4="550.00000" pt_clust_5="550.00000" pt_clust_6="37.58139"></scales>
<mgrwt>
<rscale>  0 0.30000000E+03</rscale>
<asrwt>  1 0.37581394E+02</asrwt>
<pdfrwt beam="1">  1        1 0.86827860E+00 0.30000000E+03</pdfrwt>
<pdfrwt beam="2">0</pdfrwt>
<totfact> 0.26032149E-04</totfact>
</mgrwt>
<clustering>
<clus scale="   37.581">  1  6  2 -1</clus>
<clus scale="  457.736">  4  5 -1 -1</clus>
<clus scale="  300.000">  1  4  2 -1</clus>
</clustering>
</event>
<event>
 6    1  0.9462926E-012  0.3000000E+03  0.7818608E-02  0.1093470E+00
          1   -1    0    0  502    0  0.00000000000E+00  0.00000000000E+00  0.23279862956E+03  0.23279862956E+03  0.00000000000E+00 0.  1.
         13   -1    0    0    0    0 -0.00000000000E+00 -0.00000000000E+00 -0.27500000000E+03  0.27500000000E+03  0.00000000000E+00 0.  1.
    9000005    2    1    2  501    0 -0.34035157088E+02 -0.24188894570E+02 -0.51632338793E+02  0.46499164762E+03  0.46022585695E+03 0.  0.
         13    1    3    3    0    0 -0.68272507203E+02 -0.38543953075E+02 -0.25060630901E+03  0.26258387931E+03  0.00000000000E+00 0.  1.
          1    1    3    3  501    0  0.34237350115E+02  0.14355058504E+02  0.19897397022E+03  0.20240776831E+03  0.00000000000E+00 0.  1.
         21    1    1    2  502  501  0.34035157088E+02  0.24188894570E+02  0.94309683514E+01  0.42806981937E+02  0.00000000000E+00 0. -1.
<scales pt_clust_4="550.00000" pt_clust_5="550.00000" pt_clust_6="41.75517"></scales>
<mgrwt>
<rscale>  0 0.30000000E+03</rscale>
<asrwt>  1 0.41755174E+02</asrwt>
<pdfrwt beam="1">  1        1 0.84654047E+00 0.30000000E+03</pdfrwt>
<pdfrwt beam="2">0</pdfrwt>
<totfact> 0.42387095E-04</totfact>
</mgrwt>
<clustering>
<clus scale="   41.755">  1  6  2 -1</clus>
<clus scale="  460.226">  4  5 -1 -1</clus>
<clus scale="  300.000">  1  4  2 -1</clus>
</clustering>
</event>
<event>
 6    1  0.9462926E-012  0.3000000E+03  0.7818608E-02  0.1093470E+00
          1   -1    0    0  502    0  0.00000000000E+00  0.00000000000E+00  0.24622610099E+03  0.24622610099E+03  0.00000000000E+00 0.  1.
         13   -1    0    0    0    0 -0.00000000000E+00 -0.00000000000E+00 -0.27500000000E+03  0.27500000000E+03  0.00000000000E+00 0.  1.
    9000005    2    1    2  501    0  0.97572490002E+01 -0.29807453672E+02 -0.45807272079E+02  0.48553542993E+03  0.48235117844E+03 0.  0.
         13    1    3    3    0    0  0.17776948329E+03 -0.13606592624E+03 -0.14157514086E+03  0.26487628429E+03  0.00000000000E+00 0.  1.
          1    1    3    3  501    0 -0.16801223429E+03  0.10625847256E+03  0.95767868784E+02  0.22065914564E+03  0.00000000000E+00 0.  1.
         21    1    1    2  502  501 -0.97572490002E+01  0.29807453672E+02  0.17033373073E+02  0.35690671060E+02  0.00000000000E+00 0.  1.
<scales pt_clust_4="550.00000" pt_clust_5="550.00000" pt_clust_6="31.36380"></scales>
<mgrwt>
<rscale>  0 0.30000000E+03</rscale>
<asrwt>  1 0.31363804E+02</asrwt>
<pdfrwt beam="1">  1        1 0.89536764E+00 0.30000000E+03</pdfrwt>
<pdfrwt beam="2">0</pdfrwt>
<totfact> 0.12751900E-04</totfact>
</mgrwt>
<clustering>
<clus scale="   31.364">  1  6  2 -1</clus>
<clus scale="  482.351">  4  5 -1 -1</clus>
<clus scale="  300.000">  1  4  2 -1</clus>
</clustering>
</event>
<event>
 6    1  0.9462926E-012  0.3000000E+03  0.7818608E-02  0.1093470E+00
          1   -1    0    0  502    0  0.00000000000E+00  0.00000000000E+00  0.22556970892E+03  0.22556970892E+03  0.00000000000E+00 0.  1.
         13   -1    0    0    0    0 -0.00000000000E+00 -0.00000000000E+00 -0.27500000000E+03  0.27500000000E+03  0.00000000000E+00 0.  1.
    9000005    2    1    2  501    0 -0.28347383260E+02  0.11856050573E+02 -0.58898183475E+02  0.46841724308E+03  0.46368262586E+03 0.  0.
         13    1    3    3    0    0 -0.53901370658E+02  0.20768262230E+03  0.77802423531E+02  0.22823375401E+03  0.00000000000E+00 0.  1.
          3    1    3    3  501    0  0.25553987398E+02 -0.19582657173E+03 -0.13670060701E+03  0.24018348907E+03  0.00000000000E+00 0.  1.
         21    1    1    2  502  501  0.28347383260E+02 -0.11856050573E+02  0.94678923902E+01  0.32152465834E+02  0.00000000000E+00 0. -1.
<scales pt_clust_4="550.00000" pt_clust_5="550.00000" pt_clust_6="30.72686"></scales>
<mgrwt>
<rscale>  0 0.30000000E+03</rscale>
<asrwt>  1 0.30726862E+02</asrwt>
<pdfrwt beam="1">  1        1 0.82025349E+00 0.30000000E+03</pdfrwt>
<pdfrwt beam="2">0</pdfrwt>
<totfact> 0.73759980E-04</totfact>
</mgrwt>
<clustering>
<clus scale="   30.727">  1  6  2 -1</clus>
<clus scale="  463.683">  4  5 -1 -1</clus>
<clus scale="  300.000">  1  4  2 -1</clus>
</clustering>
</event>
<event>
 6    1  0.9462926E-012  0.3000000E+03  0.7818608E-02  0.1093470E+00
          1   -1    0    0  502    0  0.00000000000E+00  0.00000000000E+00  0.22518886502E+03  0.22518886502E+03  0.00000000000E+00 0.  1.
         13   -1    0    0    0    0 -0.00000000000E+00 -0.00000000000E+00 -0.27500000000E+03  0.27500000000E+03  0.00000000000E+00 0.  1.
    9000005    2    1    2  501    0  0.18854407013E+02 -0.25872334886E+02 -0.57620413487E+02  0.46723660854E+03  0.46256358475E+03 0.  0.
         13    1    3    3    0    0  0.21389301238E+03 -0.97558290755E+02  0.38609834013E+02  0.23824055096E+03  0.00000000000E+00 0.  1.
          1    1    3    3  501    0 -0.19503860537E+03  0.71685955869E+02 -0.96230247501E+02  0.22899605758E+03  0.00000000000E+00 0.  1.
         21    1    1    2  502  501 -0.18854407013E+02  0.25872334886E+02  0.78092785062E+01  0.32952256479E+02  0.00000000000E+00 0.  1.
<scales pt_clust_4="550.00000" pt_clust_5="550.00000" pt_clust_6="32.01353"></scales>
<mgrwt>
<rscale>  0 0.30000000E+03</rscale>
<asrwt>  1 0.32013534E+02</asrwt>
<pdfrwt beam="1">  1        1 0.81886860E+00 0.30000000E+03</pdfrwt>
<pdfrwt beam="2">0</pdfrwt>
<totfact> 0.75218860E-04</totfact>
</mgrwt>
<clustering>
<clus scale="   32.014">  1  6  2 -1</clus>
<clus scale="  462.564">  4  5 -1 -1</clus>
<clus scale="  300.000">  1  4  2 -1</clus>
</clustering>
</event>
<event>
 6    1  0.9462926E-012  0.3000000E+03  0.7818608E-02  0.1093470E+00
          1   -1    0    0  502    0  0.00000000000E+00  0.00000000000E+00  0.22557033996E+03  0.22557033996E+03  0.00000000000E+00 0.  1.
         13   -1    0    0    0    0 -0.00000000000E+00 -0.00000000000E+00 -0.27500000000E+03  0.27500000000E+03  0.00000000000E+00 0.  1.
    9000005    2    1    2  501    0  0.32662483994E+02 -0.12587407207E+02 -0.53857575215E+02  0.46528738212E+03  0.46083232186E+03 0.  0.
         13    1    3    3    0    0 -0.40881661701E+02 -0.22446293018E+03  0.20329299084E+02  0.22905937591E+03  0.00000000000E+00 0.  1.
          1    1    3    3  501    0  0.73544145695E+02  0.21187552298E+03 -0.74186874299E+02  0.23622800622E+03  0.00000000000E+00 0.  1.
         21    1    1    2  502  501 -0.32662483994E+02  0.12587407207E+02  0.44279151746E+01  0.35282957836E+02  0.00000000000E+00 0.  1.
<scales pt_clust_4="550.00000" pt_clust_5="550.00000" pt_clust_6="35.00401"></scales>
<mgrwt>
<rscale>  0 0.30000000E+03</rscale>
<asrwt>  1 0.35004009E+02</asrwt>
<pdfrwt beam="1">  1        1 0.82025578E+00 0.30000000E+03</pdfrwt>
<pdfrwt beam="2">0</pdfrwt>
<totfact> 0.71959012E-04</totfact>
</mgrwt>
<clustering>
<clus scale="   35.004">  1  6  2 -1</clus>
<clus scale="  460.832">  4  5 -1 -1</clus>
<clus scale="  300.000">  1  4  2 -1</clus>
</clustering>
</event>
<event>
 6    1  0.9462926E-012  0.3000000E+03  0.7818608E-02  0.1093470E+00
          1   -1    0    0  502    0  0.00000000000E+00  0.00000000000E+00  0.21883530194E+03  0.21883530194E+03  0.00000000000E+00 0.  1.
         13   -1    0    0    0    0 -0.00000000000E+00 -0.00000000000E+00 -0.27500000000E+03  0.27500000000E+03  0.00000000000E+00 0.  1.
    9000005    2    1    2  501    0  0.18867324493E+02  0.24256762121E+02 -0.55451949959E+02  0.46309649175E+03  0.45873638996E+03 0.  0.
         13    1    3    3    0    0  0.17562410409E+03 -0.27320421080E+02 -0.18256340844E+03  0.25479330730E+03  0.00000000000E+00 0.  1.
          1    1    3    3  501    0 -0.15675677959E+03  0.51577183201E+02  0.12711145848E+03  0.20830318445E+03  0.00000000000E+00 0.  1.
         21    1    1    2  502  501 -0.18867324493E+02 -0.24256762121E+02 -0.71274809973E+00  0.30738810191E+02  0.00000000000E+00 0. -1.
<scales pt_clust_4="550.00000" pt_clust_5="550.00000" pt_clust_6="30.73055"></scales>
<mgrwt>
<rscale>  0 0.30000000E+03</rscale>
<asrwt>  1 0.30730546E+02</asrwt>
<pdfrwt beam="1">  1        1 0.79576473E+00 0.30000000E+03</pdfrwt>
<pdfrwt beam="2">0</pdfrwt>
<totfact> 0.11411804E-03</totfact>
</mgrwt>
<clustering>
<clus scale="   30.731">  1  6  2 -1</clus>
<clus scale="  458.736">  4  5 -1 -1</clus>
<clus scale="  300.000">  1  4  2 -1</clus>
</clustering>
</event>
<event>
 6    1  0.9462926E-012  0.3000000E+03  0.7818608E-02  0.1093470E+00
          1   -1    0    0  502    0  0.00000000000E+00  0.00000000000E+00  0.23119156503E+03  0.23119156503E+03  0.00000000000E+00 0.  1.
         13   -1    0    0    0    0 -0.00000000000E+00 -0.00000000000E+00 -0.27500000000E+03  0.27500000000E+03  0.00000000000E+00 0.  1.
    9000005    2    1    2  501    0 -0.33596154044E+02 -0.11257378711E+02 -0.58734096140E+02  0.46774412684E+03  0.46268719887E+03 0.  0.
         13    1    3    3    0    0 -0.14789549685E+03 -0.15912313013E+03  0.83654870563E+02  0.23279043343E+03  0.00000000000E+00 0.  1.
          3    1    3    3  501    0  0.11429934280E+03  0.14786575141E+03 -0.14238896670E+03  0.23495369341E+03  0.00000000000E+00 0.  1.
         21    1    1    2  502  501  0.33596154044E+02  0.11257378711E+02  0.14925661165E+02  0.38447438188E+02  0.00000000000E+00 0.  1.
<scales pt_clust_4="550.00000" pt_clust_5="550.00000" pt_clust_6="35.43205"></scales>
<mgrwt>
<rscale>  0 0.30000000E+03</rscale>
<asrwt>  1 0.35432050E+02</asrwt>
<pdfrwt beam="1">  1        1 0.84069660E+00 0.30000000E+03</pdfrwt>
<pdfrwt beam="2">0</pdfrwt>
<totfact> 0.48977106E-04</totfact>
</mgrwt>
<clustering>
<clus scale="   35.432">  1  6  2 -1</clus>
<clus scale="  462.687">  4  5 -1 -1</clus>
<clus scale="  300.000">  1  4  2 -1</clus>
</clustering>
</event>
<event>
 6    1  0.9462926E-012  0.3000000E+03  0.7818608E-02  0.1093470E+00
          1   -1    0    0  502    0  0.00000000000E+00  0.00000000000E+00  0.23746527320E+03  0.23746527320E+03  0.00000000000E+00 0.  1.
         13   -1    0    0    0    0 -0.00000000000E+00 -0.00000000000E+00 -0.27500000000E+03  0.27500000000E+03  0.00000000000E+00 0.  1.
    9000005    2    1    2  501    0 -0.11327852737E+02 -0.40272558310E+02 -0.57513431301E+02  0.46610421374E+03  0.46064644152E+03 0.  0.
         13    1    3    3    0    0  0.46308342834E+02 -0.35464224695E+02  0.19681822255E+03  0.20527928920E+03  0.00000000000E+00 0.  1.
          3    1    3    3  501    0 -0.57636195571E+02 -0.48083336155E+01 -0.25433165385E+03  0.26082492454E+03  0.00000000000E+00 0.  1.
         21    1    1    2  502  501  0.11327852737E+02  0.40272558310E+02  0.19978704502E+02  0.46361059458E+02  0.00000000000E+00 0.  1.
<scales pt_clust_4="550.00000" pt_clust_5="550.00000" pt_clust_6="41.83538"></scales>
<mgrwt>
<rscale>  0 0.30000000E+03</rscale>
<asrwt>  1 0.41835382E+02</asrwt>
<pdfrwt beam="1">  1        1 0.86351008E+00 0.30000000E+03</pdfrwt>
<pdfrwt beam="2">0</pdfrwt>
<totfact> 0.28690999E-04</totfact>
</mgrwt>
<clustering>
<clus scale="   41.835">  1  6  2 -1</clus>
<clus scale="  460.646">  4  5 -1 -1</clus>
<clus scale="  300.000">  1  4  2 -1</clus>
</clustering>
</event>
<event>
 6    1  0.9462926E-012  0.3000000E+03  0.7818608E-02  0.1093470E+00
          1   -1    0    0  502    0  0.00000000000E+00  0.00000000000E+00  0.24953184368E+03  0.24953184368E+03  0.00000000000E+00 0.  1.
         13   -1    0    0    0    0 -0.00000000000E+00 -0.00000000000E+00 -0.27500000000E+03  0.27500000000E+03  0.00000000000E+00 0.  1.
    9000005    2    1    2  501    0  0.18080970840E+02  0.30711904216E+02 -0.48263411329E+02  0.48222621500E+03  0.47847949067E+03 0.  0.
         13    1    3    3    0    0  0.78361217827E+02  0.24352007824E+03  0.10954744711E+00  0.25581735861E+03  0.00000000000E+00 0.  1.
          1    1    3    3  501    0 -0.60280246987E+02 -0.21280817403E+03 -0.48372958776E+02  0.22640885639E+03  0.00000000000E+00 0.  1.
         21    1    1    2  502  501 -0.18080970840E+02 -0.30711904216E+02  0.22795255004E+02  0.42305628678E+02  0.00000000000E+00 0.  1.
<scales pt_clust_4="550.00000" pt_clust_5="550.00000" pt_clust_6="35.63906"></scales>
<mgrwt>
<rscale>  0 0.30000000E+03</rscale>
<asrwt>  1 0.35639060E+02</asrwt>
<pdfrwt beam="1">  1        1 0.90738852E+00 0.30000000E+03</pdfrwt>
<pdfrwt beam="2">0</pdfrwt>
<totfact> 0.82345543E-05</totfact>
</mgrwt>
<clustering>
<clus scale="   35.639">  1  6  2 -1</clus>
<clus scale="  478.479">  4  5 -1 -1</clus>
<clus scale="  300.000">  1  4  2 -1</clus>
</clustering>
</event>
<event>
 6    1  0.9462926E-012  0.3000000E+03  0.7818608E-02  0.1093470E+00
          1   -1    0    0  502    0  0.00000000000E+00  0.00000000000E+00  0.22923849249E+03  0.22923849249E+03  0.00000000000E+00 0.  1.
         13   -1    0    0    0    0 -0.00000000000E+00 -0.00000000000E+00 -0.27500000000E+03  0.27500000000E+03  0.00000000000E+00 0.  1.
    9000005    2    1    2  501    0 -0.27983929329E+02 -0.29225175745E+02 -0.46743681076E+02  0.46376410723E+03  0.45962480811E+03 0.  0.
         13    1    3    3    0    0 -0.10076098076E+03 -0.36918780020E+02 -0.23686727131E+03  0.26004206540E+03  0.00000000000E+00 0.  1.
          3    1    3    3  501    0  0.72777051429E+02  0.76936042747E+01  0.19012359023E+03  0.20372204182E+03  0.00000000000E+00 0.  1.
         21    1    1    2  502  501  0.27983929329E+02  0.29225175745E+02  0.98217357065E+00  0.40474385270E+02  0.00000000000E+00 0. -1.
<scales pt_clust_4="550.00000" pt_clust_5="550.00000" pt_clust_6="40.46247"></scales>
<mgrwt>
<rscale>  0 0.30000000E+03</rscale>
<asrwt>  1 0.40462467E+02</asrwt>
<pdfrwt beam="1">  1        1 0.83359452E+00 0.30000000E+03</pdfrwt>
<pdfrwt beam="2">0</pdfrwt>
<totfact> 0.53940956E-04</totfact>
</mgrwt>
<clustering>
<clus scale="   40.462">  1  6  2 -1</clus>
<clus scale="  459.625">  4  5 -1 -1</clus>
<clus scale="  300.000">  1  4  2 -1</clus>
</clustering>
</event>
<event>
 6    1  0.9462926E-012  0.3000000E+03  0.7818608E-02  0.1093470E+00
          1   -1    0    0  502    0  0.00000000000E+00  0.00000000000E+00  0.24078318241E+03  0.24078318241E+03  0.00000000000E+00 0.  1.
         13   -1    0    0    0    0 -0.00000000000E+00 -0.00000000000E+00 -0.27500000000E+03  0.27500000000E+03  0.00000000000E+00 0.  1.
    9000005    2    1    2  501    0 -0.79847301891E+01 -0.37932925793E+02 -0.58111440146E+02  0.47024621103E+03  0.46502892032E+03 0.  0.
         13    1    3    3    0    0  0.19499086351E+03  0.60295851666E+02  0.63885281509E+02  0.21386527482E+03  0.00000000000E+00 0.  1.
          1    1    3    3  501    0 -0.20297559370E+03 -0.98228777458E+02 -0.12199672166E+03  0.25638093621E+03  0.00000000000E+00 0.  1.
         21    1    1    2  502  501  0.79847301891E+01  0.37932925793E+02  0.23894622560E+02  0.45536971382E+02  0.00000000000E+00 0.  1.
<scales pt_clust_4="550.00000" pt_clust_5="550.00000" pt_clust_6="38.76419"></scales>
<mgrwt>
<rscale>  0 0.30000000E+03</rscale>
<asrwt>  1 0.38764195E+02</asrwt>
<pdfrwt beam="1">  1        1 0.87557521E+00 0.30000000E+03</pdfrwt>
<pdfrwt beam="2">0</pdfrwt>
<totfact> 0.21762077E-04</totfact>
</mgrwt>
<clustering>
<clus scale="   38.764">  1  6  2 -1</clus>
<clus scale="  465.029">  4  5 -1 -1</clus>
<clus scale="  300.000">  1  4  2 -1</clus>
</clustering>
</event>
<event>
 6    1  0.9462926E-012  0.3000000E+03  0.7818608E-02  0.1093470E+00
          1   -1    0    0  502    0  0.00000000000E+00  0.00000000000E+00  0.23609455332E+03  0.23609455332E+03  0.00000000000E+00 0.  1.
         13   -1    0    0    0    0 -0.00000000000E+00 -0.00000000000E+00 -0.27500000000E+03  0.27500000000E+03  0.00000000000E+00 0.  1.
    9000005    2    1    2  501    0 -0.53106803970E+01  0.34836452227E+02 -0.15086141899E+02  0.46856055504E+03  0.46698995742E+03 0.  0.
         13    1    3    3    0    0 -0.50639396877E+01 -0.56687826065E+02 -0.22895921294E+03  0.23592684099E+03  0.00000000000E+00 0.  1.
          3    1    3    3  501    0 -0.24674070929E+00  0.91524278293E+02  0.21387307104E+03  0.23263371405E+03  0.00000000000E+00 0.  1.
         21    1    1    2  502  501  0.53106803970E+01 -0.34836452227E+02 -0.23819304777E+02  0.42533998285E+02  0.00000000000E+00 0. -1.
<scales pt_clust_4="550.00000" pt_clust_5="550.00000" pt_clust_6="35.23894"></scales>
<mgrwt>
<rscale>  0 0.30000000E+03</rscale>
<asrwt>  1 0.35238941E+02</asrwt>
<pdfrwt beam="1">  1        1 0.85852565E+00 0.30000000E+03</pdfrwt>
<pdfrwt beam="2">0</pdfrwt>
<totfact> 0.33487818E-04</totfact>
</mgrwt>
<clustering>
<clus scale="   35.239">  1  6  2 -1</clus>
<clus scale="  466.990">  4  5 -1 -1</clus>
<clus scale="  300.000">  1  4  2 -1</clus>
</clustering>
</event>
<event>
 6    1  0.9462926E-012  0.3000000E+03  0.7818608E-02  0.1093470E+00
          1   -1    0    0  502    0  0.00000000000E+00  0.00000000000E+00  0.24263035335E+03  0.24263035335E+03  0.00000000000E+00 0.  1.
         13   -1    0    0    0    0 -0.00000000000E+00 -0.00000000000E+00 -0.27500000000E+03  0.27500000000E+03  0.00000000000E+00 0.  1.
    9000005    2    1    2  501    0  0.22345358991E+02 -0.30722732565E+02 -0.55356509460E+02  0.47322768196E+03  0.46844091887E+03 0.  0.
         13    1    3    3    0    0 -0.12131273641E+03  0.16041849024E+03 -0.10815438656E+03  0.22835989875E+03  0.00000000000E+00 0.  1.
          1    1    3    3  501    0  0.14365809540E+03 -0.19114122280E+03  0.52797877101E+02  0.24486778321E+03  0.00000000000E+00 0.  1.
         21    1    1    2  502  501 -0.22345358991E+02  0.30722732565E+02  0.22986862813E+02  0.44402671391E+02  0.00000000000E+00 0.  1.
<scales pt_clust_4="550.00000" pt_clust_5="550.00000" pt_clust_6="37.98949"></scales>
<mgrwt>
<rscale>  0 0.30000000E+03</rscale>
<asrwt>  1 0.37989490E+02</asrwt>
<pdfrwt beam="1">  1        1 0.88229219E+00 0.30000000E+03</pdfrwt>
<pdfrwt beam="2">0</pdfrwt>
<totfact> 0.18175758E-04</totfact>
</mgrwt>
<clustering>
<clus scale="   37.989">  1  6  2 -1</clus>
<clus scale="  468.441">  4  5 -1 -1</clus>
<clus scale="  300.000">  1  4  2 -1</clus>
</clustering>
</event>
<event>
 6    1  0.9462926E-012  0.3000000E+03  0.7818608E-02  0.1093470E+00
          1   -1    0    0  502    0  0.00000000000E+00  0.00000000000E+00  0.22946051790E+03  0.22946051790E+03  0.00000000000E+00 0.  1.
         13   -1    0    0    0    0 -0.00000000000E+00 -0.00000000000E+00 -0.27500000000E+03  0.27500000000E+03  0.00000000000E+00 0.  1.
    9000005    2    1    2  501    0  0.24835273170E+01 -0.38636737276E+02 -0.39024319904E+02  0.46519968864E+03  0.46194035047E+03 0.  0.
         13    1    3    3    0    0  0.14893977358E+03  0.13569244519E+03 -0.10627206751E+03  0.22779211613E+03  0.00000000000E+00 0.  1.
          1    1    3    3  501    0 -0.14645624627E+03 -0.17432918247E+03  0.67247747604E+02  0.23740757252E+03  0.00000000000E+00 0.  1.
         21    1    1    2  502  501 -0.24835273170E+01  0.38636737276E+02 -0.65151621981E+01  0.39260829254E+02  0.00000000000E+00 0.  1.
<scales pt_clust_4="550.00000" pt_clust_5="550.00000" pt_clust_6="38.71649"></scales>
<mgrwt>
<rscale>  0 0.30000000E+03</rscale>
<asrwt>  1 0.38716494E+02</asrwt>
<pdfrwt beam="1">  1        1 0.83440188E+00 0.30000000E+03</pdfrwt>
<pdfrwt beam="2">0</pdfrwt>
<totfact> 0.53634882E-04</totfact>
</mgrwt>
<clustering>
<clus scale="   38.716">  1  6  2 -1</clus>
<clus scale="  461.940">  4  5 -1 -1</clus>
<clus scale="  300.000">  1  4  2 -1</clus>
</clustering>
</event>
<event>
 6    1  0.9462926E-012  0.3000000E+03  0.7818608E-02  0.1093470E+00
          1   -1    0    0  502    0  0.00000000000E+00  0.00000000000E+00  0.24457695231E+03  0.24457695231E+03  0.00000000000E+00 0.  1.
         13   -1    0    0    0    0 -0.00000000000E+00 -0.00000000000E+00 -0.27500000000E+03  0.27500000000E+03  0.00000000000E+00 0.  1.
    9000005    2    1    2  501    0  0.26100373050E+02  0.26163378370E+02 -0.39916378421E+02  0.48142102001E+03  0.47833788205E+03 0.  0.
         13    1    3    3    0    0 -0.64585181839E+02 -0.67842167701E+02 -0.23139494188E+03  0.24963458206E+03  0.00000000000E+00 0.  1.
          3    1    3    3  501    0  0.90685554889E+02  0.94005546071E+02  0.19147856346E+03  0.23178643796E+03  0.00000000000E+00 0.  1.
         21    1    1    2  502  501 -0.26100373050E+02 -0.26163378370E+02  0.94933307315E+01  0.38155932297E+02  0.00000000000E+00 0.  1.
<scales pt_clust_4="550.00000" pt_clust_5="550.00000" pt_clust_6="36.95608"></scales>
<mgrwt>
<rscale>  0 0.30000000E+03</rscale>
<asrwt>  1 0.36956080E+02</asrwt>
<pdfrwt beam="1">  1        1 0.88937074E+00 0.30000000E+03</pdfrwt>
<pdfrwt beam="2">0</pdfrwt>
<totfact> 0.14630911E-04</totfact>
</mgrwt>
<clustering>
<clus scale="   36.956">  1  6  2 -1</clus>
<clus scale="  478.338">  4  5 -1 -1</clus>
<clus scale="  300.000">  1  4  2 -1</clus>
</clustering>
</event>
<event>
 6    1  0.9462926E-012  0.3000000E+03  0.7818608E-02  0.1093470E+00
          1   -1    0    0  502    0  0.00000000000E+00  0.00000000000E+00  0.23243220094E+03  0.23243220094E+03  0.00000000000E+00 0.  1.
         13   -1    0    0    0    0 -0.00000000000E+00 -0.00000000000E+00 -0.27500000000E+03  0.27500000000E+03  0.00000000000E+00 0.  1.
    9000005    2    1    2  501    0 -0.29721332911E+02  0.13641721290E+02 -0.56748539948E+02  0.47178745937E+03  0.46721895920E+03 0.  0.
         13    1    3    3    0    0  0.21441578516E+03 -0.34822031439E+02 -0.49435140043E+02  0.22277911901E+03  0.00000000000E+00 0.  1.
          3    1    3    3  501    0 -0.24413711807E+03  0.48463752729E+02 -0.73133999059E+01  0.24900834035E+03  0.00000000000E+00 0.  1.
         21    1    1    2  502  501  0.29721332911E+02 -0.13641721290E+02  0.14180740891E+02  0.35644741575E+02  0.00000000000E+00 0. -1.
<scales pt_clust_4="550.00000" pt_clust_5="550.00000" pt_clust_6="32.70251"></scales>
<mgrwt>
<rscale>  0 0.30000000E+03</rscale>
<asrwt>  1 0.32702510E+02</asrwt>
<pdfrwt beam="1">  1        1 0.84520800E+00 0.30000000E+03</pdfrwt>
<pdfrwt beam="2">0</pdfrwt>
<totfact> 0.45572036E-04</totfact>
</mgrwt>
<clustering>
<clus scale="   32.703">  1  6  2 -1</clus>
<clus scale="  467.219">  4  5 -1 -1</clus>
<clus scale="  300.000">  1  4  2 -1</clus>
</clustering>
</event>
<event>
 6    1  0.9462926E-012  0.3000000E+03  0.7818608E-02  0.1093470E+00
          1   -1    0    0  502    0  0.00000000000E+00  0.00000000000E+00  0.24699010065E+03  0.24699010065E+03  0.00000000000E+00 0.  1.
         13   -1    0    0    0    0 -0.00000000000E+00 -0.00000000000E+00 -0.27500000000E+03  0.27500000000E+03  0.00000000000E+00 0.  1.
    9000005    2    1    2  501    0 -0.32458376698E+02  0.49695923273E+01 -0.67691556425E+02  0.47048401388E+03  0.46442956134E+03 0.  0.
         13    1    3    3    0    0  0.71381245322E+02 -0.20091841724E+03 -0.10369344526E+03  0.23709876246E+03  0.00000000000E+00 0.  1.
          3    1    3    3  501    0 -0.10383962202E+03  0.20588800957E+03  0.36001888831E+02  0.23338525143E+03  0.00000000000E+00 0.  1.
         21    1    1    2  502  501  0.32458376698E+02 -0.49695923273E+01  0.39681657077E+02  0.51506086768E+02  0.00000000000E+00 0.  1.
<scales pt_clust_4="550.00000" pt_clust_5="550.00000" pt_clust_6="32.83661"></scales>
<mgrwt>
<rscale>  0 0.30000000E+03</rscale>
<asrwt>  1 0.32836612E+02</asrwt>
<pdfrwt beam="1">  1        1 0.89814582E+00 0.30000000E+03</pdfrwt>
<pdfrwt beam="2">0</pdfrwt>
<totfact> 0.11764159E-04</totfact>
</mgrwt>
<clustering>
<clus scale="   32.837">  1  6  2 -1</clus>
<clus scale="  464.430">  4  5 -1 -1</clus>
<clus scale="  300.000">  1  4  2 -1</clus>
</clustering>
</event>
<event>
 6    1  0.9462926E-012  0.3000000E+03  0.7818608E-02  0.1093470E+00
          1   -1    0    0  502    0  0.00000000000E+00  0.00000000000E+00  0.22192726113E+03  0.22192726113E+03  0.00000000000E+00 0.  1.
         13   -1    0    0    0    0 -0.00000000000E+00 -0.00000000000E+00 -0.27500000000E+03  0.27500000000E+03  0.00000000000E+00 0.  1.
    9000005    2    1    2  501    0  0.31202234794E+02  0.13987027418E+02 -0.60498154801E+02  0.46193650244E+03  0.45667941618E+03 0.  0.
         13    1    3    3    0    0  0.22795284985E+03 -0.75626562206E+02 -0.51028358426E+02  0.24553161106E+03  0.00000000000E+00 0.  1.
          3    1    3    3  501    0 -0.19675061506E+03  0.89613589624E+02 -0.94697963753E+01  0.21640489138E+03  0.00000000000E+00 0.  1.
         21    1    1    2  502  501 -0.31202234794E+02 -0.13987027418E+02  0.74254159358E+01  0.34990758694E+02  0.00000000000E+00 0.  1.
<scales pt_clust_4="550.00000" pt_clust_5="550.00000" pt_clust_6="34.19381"></scales>
<mgrwt>
<rscale>  0 0.30000000E+03</rscale>
<asrwt>  1 0.34193806E+02</asrwt>
<pdfrwt beam="1">  1        1 0.80700822E+00 0.30000000E+03</pdfrwt>
<pdfrwt beam="2">0</pdfrwt>
<totfact> 0.92390127E-04</totfact>
</mgrwt>
<clustering>
<clus scale="   34.194">  1  6  2 -1</clus>
<clus scale="  456.679">  4  5 -1 -1</clus>
<clus scale="  300.000">  1  4  2 -1</clus>
</clustering>
</event>
<event>
 6    1  0.9462926E-012  0.3000000E+03  0.7818608E-02  0.1093470E+00
          1   -1    0    0  502    0  0.00000000000E+00  0.00000000000E+00  0.23205464227E+03  0.23205464227E+03  0.00000000000E+00 0.  1.
         13   -1    0    0    0    0 -0.00000000000E+00 -0.00000000000E+00 -0.27500000000E+03  0.27500000000E+03  0.00000000000E+00 0.  1.
    9000005    2    1    2  501    0 -0.13849028728E+02 -0.30430320179E+02 -0.37802950742E+02  0.47322796149E+03  0.47052931946E+03 0.  0.
         13    1    3    3    0    0  0.20729960367E+03 -0.10803393251E+03 -0.47991955359E+02  0.23863713884E+03  0.00000000000E+00 0.  1.
          1    1    3    3  501    0 -0.22114863240E+03  0.77603612328E+02  0.10189004618E+02  0.23459082265E+03  0.00000000000E+00 0.  1.
         21    1    1    2  502  501  0.13849028728E+02  0.30430320179E+02 -0.51424069881E+01  0.33826680779E+02  0.00000000000E+00 0.  1.
<scales pt_clust_4="550.00000" pt_clust_5="550.00000" pt_clust_6="33.43353"></scales>
<mgrwt>
<rscale>  0 0.30000000E+03</rscale>
<asrwt>  1 0.33433533E+02</asrwt>
<pdfrwt beam="1">  1        1 0.84383506E+00 0.30000000E+03</pdfrwt>
<pdfrwt beam="2">0</pdfrwt>
<totfact> 0.46642422E-04</totfact>
</mgrwt>
<clustering>
<clus scale="   33.434">  1  6  2 -1</clus>
<clus scale="  470.529">  4  5 -1 -1</clus>
<clus scale="  300.000">  1  4  2 -1</clus>
</clustering>
</event>
<event>
 6    1  0.9462926E-012  0.3000000E+03  0.7818608E-02  0.1093470E+00
          1   -1    0    0  502    0  0.00000000000E+00  0.00000000000E+00  0.23311508671E+03  0.23311508671E+03  0.00000000000E+00 0.  1.
         13   -1    0    0    0    0 -0.00000000000E+00 -0.00000000000E+00 -0.27500000000E+03  0.27500000000E+03  0.00000000000E+00 0.  1.
    9000005    2    1    2  501    0  0.18059545462E+02 -0.27678436810E+02 -0.60889845345E+02  0.46999120326E+03  0.46485687564E+03 0.  0.
         13    1    3    3    0    0 -0.51443732245E+02  0.79094059323E+01  0.19532561415E+03  0.20214131649E+03  0.00000000000E+00 0.  1.
          1    1    3    3  501    0  0.69503277707E+02 -0.35587842743E+02 -0.25621545949E+03  0.26784988678E+03  0.00000000000E+00 0.  1.
         21    1    1    2  502  501 -0.18059545462E+02  0.27678436810E+02  0.19004932053E+02  0.38123883445E+02  0.00000000000E+00 0. -1.
<scales pt_clust_4="550.00000" pt_clust_5="550.00000" pt_clust_6="33.04910"></scales>
<mgrwt>
<rscale>  0 0.30000000E+03</rscale>
<asrwt>  1 0.33049101E+02</asrwt>
<pdfrwt beam="1">  1        1 0.84769122E+00 0.30000000E+03</pdfrwt>
<pdfrwt beam="2">0</pdfrwt>
<totfact> 0.43213804E-04</totfact>
</mgrwt>
<clustering>
<clus scale="   33.049">  1  6  2 -1</clus>
<clus scale="  464.857">  4  5 -1 -1</clus>
<clus scale="  300.000">  1  4  2 -1</clus>
</clustering>
</event>
<event>
 6    1  0.9462926E-012  0.3000000E+03  0.7818608E-02  0.1093470E+00
          1   -1    0    0  502    0  0.00000000000E+00  0.00000000000E+00  0.22560176449E+03  0.22560176449E+03  0.00000000000E+00 0.  1.
         13   -1    0    0    0    0 -0.00000000000E+00 -0.00000000000E+00 -0.27500000000E+03  0.27500000000E+03  0.00000000000E+00 0.  1.
    9000005    2    1    2  501    0 -0.16692014063E+02  0.30293566341E+02 -0.60318483898E+02  0.46433090401E+03  0.45909535548E+03 0.  0.
         13    1    3    3    0    0  0.14864353806E+03 -0.23356948839E+02 -0.19366794372E+03  0.24525032292E+03  0.00000000000E+00 0.  1.
          1    1    3    3  501    0 -0.16533555212E+03  0.53650515180E+02  0.13334945982E+03  0.21908058109E+03  0.00000000000E+00 0.  1.
         21    1    1    2  502  501  0.16692014063E+02 -0.30293566341E+02  0.10920248387E+02  0.36270860480E+02  0.00000000000E+00 0. -1.
<scales pt_clust_4="550.00000" pt_clust_5="550.00000" pt_clust_6="34.58791"></scales>
<mgrwt>
<rscale>  0 0.30000000E+03</rscale>
<asrwt>  1 0.34587910E+02</asrwt>
<pdfrwt beam="1">  1        1 0.82037005E+00 0.30000000E+03</pdfrwt>
<pdfrwt beam="2">0</pdfrwt>
<totfact> 0.71955452E-04</totfact>
</mgrwt>
<clustering>
<clus scale="   34.588">  1  6  2 -1</clus>
<clus scale="  459.095">  4  5 -1 -1</clus>
<clus scale="  300.000">  1  4  2 -1</clus>
</clustering>
</event>
<event>
 6    1  0.9462926E-012  0.3000000E+03  0.7818608E-02  0.1093470E+00
          1   -1    0    0  502    0  0.00000000000E+00  0.00000000000E+00  0.24484504869E+03  0.24484504869E+03  0.00000000000E+00 0.  1.
         13   -1    0    0    0    0 -0.00000000000E+00 -0.00000000000E+00 -0.27500000000E+03  0.27500000000E+03  0.00000000000E+00 0.  1.
    9000005    2    1    2  501    0  0.34201212855E+02 -0.97080128980E+01 -0.72143351374E+02  0.46482692245E+03  0.45781594141E+03 0.  0.
         13    1    3    3    0    0  0.11923802709E+03 -0.12071453562E+03  0.13367056948E+03  0.21600353553E+03  0.00000000000E+00 0.  1.
          3    1    3    3  501    0 -0.85036814230E+02  0.11100652272E+03 -0.20581392086E+03  0.24882338692E+03  0.00000000000E+00 0.  1.
         21    1    1    2  502  501 -0.34201212855E+02  0.97080128980E+01  0.41988400065E+02  0.55018126243E+02  0.00000000000E+00 0.  1.
<scales pt_clust_4="550.00000" pt_clust_5="550.00000" pt_clust_6="35.55233"></scales>
<mgrwt>
<rscale>  0 0.30000000E+03</rscale>
<asrwt>  1 0.35552334E+02</asrwt>
<pdfrwt beam="1">  1        1 0.89034563E+00 0.30000000E+03</pdfrwt>
<pdfrwt beam="2">0</pdfrwt>
<totfact> 0.14301772E-04</totfact>
</mgrwt>
<clustering>
<clus scale="   35.552">  1  6  2 -1</clus>
<clus scale="  457.816">  4  5 -1 -1</clus>
<clus scale="  300.000">  1  4  2 -1</clus>
</clustering>
</event>
<event>
 6    1  0.9462926E-012  0.3000000E+03  0.7818608E-02  0.1093470E+00
          1   -1    0    0  502    0  0.00000000000E+00  0.00000000000E+00  0.23868107696E+03  0.23868107696E+03  0.00000000000E+00 0.  1.
         13   -1    0    0    0    0 -0.00000000000E+00 -0.00000000000E+00 -0.27500000000E+03  0.27500000000E+03  0.00000000000E+00 0.  1.
    9000005    2    1    2  501    0 -0.43802584833E+01 -0.34807996563E+02 -0.59047453278E+02  0.47187952943E+03  0.46685426555E+03 0.  0.
         13    1    3    3    0    0 -0.56236271898E+02 -0.19659268030E+03 -0.17255631934E+03  0.26755725288E+03  0.00000000000E+00 0.  1.
          1    1    3    3  501    0  0.51856013415E+02  0.16178468374E+03  0.11350886606E+03  0.20432227655E+03  0.00000000000E+00 0.  1.
         21    1    1    2  502  501  0.43802584833E+01  0.34807996563E+02  0.22728530236E+02  0.41801547528E+02  0.00000000000E+00 0. -1.
<scales pt_clust_4="550.00000" pt_clust_5="550.00000" pt_clust_6="35.08252"></scales>
<mgrwt>
<rscale>  0 0.30000000E+03</rscale>
<asrwt>  1 0.35082521E+02</asrwt>
<pdfrwt beam="1">  1        1 0.86793119E+00 0.30000000E+03</pdfrwt>
<pdfrwt beam="2">0</pdfrwt>
<totfact> 0.26586919E-04</totfact>
</mgrwt>
<clustering>
<clus scale="   35.083">  1  6  2 -1</clus>
<clus scale="  466.854">  4  5 -1 -1</clus>
<clus scale="  300.000">  1  4  2 -1</clus>
</clustering>
</event>
<event>
 6    1  0.9462926E-012  0.3000000E+03  0.7818608E-02  0.1093470E+00
          1   -1    0    0  502    0  0.00000000000E+00  0.00000000000E+00  0.24693644176E+03  0.24693644176E+03  0.00000000000E+00 0.  1.
         13   -1    0    0    0    0 -0.00000000000E+00 -0.00000000000E+00 -0.27500000000E+03  0.27500000000E+03  0.00000000000E+00 0.  1.
    9000005    2    1    2  501    0  0.83502413728E+01  0.33221975230E+02 -0.27572629898E+02  0.48767761545E+03  0.48569103402E+03 0.  0.
         13    1    3    3    0    0  0.12965202787E+03 -0.49570344539E+02  0.18378034914E+03  0.23030867139E+03  0.00000000000E+00 0.  1.
          3    1    3    3  501    0 -0.12130178649E+03  0.82792319768E+02 -0.21135297904E+03  0.25736894406E+03  0.00000000000E+00 0.  1.
         21    1    1    2  502  501 -0.83502413728E+01 -0.33221975230E+02 -0.49092834474E+00  0.34258826305E+02  0.00000000000E+00 0.  1.
<scales pt_clust_4="550.00000" pt_clust_5="550.00000" pt_clust_6="34.25531"></scales>
<mgrwt>
<rscale>  0 0.30000000E+03</rscale>
<asrwt>  1 0.34255309E+02</asrwt>
<pdfrwt beam="1">  1        1 0.89795070E+00 0.30000000E+03</pdfrwt>
<pdfrwt beam="2">0</pdfrwt>
<totfact> 0.11731133E-04</totfact>
</mgrwt>
<clustering>
<clus scale="   34.255">  1  6  2 -1</clus>
<clus scale="  485.691">  4  5 -1 -1</clus>
<clus scale="  300.000">  1  4  2 -1</clus>
</clustering>
</event>
<event>
 6    1  0.9462926E-012  0.3000000E+03  0.7818608E-02  0.1093470E+00
          1   -1    0    0  502    0  0.00000000000E+00  0.00000000000E+00  0.22929916814E+03  0.22929916814E+03  0.00000000000E+00 0.  1.
         13   -1    0    0    0    0 -0.00000000000E+00 -0.00000000000E+00 -0.27500000000E+03  0.27500000000E+03  0.00000000000E+00 0.  1.
    9000005    2    1    2  501    0 -0.32765143966E+02  0.62444444986E+01 -0.43998120008E+02  0.47090086019E+03  0.46765290314E+03 0.  0.
         13    1    3    3    0    0  0.93595458602E+01 -0.12060208788E+03 -0.21930477618E+03  0.25045368745E+03  0.00000000000E+00 0.  1.
          1    1    3    3  501    0 -0.42124689827E+02  0.12684653238E+03  0.17530665618E+03  0.22044717274E+03  0.00000000000E+00 0.  1.
         21    1    1    2  502  501  0.32765143966E+02 -0.62444444986E+01 -0.17027118555E+01  0.33398307950E+02  0.00000000000E+00 0. -1.
<scales pt_clust_4="550.00000" pt_clust_5="550.00000" pt_clust_6="33.35488"></scales>
<mgrwt>
<rscale>  0 0.30000000E+03</rscale>
<asrwt>  1 0.33354876E+02</asrwt>
<pdfrwt beam="1">  1        1 0.83381516E+00 0.30000000E+03</pdfrwt>
<pdfrwt beam="2">0</pdfrwt>
<totfact> 0.55696813E-04</totfact>
</mgrwt>
<clustering>
<clus scale="   33.355">  1  6  2 -1</clus>
<clus scale="  467.653">  4  5 -1 -1</clus>
<clus scale="  300.000">  1  4  2 -1</clus>
</clustering>
</event>
<event>
 6    1  0.9462926E-012  0.3000000E+03  0.7818608E-02  0.1093470E+00
          1   -1    0    0  502    0  0.00000000000E+00  0.00000000000E+00  0.24258651607E+03  0.24258651607E+03  0.00000000000E+00 0.  1.
         13   -1    0    0    0    0 -0.00000000000E+00 -0.00000000000E+00 -0.27500000000E+03  0.27500000000E+03  0.00000000000E+00 0.  1.
    9000005    2    1    2  501    0 -0.26723582733E+02  0.13995658787E+02 -0.50474951549E+02  0.48242624088E+03  0.47882912277E+03 0.  0.
         13    1    3    3    0    0  0.20082018858E+03 -0.94961306856E+01  0.83085826533E+02  0.21753661579E+03  0.00000000000E+00 0.  1.
          3    1    3    3  501    0 -0.22754377131E+03  0.23491789472E+02 -0.13356077808E+03  0.26488962509E+03  0.00000000000E+00 0.  1.
         21    1    1    2  502  501  0.26723582733E+02 -0.13995658787E+02  0.18061467616E+02  0.35160275189E+02  0.00000000000E+00 0. -1.
<scales pt_clust_4="550.00000" pt_clust_5="550.00000" pt_clust_6="30.16668"></scales>
<mgrwt>
<rscale>  0 0.30000000E+03</rscale>
<asrwt>  1 0.30166676E+02</asrwt>
<pdfrwt beam="1">  1        1 0.88213279E+00 0.30000000E+03</pdfrwt>
<pdfrwt beam="2">0</pdfrwt>
<totfact> 0.19073474E-04</totfact>
</mgrwt>
<clustering>
<clus scale="   30.167">  1  6  2 -1</clus>
<clus scale="  478.829">  4  5 -1 -1</clus>
<clus scale="  300.000">  1  4  2 -1</clus>
</clustering>
</event>
<event>
 6    1  0.9462926E-012  0.3000000E+03  0.7818608E-02  0.1093470E+00
          1   -1    0    0  502    0  0.00000000000E+00  0.00000000000E+00  0.22807494249E+03  0.22807494249E+03  0.00000000000E+00 0.  1.
         13   -1    0    0    0    0 -0.00000000000E+00 -0.00000000000E+00 -0.27500000000E+03  0.27500000000E+03  0.00000000000E+00 0.  1.
    9000005    2    1    2  501    0 -0.26287211483E+02 -0.28963647212E+02 -0.42875948985E+02  0.46375184970E+03  0.46010598860E+03 0.  0.
         13    1    3    3    0    0  0.63065831519E+02 -0.17354129431E+03  0.12648627317E+03  0.22381388974E+03  0.00000000000E+00 0.  1.
          3    1    3    3  501    0 -0.89353043002E+02  0.14457764710E+03 -0.16936222216E+03  0.23993795996E+03  0.00000000000E+00 0.  1.
         21    1    1    2  502  501  0.26287211483E+02  0.28963647212E+02 -0.40491085219E+01  0.39323092798E+02  0.00000000000E+00 0. -1.
<scales pt_clust_4="550.00000" pt_clust_5="550.00000" pt_clust_6="39.11409"></scales>
<mgrwt>
<rscale>  0 0.30000000E+03</rscale>
<asrwt>  1 0.39114088E+02</asrwt>
<pdfrwt beam="1">  1        1 0.82936343E+00 0.30000000E+03</pdfrwt>
<pdfrwt beam="2">0</pdfrwt>
<totfact> 0.58609376E-04</totfact>
</mgrwt>
<clustering>
<clus scale="   39.114">  1  6  2 -1</clus>
<clus scale="  460.106">  4  5 -1 -1</clus>
<clus scale="  300.000">  1  4  2 -1</clus>
</clustering>
</event>
<event>
 6    1  0.9462926E-012  0.3000000E+03  0.7818608E-02  0.1093470E+00
          1   -1    0    0  502    0  0.00000000000E+00  0.00000000000E+00  0.22526196183E+03  0.22526196183E+03  0.00000000000E+00 0.  1.
         13   -1    0    0    0    0 -0.00000000000E+00 -0.00000000000E+00 -0.27500000000E+03  0.27500000000E+03  0.00000000000E+00 0.  1.
    9000005    2    1    2  501    0  0.23002229375E+02 -0.19722482884E+02 -0.49058367445E+02  0.46995452315E+03  0.46640374304E+03 0.  0.
         13    1    3    3    0    0 -0.90021928011E+02  0.16190825610E+03 -0.14524208155E+03  0.23540070767E+03  0.00000000000E+00 0.  1.
          1    1    3    3  501    0  0.11302415739E+03 -0.18163073899E+03  0.96183714106E+02  0.23455381548E+03  0.00000000000E+00 0.  1.
         21    1    1    2  502  501 -0.23002229375E+02  0.19722482884E+02 -0.67967072366E+00  0.30307438685E+02  0.00000000000E+00 0. -1.
<scales pt_clust_4="550.00000" pt_clust_5="550.00000" pt_clust_6="30.29982"></scales>
<mgrwt>
<rscale>  0 0.30000000E+03</rscale>
<asrwt>  1 0.30299817E+02</asrwt>
<pdfrwt beam="1">  1        1 0.81913441E+00 0.30000000E+03</pdfrwt>
<pdfrwt beam="2">0</pdfrwt>
<totfact> 0.75619126E-04</totfact>
</mgrwt>
<clustering>
<clus scale="   30.300">  1  6  2 -1</clus>
<clus scale="  466.404">  4  5 -1 -1</clus>
<clus scale="  300.000">  1  4  2 -1</clus>
</clustering>
</event>
<event>
 6    1  0.9462926E-012  0.3000000E+03  0.7818608E-02  0.1093470E+00
          1   -1    0    0  502    0  0.00000000000E+00  0.00000000000E+00  0.23182287531E+03  0.23182287531E+03  0.00000000000E+00 0.  1.
         13   -1    0    0    0    0 -0.00000000000E+00 -0.00000000000E+00 -0.27500000000E+03  0.27500000000E+03  0.00000000000E+00 0.  1.
    9000005    2    1    2  501    0 -0.30157851893E+01 -0.38637682694E+02 -0.43116850343E+02  0.46806762899E+03  0.46446342918E+03 0.  0.
         13    1    3    3    0    0  0.17979875298E+03  0.59687053494E+02  0.10164885708E+03  0.21499447917E+03  0.00000000000E+00 0.  1.
          1    1    3    3  501    0 -0.18281453817E+03 -0.98324736188E+02 -0.14476570743E+03  0.25307314982E+03  0.00000000000E+00 0.  1.
         21    1    1    2  502  501  0.30157851893E+01  0.38637682694E+02 -0.60274345880E-01  0.38755246320E+02  0.00000000000E+00 0. -1.
<scales pt_clust_4="550.00000" pt_clust_5="550.00000" pt_clust_6="38.75520"></scales>
<mgrwt>
<rscale>  0 0.30000000E+03</rscale>
<asrwt>  1 0.38755199E+02</asrwt>
<pdfrwt beam="1">  1        1 0.84299227E+00 0.30000000E+03</pdfrwt>
<pdfrwt beam="2">0</pdfrwt>
<totfact> 0.46132006E-04</totfact>
</mgrwt>
<clustering>
<clus scale="   38.755">  1  6  2 -1</clus>
<clus scale="  464.463">  4  5 -1 -1</clus>
<clus scale="  300.000">  1  4  2 -1</clus>
</clustering>
</event>
<event>
 6    1  0.9462926E-012  0.3000000E+03  0.7818608E-02  0.1093470E+00
          1   -1    0    0  502    0  0.00000000000E+00  0.00000000000E+00  0.22715109479E+03  0.22715109479E+03  0.00000000000E+00 0.  1.
         13   -1    0    0    0    0 -0.00000000000E+00 -0.00000000000E+00 -0.27500000000E+03  0.27500000000E+03  0.00000000000E+00 0.  1.
    9000005    2    1    2  501    0 -0.40754956256E+01 -0.31182587327E+02 -0.60152785783E+02  0.46838204248E+03  0.46343760816E+03 0.  0.
         13    1    3    3    0    0  0.13237882138E+03 -0.68863878506E+02  0.15221528179E+03  0.21315693309E+03  0.00000000000E+00 0.  1.
          1    1    3    3  501    0 -0.13645431701E+03  0.37681291180E+02 -0.21236806758E+03  0.25522510939E+03  0.00000000000E+00 0.  1.
         21    1    1    2  502  501  0.40754956256E+01  0.31182587327E+02  0.12303880573E+02  0.33769052313E+02  0.00000000000E+00 0.  1.
<scales pt_clust_4="550.00000" pt_clust_5="550.00000" pt_clust_6="31.44779"></scales>
<mgrwt>
<rscale>  0 0.30000000E+03</rscale>
<asrwt>  1 0.31447789E+02</asrwt>
<pdfrwt beam="1">  1        1 0.82600398E+00 0.30000000E+03</pdfrwt>
<pdfrwt beam="2">0</pdfrwt>
<totfact> 0.65293024E-04</totfact>
</mgrwt>
<clustering>
<clus scale="   31.448">  1  6  2 -1</clus>
<clus scale="  463.438">  4  5 -1 -1</clus>
<clus scale="  300.000">  1  4  2 -1</clus>
</clustering>
</event>
<event>
 6    1  0.9462926E-012  0.3000000E+03  0.7818608E-02  0.1093470E+00
          1   -1    0    0  502    0  0.00000000000E+00  0.00000000000E+00  0.23565851972E+03  0.23565851972E+03  0.00000000000E+00 0.  1.
         13   -1    0    0    0    0 -0.00000000000E+00 -0.00000000000E+00 -0.27500000000E+03  0.27500000000E+03  0.00000000000E+00 0.  1.
    9000005    2    1    2  501    0 -0.26870803816E+02  0.14499423699E+02 -0.58093047520E+02  0.47482704390E+03  0.47026975882E+03 0.  0.
         13    1    3    3    0    0 -0.21802988158E+03 -0.10822639927E+03 -0.42815232502E+02  0.24715000890E+03  0.00000000000E+00 0.  1.
          3    1    3    3  501    0  0.19115907777E+03  0.12272582297E+03 -0.15277815018E+02  0.22767703501E+03  0.00000000000E+00 0.  1.
         21    1    1    2  502  501  0.26870803816E+02 -0.14499423699E+02  0.18751567239E+02  0.35831475817E+02  0.00000000000E+00 0. -1.
<scales pt_clust_4="550.00000" pt_clust_5="550.00000" pt_clust_6="30.53315"></scales>
<mgrwt>
<rscale>  0 0.30000000E+03</rscale>
<asrwt>  1 0.30533152E+02</asrwt>
<pdfrwt beam="1">  1        1 0.85694007E+00 0.30000000E+03</pdfrwt>
<pdfrwt beam="2">0</pdfrwt>
<totfact> 0.35739345E-04</totfact>
</mgrwt>
<clustering>
<clus scale="   30.533">  1  6  2 -1</clus>
<clus scale="  470.270">  4  5 -1 -1</clus>
<clus scale="  300.000">  1  4  2 -1</clus>
</clustering>
</event>
<event>
 6    1  0.9462926E-012  0.3000000E+03  0.7818608E-02  0.1093470E+00
          1   -1    0    0  502    0  0.00000000000E+00  0.00000000000E+00  0.22288185010E+03  0.22288185010E+03  0.00000000000E+00 0.  1.
         13   -1    0    0    0    0 -0.00000000000E+00 -0.00000000000E+00 -0.27500000000E+03  0.27500000000E+03  0.00000000000E+00 0.  1.
    9000005    2    1    2  501    0 -0.11530044169E+02 -0.30203610765E+02 -0.58528646974E+02  0.46492286810E+03  0.46008963338E+03 0.  0.
         13    1    3    3    0    0  0.19917594719E+03 -0.85283319753E+02  0.48848633611E+02  0.22210468607E+03  0.00000000000E+00 0.  1.
          1    1    3    3  501    0 -0.21070599136E+03  0.55079708988E+02 -0.10737728059E+03  0.24281818203E+03  0.00000000000E+00 0.  1.
         21    1    1    2  502  501  0.11530044169E+02  0.30203610765E+02  0.64104970698E+01  0.32958981999E+02  0.00000000000E+00 0.  1.
<scales pt_clust_4="550.00000" pt_clust_5="550.00000" pt_clust_6="32.32955"></scales>
<mgrwt>
<rscale>  0 0.30000000E+03</rscale>
<asrwt>  1 0.32329553E+02</asrwt>
<pdfrwt beam="1">  1        1 0.81047945E+00 0.30000000E+03</pdfrwt>
<pdfrwt beam="2">0</pdfrwt>
<totfact> 0.87768638E-04</totfact>
</mgrwt>
<clustering>
<clus scale="   32.330">  1  6  2 -1</clus>
<clus scale="  460.090">  4  5 -1 -1</clus>
<clus scale="  300.000">  1  4  2 -1</clus>
</clustering>
</event>
<event>
 6    1  0.9462926E-012  0.3000000E+03  0.7818608E-02  0.1093470E+00
          1   -1    0    0  502    0  0.00000000000E+00  0.00000000000E+00  0.24675912363E+03  0.24675912363E+03  0.00000000000E+00 0.  1.
         13   -1    0    0    0    0 -0.00000000000E+00 -0.00000000000E+00 -0.27500000000E+03  0.27500000000E+03  0.00000000000E+00 0.  1.
    9000005    2    1    2  501    0  0.22273303380E+01  0.32206139018E+02 -0.51288700643E+02  0.48209303491E+03  0.47826871851E+03 0.  0.
         13    1    3    3    0    0 -0.14380099900E+03  0.26441898792E+01  0.16536082825E+03  0.21915730098E+03  0.00000000000E+00 0.  1.
          3    1    3    3  501    0  0.14602832934E+03  0.29561949139E+02 -0.21664952889E+03  0.26293573393E+03  0.00000000000E+00 0.  1.
         21    1    1    2  502  501 -0.22273303380E+01 -0.32206139018E+02  0.23047824273E+02  0.39666088724E+02  0.00000000000E+00 0.  1.
<scales pt_clust_4="550.00000" pt_clust_5="550.00000" pt_clust_6="32.28307"></scales>
<mgrwt>
<rscale>  0 0.30000000E+03</rscale>
<asrwt>  1 0.32283067E+02</asrwt>
<pdfrwt beam="1">  1        1 0.89730590E+00 0.30000000E+03</pdfrwt>
<pdfrwt beam="2">0</pdfrwt>
<totfact> 0.12064981E-04</totfact>
</mgrwt>
<clustering>
<clus scale="   32.283">  1  6  2 -1</clus>
<clus scale="  478.269">  4  5 -1 -1</clus>
<clus scale="  300.000">  1  4  2 -1</clus>
</clustering>
</event>
<event>
 6    1  0.9462926E-012  0.3000000E+03  0.7818608E-02  0.1093470E+00
          1   -1    0    0  502    0  0.00000000000E+00  0.00000000000E+00  0.23927952766E+03  0.23927952766E+03  0.00000000000E+00 0.  1.
         13   -1    0    0    0    0 -0.00000000000E+00 -0.00000000000E+00 -0.27500000000E+03  0.27500000000E+03  0.00000000000E+00 0.  1.
    9000005    2    1    2  501    0  0.97492190419E+01 -0.29008149060E+02 -0.66769356573E+02  0.47068419310E+03  0.46491821073E+03 0.  0.
         13    1    3    3    0    0 -0.12903654870E+03 -0.16689950925E+03 -0.14919407978E+03  0.25838875852E+03  0.00000000000E+00 0.  1.
          1    1    3    3  501    0  0.13878576775E+03  0.13789136019E+03  0.82424723204E+02  0.21229543457E+03  0.00000000000E+00 0.  1.
         21    1    1    2  502  501 -0.97492190419E+01  0.29008149060E+02  0.31048884237E+02  0.43595334569E+02  0.00000000000E+00 0. -1.
<scales pt_clust_4="550.00000" pt_clust_5="550.00000" pt_clust_6="30.60261"></scales>
<mgrwt>
<rscale>  0 0.30000000E+03</rscale>
<asrwt>  1 0.30602614E+02</asrwt>
<pdfrwt beam="1">  1        1 0.87010737E+00 0.30000000E+03</pdfrwt>
<pdfrwt beam="2">0</pdfrwt>
<totfact> 0.25911805E-04</totfact>
</mgrwt>
<clustering>
<clus scale="   30.603">  1  6  2 -1</clus>
<clus scale="  464.918">  4  5 -1 -1</clus>
<clus scale="  300.000">  1  4  2 -1</clus>
</clustering>
</event>
<event>
 6    1  0.9462926E-012  0.3000000E+03  0.7818608E-02  0.1093470E+00
          1   -1    0    0  502    0  0.00000000000E+00  0.00000000000E+00  0.22697440462E+03  0.22697440462E+03  0.00000000000E+00 0.  1.
         13   -1    0    0    0    0 -0.00000000000E+00 -0.00000000000E+00 -0.27500000000E+03  0.27500000000E+03  0.00000000000E+00 0.  1.
    9000005    2    1    2  501    0 -0.32449807176E+02  0.47978449653E+01 -0.53095741853E+02  0.46878230184E+03  0.46460916845E+03 0.  0.
         13    1    3    3    0    0  0.14189285824E+03  0.17267542375E+03 -0.33016503351E+02  0.22592139049E+03  0.00000000000E+00 0.  1.
          1    1    3    3  501    0 -0.17434266542E+03 -0.16787757879E+03 -0.20079238502E+02  0.24286091135E+03  0.00000000000E+00 0.  1.
         21    1    1    2  502  501  0.32449807176E+02 -0.47978449653E+01  0.50701464771E+01  0.33192102787E+02  0.00000000000E+00 0. -1.
<scales pt_clust_4="550.00000" pt_clust_5="550.00000" pt_clust_6="32.80258"></scales>
<mgrwt>
<rscale>  0 0.30000000E+03</rscale>
<asrwt>  1 0.32802581E+02</asrwt>
<pdfrwt beam="1">  1        1 0.82536147E+00 0.30000000E+03</pdfrwt>
<pdfrwt beam="2">0</pdfrwt>
<totfact> 0.65629873E-04</totfact>
</mgrwt>
<clustering>
<clus scale="   32.803">  1  6  2 -1</clus>
<clus scale="  464.609">  4  5 -1 -1</clus>
<clus scale="  300.000">  1  4  2 -1</clus>
</clustering>
</event>
<event>
 6    1  0.9462926E-012  0.3000000E+03  0.7818608E-02  0.1093470E+00
          1   -1    0    0  502    0  0.00000000000E+00  0.00000000000E+00  0.23084257763E+03  0.23084257763E+03  0.00000000000E+00 0.  1.
         13   -1    0    0    0    0 -0.00000000000E+00 -0.00000000000E+00 -0.27500000000E+03  0.27500000000E+03  0.00000000000E+00 0.  1.
    9000005    2    1    2  501    0  0.26726628483E+02  0.29239437443E+02 -0.52213982283E+02  0.46541776434E+03  0.46077992366E+03 0.  0.
         13    1    3    3    0    0  0.40154937078E+02  0.21859170059E+03  0.77645287608E+02  0.23542204915E+03  0.00000000000E+00 0.  1.
          1    1    3    3  501    0 -0.13428308595E+02 -0.18935226314E+03 -0.12985926989E+03  0.22999571519E+03  0.00000000000E+00 0.  1.
         21    1    1    2  502  501 -0.26726628483E+02 -0.29239437443E+02  0.80565599127E+01  0.40424813291E+02  0.00000000000E+00 0.  1.
<scales pt_clust_4="550.00000" pt_clust_5="550.00000" pt_clust_6="39.61385"></scales>
<mgrwt>
<rscale>  0 0.30000000E+03</rscale>
<asrwt>  1 0.39613853E+02</asrwt>
<pdfrwt beam="1">  1        1 0.83942756E+00 0.30000000E+03</pdfrwt>
<pdfrwt beam="2">0</pdfrwt>
<totfact> 0.49068663E-04</totfact>
</mgrwt>
<clustering>
<clus scale="   39.614">  1  6  2 -1</clus>
<clus scale="  460.780">  4  5 -1 -1</clus>
<clus scale="  300.000">  1  4  2 -1</clus>
</clustering>
</event>
<event>
 6    1  0.9462926E-012  0.3000000E+03  0.7818608E-02  0.1093470E+00
          1   -1    0    0  502    0  0.00000000000E+00  0.00000000000E+00  0.23373656428E+03  0.23373656428E+03  0.00000000000E+00 0.  1.
         13   -1    0    0    0    0 -0.00000000000E+00 -0.00000000000E+00 -0.27500000000E+03  0.27500000000E+03  0.00000000000E+00 0.  1.
    9000005    2    1    2  501    0 -0.35603766416E+02 -0.10488372532E+02 -0.61741179715E+02  0.46634585610E+03  0.46074814170E+03 0.  0.
         13    1    3    3    0    0  0.87159917856E+01  0.52174394427E+02  0.19309134092E+03  0.20020589873E+03  0.00000000000E+00 0.  1.
          3    1    3    3  501    0 -0.44319758202E+02 -0.62662766959E+02 -0.25483252064E+03  0.26613995736E+03  0.00000000000E+00 0.  1.
         21    1    1    2  502  501  0.35603766416E+02  0.10488372532E+02  0.20477743997E+02  0.42390708187E+02  0.00000000000E+00 0. -1.
<scales pt_clust_4="550.00000" pt_clust_5="550.00000" pt_clust_6="37.11649"></scales>
<mgrwt>
<rscale>  0 0.30000000E+03</rscale>
<asrwt>  1 0.37116494E+02</asrwt>
<pdfrwt beam="1">  1        1 0.84995114E+00 0.30000000E+03</pdfrwt>
<pdfrwt beam="2">0</pdfrwt>
<totfact> 0.40298992E-04</totfact>
</mgrwt>
<clustering>
<clus scale="   37.116">  1  6  2 -1</clus>
<clus scale="  460.748">  4  5 -1 -1</clus>
<clus scale="  300.000">  1  4  2 -1</clus>
</clustering>
</event>
<event>
 6    1  0.9462926E-012  0.3000000E+03  0.7818608E-02  0.1093470E+00
          1   -1    0    0  502    0  0.00000000000E+00  0.00000000000E+00  0.22406212279E+03  0.22406212279E+03  0.00000000000E+00 0.  1.
         13   -1    0    0    0    0 -0.00000000000E+00 -0.00000000000E+00 -0.27500000000E+03  0.27500000000E+03  0.00000000000E+00 0.  1.
    9000005    2    1    2  501    0  0.32011255572E+02  0.53731940665E+01 -0.65338138571E+02  0.46355213511E+03  0.45777496427E+03 0.  0.
         13    1    3    3    0    0 -0.18765273251E+02  0.20306999364E+03  0.73410490687E+02  0.21674560650E+03  0.00000000000E+00 0.  1.
          1    1    3    3  501    0  0.50776528823E+02 -0.19769679957E+03 -0.13874862926E+03  0.24680652860E+03  0.00000000000E+00 0.  1.
         21    1    1    2  502  501 -0.32011255572E+02 -0.53731940665E+01  0.14400261356E+02  0.35509987678E+02  0.00000000000E+00 0.  1.
<scales pt_clust_4="550.00000" pt_clust_5="550.00000" pt_clust_6="32.45908"></scales>
<mgrwt>
<rscale>  0 0.30000000E+03</rscale>
<asrwt>  1 0.32459077E+02</asrwt>
<pdfrwt beam="1">  1        1 0.81477136E+00 0.30000000E+03</pdfrwt>
<pdfrwt beam="2">0</pdfrwt>
<totfact> 0.81086192E-04</totfact>
</mgrwt>
<clustering>
<clus scale="   32.459">  1  6  2 -1</clus>
<clus scale="  457.775">  4  5 -1 -1</clus>
<clus scale="  300.000">  1  4  2 -1</clus>
</clustering>
</event>
<event>
 6    1  0.9462926E-012  0.3000000E+03  0.7818608E-02  0.1093470E+00
          1   -1    0    0  502    0  0.00000000000E+00  0.00000000000E+00  0.22855563886E+03  0.22855563886E+03  0.00000000000E+00 0.  1.
         13   -1    0    0    0    0 -0.00000000000E+00 -0.00000000000E+00 -0.27500000000E+03  0.27500000000E+03  0.00000000000E+00 0.  1.
    9000005    2    1    2  501    0  0.38389309106E+02 -0.93111520508E+01 -0.46892584487E+02  0.46405073397E+03  0.45998231772E+03 0.  0.
         13    1    3    3    0    0  0.66641341476E+02  0.13969147068E+03  0.14999198033E+03  0.21552811774E+03  0.00000000000E+00 0.  1.
          3    1    3    3  501    0 -0.28252032370E+02 -0.14900262274E+03 -0.19688456481E+03  0.24852261623E+03  0.00000000000E+00 0.  1.
         21    1    1    2  502  501 -0.38389309106E+02  0.93111520508E+01  0.44822334927E+00  0.39504904890E+02  0.00000000000E+00 0.  1.
<scales pt_clust_4="550.00000" pt_clust_5="550.00000" pt_clust_6="39.50236"></scales>
<mgrwt>
<rscale>  0 0.30000000E+03</rscale>
<asrwt>  1 0.39502362E+02</asrwt>
<pdfrwt beam="1">  1        1 0.83111141E+00 0.30000000E+03</pdfrwt>
<pdfrwt beam="2">0</pdfrwt>
<totfact> 0.56608047E-04</totfact>
</mgrwt>
<clustering>
<clus scale="   39.502">  1  6  2 -1</clus>
<clus scale="  459.982">  4  5 -1 -1</clus>
<clus scale="  300.000">  1  4  2 -1</clus>
</clustering>
</event>
<event>
 6    1  0.9462926E-012  0.3000000E+03  0.7818608E-02  0.1093470E+00
          1   -1    0    0  502    0  0.00000000000E+00  0.00000000000E+00  0.22722874349E+03  0.22722874349E+03  0.00000000000E+00 0.  1.
         13   -1    0    0    0    0 -0.00000000000E+00 -0.00000000000E+00 -0.27500000000E+03  0.27500000000E+03  0.00000000000E+00 0.  1.
    9000005    2    1    2  501    0  0.97432229875E+01 -0.32714531319E+02 -0.61951015258E+02  0.46526610679E+03  0.45985807689E+03 0.  0.
         13    1    3    3    0    0  0.67401129934E+01  0.66948702412E+02 -0.24649207346E+03  0.25551105682E+03  0.00000000000E+00 0.  1.
          3    1    3    3  501    0  0.30031099941E+01 -0.99663233731E+02  0.18454105820E+03  0.20975504997E+03  0.00000000000E+00 0.  1.
         21    1    1    2  502  501 -0.97432229875E+01  0.32714531319E+02  0.14179758747E+02  0.36962636699E+02  0.00000000000E+00 0. -1.
<scales pt_clust_4="550.00000" pt_clust_5="550.00000" pt_clust_6="34.13460"></scales>
<mgrwt>
<rscale>  0 0.30000000E+03</rscale>
<asrwt>  1 0.34134601E+02</asrwt>
<pdfrwt beam="1">  1        1 0.82628634E+00 0.30000000E+03</pdfrwt>
<pdfrwt beam="2">0</pdfrwt>
<totfact> 0.63917752E-04</totfact>
</mgrwt>
<clustering>
<clus scale="   34.135">  1  6  2 -1</clus>
<clus scale="  459.858">  4  5 -1 -1</clus>
<clus scale="  300.000">  1  4  2 -1</clus>
</clustering>
</event>
<event>
 6    1  0.9462926E-012  0.3000000E+03  0.7818608E-02  0.1093470E+00
          1   -1    0    0  502    0  0.00000000000E+00  0.00000000000E+00  0.25988951256E+03  0.25988951256E+03  0.00000000000E+00 0.  1.
         13   -1    0    0    0    0 -0.00000000000E+00 -0.00000000000E+00 -0.27500000000E+03  0.27500000000E+03  0.00000000000E+00 0.  1.
    9000005    2    1    2  501    0 -0.15774496743E+02 -0.46141816273E+02 -0.56846129230E+02  0.47070411116E+03  0.46470740892E+03 0.  0.
         13    1    3    3    0    0 -0.86695871412E+02  0.72760413241E+02 -0.22561561306E+03  0.25241366190E+03  0.00000000000E+00 0.  1.
          1    1    3    3  501    0  0.70921374668E+02 -0.11890222951E+03  0.16876948383E+03  0.21829044927E+03  0.00000000000E+00 0.  1.
         21    1    1    2  502  501  0.15774496743E+02  0.46141816273E+02  0.41735641786E+02  0.64185401391E+02  0.00000000000E+00 0. -1.
<scales pt_clust_4="550.00000" pt_clust_5="550.00000" pt_clust_6="48.76374"></scales>
<mgrwt>
<rscale>  0 0.30000000E+03</rscale>
<asrwt>  1 0.48763736E+02</asrwt>
<pdfrwt beam="1">  1        1 0.94505277E+00 0.30000000E+03</pdfrwt>
<pdfrwt beam="2">0</pdfrwt>
<totfact> 0.14605395E-05</totfact>
</mgrwt>
<clustering>
<clus scale="   48.764">  1  6  2 -1</clus>
<clus scale="  464.707">  4  5 -1 -1</clus>
<clus scale="  300.000">  1  4  2 -1</clus>
</clustering>
</event>
<event>
 6    1  0.9462926E-012  0.3000000E+03  0.7818608E-02  0.1093470E+00
          1   -1    0    0  502    0  0.00000000000E+00  0.00000000000E+00  0.23403474970E+03  0.23403474970E+03  0.00000000000E+00 0.  1.
         13   -1    0    0    0    0 -0.00000000000E+00 -0.00000000000E+00 -0.27500000000E+03  0.27500000000E+03  0.00000000000E+00 0.  1.
    9000005    2    1    2  501    0 -0.34323577520E+02  0.16965240394E+01 -0.66737317338E+02  0.46607912601E+03  0.45999445215E+03 0.  0.
         13    1    3    3    0    0  0.38030736325E+02  0.12264645520E+03 -0.22195400248E+03  0.25642166269E+03  0.00000000000E+00 0.  1.
          1    1    3    3  501    0 -0.72354313845E+02 -0.12094993116E+03  0.15521668514E+03  0.20965746332E+03  0.00000000000E+00 0.  1.
         21    1    1    2  502  501  0.34323577520E+02 -0.16965240394E+01  0.25772067040E+02  0.42955623696E+02  0.00000000000E+00 0.  1.
<scales pt_clust_4="550.00000" pt_clust_5="550.00000" pt_clust_6="34.36548"></scales>
<mgrwt>
<rscale>  0 0.30000000E+03</rscale>
<asrwt>  1 0.34365479E+02</asrwt>
<pdfrwt beam="1">  1        1 0.85103545E+00 0.30000000E+03</pdfrwt>
<pdfrwt beam="2">0</pdfrwt>
<totfact> 0.39929915E-04</totfact>
</mgrwt>
<clustering>
<clus scale="   34.365">  1  6  2 -1</clus>
<clus scale="  459.994">  4  5 -1 -1</clus>
<clus scale="  300.000">  1  4  2 -1</clus>
</clustering>
</event>
<event>
 6    1  0.9462926E-012  0.3000000E+03  0.7818608E-02  0.1093470E+00
          1   -1    0    0  502    0  0.00000000000E+00  0.00000000000E+00  0.22597567822E+03  0.22597567822E+03  0.00000000000E+00 0.  1.
         13   -1    0    0    0    0 -0.00000000000E+00 -0.00000000000E+00 -0.27500000000E+03  0.27500000000E+03  0.00000000000E+00 0.  1.
    9000005    2    1    2  501    0 -0.36875869191E+02  0.35691919090E+01 -0.61868972229E+02  0.46176402300E+03  0.45609831655E+03 0.  0.
         13    1    3    3    0    0 -0.68121396233E+02  0.19701483083E+03  0.76313874656E+02  0.22198913410E+03  0.00000000000E+00 0.  1.
          3    1    3    3  501    0  0.31245527043E+02 -0.19344563892E+03 -0.13818284689E+03  0.23977488891E+03  0.00000000000E+00 0.  1.
         21    1    1    2  502  501  0.36875869191E+02 -0.35691919090E+01  0.12844650445E+02  0.39211655213E+02  0.00000000000E+00 0.  1.
<scales pt_clust_4="550.00000" pt_clust_5="550.00000" pt_clust_6="37.04820"></scales>
<mgrwt>
<rscale>  0 0.30000000E+03</rscale>
<asrwt>  1 0.37048196E+02</asrwt>
<pdfrwt beam="1">  1        1 0.82172974E+00 0.30000000E+03</pdfrwt>
<pdfrwt beam="2">0</pdfrwt>
<totfact> 0.69115094E-04</totfact>
</mgrwt>
<clustering>
<clus scale="   37.048">  1  6  2 -1</clus>
<clus scale="  456.098">  4  5 -1 -1</clus>
<clus scale="  300.000">  1  4  2 -1</clus>
</clustering>
</event>
<event>
 6    1  0.9462926E-012  0.3000000E+03  0.7818608E-02  0.1093470E+00
          1   -1    0    0  502    0  0.00000000000E+00  0.00000000000E+00  0.22906919340E+03  0.22906919340E+03  0.00000000000E+00 0.  1.
         13   -1    0    0    0    0 -0.00000000000E+00 -0.00000000000E+00 -0.27500000000E+03  0.27500000000E+03  0.00000000000E+00 0.  1.
    9000005    2    1    2  501    0  0.34935044192E+02  0.14590975280E+02 -0.44465572658E+02  0.46618119025E+03  0.46250876869E+03 0.  0.
         13    1    3    3    0    0 -0.72182992177E+02  0.22045960232E+03 -0.20659762537E+02  0.23289406692E+03  0.00000000000E+00 0.  1.
          1    1    3    3  501    0  0.10711803637E+03 -0.20586862704E+03 -0.23805810122E+02  0.23328712333E+03  0.00000000000E+00 0.  1.
         21    1    1    2  502  501 -0.34935044192E+02 -0.14590975280E+02 -0.14652339436E+01  0.37888003151E+02  0.00000000000E+00 0.  1.
<scales pt_clust_4="550.00000" pt_clust_5="550.00000" pt_clust_6="37.85966"></scales>
<mgrwt>
<rscale>  0 0.30000000E+03</rscale>
<asrwt>  1 0.37859660E+02</asrwt>
<pdfrwt beam="1">  1        1 0.83297889E+00 0.30000000E+03</pdfrwt>
<pdfrwt beam="2">0</pdfrwt>
<totfact> 0.55185306E-04</totfact>
</mgrwt>
<clustering>
<clus scale="   37.860">  1  6  2 -1</clus>
<clus scale="  462.509">  4  5 -1 -1</clus>
<clus scale="  300.000">  1  4  2 -1</clus>
</clustering>
</event>
<event>
 6    1  0.9462926E-012  0.3000000E+03  0.7818608E-02  0.1093470E+00
          1   -1    0    0  502    0  0.00000000000E+00  0.00000000000E+00  0.25193473328E+03  0.25193473328E+03  0.00000000000E+00 0.  1.
         13   -1    0    0    0    0 -0.00000000000E+00 -0.00000000000E+00 -0.27500000000E+03  0.27500000000E+03  0.00000000000E+00 0.  1.
    9000005    2    1    2  501    0 -0.20621133634E+02 -0.30093424889E+02 -0.51904971004E+02  0.48043125043E+03  0.47622391267E+03 0.  0.
         13    1    3    3    0    0  0.16922673257E+03  0.35166746610E+02 -0.17417163386E+03  0.24537755628E+03  0.00000000000E+00 0.  1.
          1    1    3    3  501    0 -0.18984786620E+03 -0.65260171499E+02  0.12226666286E+03  0.23505369415E+03  0.00000000000E+00 0.  1.
         21    1    1    2  502  501  0.20621133634E+02  0.30093424889E+02  0.28839704288E+02  0.46503482851E+02  0.00000000000E+00 0.  1.
<scales pt_clust_4="550.00000" pt_clust_5="550.00000" pt_clust_6="36.48075"></scales>
<mgrwt>
<rscale>  0 0.30000000E+03</rscale>
<asrwt>  1 0.36480753E+02</asrwt>
<pdfrwt beam="1">  1        1 0.91612630E+00 0.30000000E+03</pdfrwt>
<pdfrwt beam="2">0</pdfrwt>
<totfact> 0.50609544E-05</totfact>
</mgrwt>
<clustering>
<clus scale="   36.481">  1  6  2 -1</clus>
<clus scale="  476.224">  4  5 -1 -1</clus>
<clus scale="  300.000">  1  4  2 -1</clus>
</clustering>
</event>
<event>
 6    1  0.9462926E-012  0.3000000E+03  0.7818608E-02  0.1093470E+00
          1   -1    0    0  502    0  0.00000000000E+00  0.00000000000E+00  0.24364142356E+03  0.24364142356E+03  0.00000000000E+00 0.  1.
         13   -1    0    0    0    0 -0.00000000000E+00 -0.00000000000E+00 -0.27500000000E+03  0.27500000000E+03  0.00000000000E+00 0.  1.
    9000005    2    1    2  501    0  0.12076909333E+02 -0.30898948841E+02 -0.65281446557E+02  0.47119294734E+03  0.46546807579E+03 0.  0.
         13    1    3    3    0    0 -0.52103717361E+02 -0.73690931639E+02 -0.25280074362E+03  0.26842758194E+03  0.00000000000E+00 0.  1.
          1    1    3    3  501    0  0.64180626694E+02  0.42791982798E+02  0.18751929707E+03  0.20276536540E+03  0.00000000000E+00 0.  1.
         21    1    1    2  502  501 -0.12076909333E+02  0.30898948841E+02  0.33922870119E+02  0.47448476220E+02  0.00000000000E+00 0.  1.
<scales pt_clust_4="550.00000" pt_clust_5="550.00000" pt_clust_6="33.17524"></scales>
<mgrwt>
<rscale>  0 0.30000000E+03</rscale>
<asrwt>  1 0.33175243E+02</asrwt>
<pdfrwt beam="1">  1        1 0.88596881E+00 0.30000000E+03</pdfrwt>
<pdfrwt beam="2">0</pdfrwt>
<totfact> 0.16624553E-04</totfact>
</mgrwt>
<clustering>
<clus scale="   33.175">  1  6  2 -1</clus>
<clus scale="  465.468">  4  5 -1 -1</clus>
<clus scale="  300.000">  1  4  2 -1</clus>
</clustering>
</event>
<event>
 6    1  0.9462926E-012  0.3000000E+03  0.7818608E-02  0.1093470E+00
          1   -1    0    0  502    0  0.00000000000E+00  0.00000000000E+00  0.22614197035E+03  0.22614197035E+03  0.00000000000E+00 0.  1.
         13   -1    0    0    0    0 -0.00000000000E+00 -0.00000000000E+00 -0.27500000000E+03  0.27500000000E+03  0.00000000000E+00 0.  1.
    9000005    2    1    2  501    0  0.16668696063E+02 -0.29396630887E+02 -0.66017562611E+02  0.46324135152E+03  0.45726603182E+03 0.  0.
         13    1    3    3    0    0  0.19493269048E+03 -0.87966620699E+02  0.77011639429E+02  0.22730524143E+03  0.00000000000E+00 0.  1.
          3    1    3    3  501    0 -0.17826399441E+03  0.58569989812E+02 -0.14302920204E+03  0.23593611009E+03  0.00000000000E+00 0.  1.
         21    1    1    2  502  501 -0.16668696063E+02  0.29396630887E+02  0.17159532960E+02  0.37900618825E+02  0.00000000000E+00 0.  1.
<scales pt_clust_4="550.00000" pt_clust_5="550.00000" pt_clust_6="33.79360"></scales>
<mgrwt>
<rscale>  0 0.30000000E+03</rscale>
<asrwt>  1 0.33793599E+02</asrwt>
<pdfrwt beam="1">  1        1 0.82233444E+00 0.30000000E+03</pdfrwt>
<pdfrwt beam="2">0</pdfrwt>
<totfact> 0.69449693E-04</totfact>
</mgrwt>
<clustering>
<clus scale="   33.794">  1  6  2 -1</clus>
<clus scale="  457.266">  4  5 -1 -1</clus>
<clus scale="  300.000">  1  4  2 -1</clus>
</clustering>
</event>
<event>
 6    1  0.9462926E-012  0.3000000E+03  0.7818608E-02  0.1093470E+00
          1   -1    0    0  502    0  0.00000000000E+00  0.00000000000E+00  0.23627475122E+03  0.23627475122E+03  0.00000000000E+00 0.  1.
         13   -1    0    0    0    0 -0.00000000000E+00 -0.00000000000E+00 -0.27500000000E+03  0.27500000000E+03  0.00000000000E+00 0.  1.
    9000005    2    1    2  501    0  0.39651194781E+01  0.39027796341E+02 -0.54426359139E+02  0.46902056887E+03  0.46419734423E+03 0.  0.
         13    1    3    3    0    0  0.95704163163E+02  0.20339310697E+03  0.79034915703E+02  0.23827412933E+03  0.00000000000E+00 0.  1.
          3    1    3    3  501    0 -0.91739043685E+02 -0.16436531063E+03 -0.13346127484E+03  0.23074643953E+03  0.00000000000E+00 0.  1.
         21    1    1    2  502  501 -0.39651194781E+01 -0.39027796341E+02  0.15701110358E+02  0.42254182351E+02  0.00000000000E+00 0.  1.
<scales pt_clust_4="550.00000" pt_clust_5="550.00000" pt_clust_6="39.22870"></scales>
<mgrwt>
<rscale>  0 0.30000000E+03</rscale>
<asrwt>  1 0.39228702E+02</asrwt>
<pdfrwt beam="1">  1        1 0.85918091E+00 0.30000000E+03</pdfrwt>
<pdfrwt beam="2">0</pdfrwt>
<totfact> 0.32311790E-04</totfact>
</mgrwt>
<clustering>
<clus scale="   39.229">  1  6  2 -1</clus>
<clus scale="  464.197">  4  5 -1 -1</clus>
<clus scale="  300.000">  1  4  2 -1</clus>
</clustering>
</event>
<event>
 6    1  0.9462926E-012  0.3000000E+03  0.7818608E-02  0.1093470E+00
          1   -1    0    0  502    0  0.00000000000E+00  0.00000000000E+00  0.25020943217E+03  0.25020943217E+03  0.00000000000E+00 0.  1.
         13   -1    0    0    0    0 -0.00000000000E+00 -0.00000000000E+00 -0.27500000000E+03  0.27500000000E+03  0.00000000000E+00 0.  1.
    9000005    2    1    2  501    0  0.68996799775E+01 -0.44684882882E+02 -0.61909630681E+02  0.46671012304E+03  0.46037071175E+03 0.  0.
         13    1    3    3    0    0  0.23223106636E+02 -0.24994298305E+03  0.22823592808E+01  0.25102991181E+03  0.00000000000E+00 0.  1.
          3    1    3    3  501    0 -0.16323426659E+02  0.20525810017E+03 -0.64191989962E+02  0.21568021123E+03  0.00000000000E+00 0.  1.
         21    1    1    2  502  501 -0.68996799775E+01  0.44684882882E+02  0.37119062851E+02  0.58499309132E+02  0.00000000000E+00 0. -1.
<scales pt_clust_4="550.00000" pt_clust_5="550.00000" pt_clust_6="45.21443"></scales>
<mgrwt>
<rscale>  0 0.30000000E+03</rscale>
<asrwt>  1 0.45214426E+02</asrwt>
<pdfrwt beam="1">  1        1 0.90985248E+00 0.30000000E+03</pdfrwt>
<pdfrwt beam="2">0</pdfrwt>
<totfact> 0.69141316E-05</totfact>
</mgrwt>
<clustering>
<clus scale="   45.214">  1  6  2 -1</clus>
<clus scale="  460.371">  4  5 -1 -1</clus>
<clus scale="  300.000">  1  4  2 -1</clus>
</clustering>
</event>
<event>
 6    1  0.9462926E-012  0.3000000E+03  0.7818608E-02  0.1093470E+00
          1   -1    0    0  502    0  0.00000000000E+00  0.00000000000E+00  0.24793409927E+03  0.24793409927E+03  0.00000000000E+00 0.  1.
         13   -1    0    0    0    0 -0.00000000000E+00 -0.00000000000E+00 -0.27500000000E+03  0.27500000000E+03  0.00000000000E+00 0.  1.
    9000005    2    1    2  501    0 -0.28683777796E+02 -0.19302098934E+02 -0.41323521825E+02  0.48553610613E+03  0.48253740453E+03 0.  0.
         13    1    3    3    0    0  0.19248395229E+03 -0.93192341655E+02  0.72818446522E+02  0.22591460906E+03  0.00000000000E+00 0.  1.
          1    1    3    3  501    0 -0.22116773009E+03  0.73890242721E+02 -0.11414196835E+03  0.25962149707E+03  0.00000000000E+00 0.  1.
         21    1    1    2  502  501  0.28683777796E+02  0.19302098934E+02  0.14257621100E+02  0.37397993146E+02  0.00000000000E+00 0.  1.
<scales pt_clust_4="550.00000" pt_clust_5="550.00000" pt_clust_6="34.57355"></scales>
<mgrwt>
<rscale>  0 0.30000000E+03</rscale>
<asrwt>  1 0.34573547E+02</asrwt>
<pdfrwt beam="1">  1        1 0.90157854E+00 0.30000000E+03</pdfrwt>
<pdfrwt beam="2">0</pdfrwt>
<totfact> 0.10548972E-04</totfact>
</mgrwt>
<clustering>
<clus scale="   34.574">  1  6  2 -1</clus>
<clus scale="  482.537">  4  5 -1 -1</clus>
<clus scale="  300.000">  1  4  2 -1</clus>
</clustering>
</event>
<event>
 6    1  0.9462926E-012  0.3000000E+03  0.7818608E-02  0.1093470E+00
          1   -1    0    0  502    0  0.00000000000E+00  0.00000000000E+00  0.24345485524E+03  0.24345485524E+03  0.00000000000E+00 0.  1.
         13   -1    0    0    0    0 -0.00000000000E+00 -0.00000000000E+00 -0.27500000000E+03  0.27500000000E+03  0.00000000000E+00 0.  1.
    9000005    2    1    2  501    0  0.48466520922E+02  0.35898782737E+01 -0.59911689840E+01  0.46354678157E+03  0.46095317954E+03 0.  0.
         13    1    3    3    0    0 -0.92690088033E+02  0.19403337537E+03 -0.53930224417E+02  0.22169544940E+03  0.00000000000E+00 0.  1.
          3    1    3    3  501    0  0.14115660895E+03 -0.19044349710E+03  0.47939055433E+02  0.24185133217E+03  0.00000000000E+00 0.  1.
         21    1    1    2  502  501 -0.48466520922E+02 -0.35898782737E+01 -0.25553975774E+02  0.54908073670E+02  0.00000000000E+00 0. -1.
<scales pt_clust_4="550.00000" pt_clust_5="550.00000" pt_clust_6="48.59931"></scales>
<mgrwt>
<rscale>  0 0.30000000E+03</rscale>
<asrwt>  1 0.48599313E+02</asrwt>
<pdfrwt beam="1">  1        1 0.88529038E+00 0.30000000E+03</pdfrwt>
<pdfrwt beam="2">0</pdfrwt>
<totfact> 0.15843087E-04</totfact>
</mgrwt>
<clustering>
<clus scale="   48.599">  1  6  2 -1</clus>
<clus scale="  460.953">  4  5 -1 -1</clus>
<clus scale="  300.000">  1  4  2 -1</clus>
</clustering>
</event>
<event>
 6    1  0.9462926E-012  0.3000000E+03  0.7818608E-02  0.1093470E+00
          1   -1    0    0  502    0  0.00000000000E+00  0.00000000000E+00  0.23171027172E+03  0.23171027172E+03  0.00000000000E+00 0.  1.
         13   -1    0    0    0    0 -0.00000000000E+00 -0.00000000000E+00 -0.27500000000E+03  0.27500000000E+03  0.00000000000E+00 0.  1.
    9000005    2    1    2  501    0 -0.23495228410E+02  0.19674018365E+02 -0.63781318691E+02  0.46984568120E+03  0.46448661420E+03 0.  0.
         13    1    3    3    0    0  0.17076192082E+02 -0.17855314054E+03 -0.16489982044E+03  0.24364886848E+03  0.00000000000E+00 0.  1.
          1    1    3    3  501    0 -0.40571420492E+02  0.19822715890E+03  0.10111850175E+03  0.22619681272E+03  0.00000000000E+00 0.  1.
         21    1    1    2  502  501  0.23495228410E+02 -0.19674018365E+02  0.20491590415E+02  0.36864590522E+02  0.00000000000E+00 0. -1.
<scales pt_clust_4="550.00000" pt_clust_5="550.00000" pt_clust_6="30.64462"></scales>
<mgrwt>
<rscale>  0 0.30000000E+03</rscale>
<asrwt>  1 0.30644620E+02</asrwt>
<pdfrwt beam="1">  1        1 0.84258281E+00 0.30000000E+03</pdfrwt>
<pdfrwt beam="2">0</pdfrwt>
<totfact> 0.48592733E-04</totfact>
</mgrwt>
<clustering>
<clus scale="   30.645">  1  6  2 -1</clus>
<clus scale="  464.487">  4  5 -1 -1</clus>
<clus scale="  300.000">  1  4  2 -1</clus>
</clustering>
</event>
<event>
 6    1  0.9462926E-012  0.3000000E+03  0.7818608E-02  0.1093470E+00
          1   -1    0    0  502    0  0.00000000000E+00  0.00000000000E+00  0.25778763308E+03  0.25778763308E+03  0.00000000000E+00 0.  1.
         13   -1    0    0    0    0 -0.00000000000E+00 -0.00000000000E+00 -0.27500000000E+03  0.27500000000E+03  0.00000000000E+00 0.  1.
    9000005    2    1    2  501    0  0.29859170391E+02 -0.94818007854E+01 -0.16041218585E+02  0.50143725523E+03  0.50020048544E+03 0.  0.
         13    1    3    3    0    0  0.24153905158E+03  0.75982817311E+00 -0.11502858085E+03  0.26753180221E+03  0.00000000000E+00 0.  1.
          1    1    3    3  501    0 -0.21167988119E+03 -0.10241628959E+02  0.98987362269E+02  0.23390545302E+03  0.00000000000E+00 0.  1.
         21    1    1    2  502  501 -0.29859170391E+02  0.94818007854E+01 -0.11711483394E+01  0.31350377845E+02  0.00000000000E+00 0.  1.
<scales pt_clust_4="550.00000" pt_clust_5="550.00000" pt_clust_6="31.32851"></scales>
<mgrwt>
<rscale>  0 0.30000000E+03</rscale>
<asrwt>  1 0.31328511E+02</asrwt>
<pdfrwt beam="1">  1        1 0.93740957E+00 0.30000000E+03</pdfrwt>
<pdfrwt beam="2">0</pdfrwt>
<totfact> 0.21445041E-05</totfact>
</mgrwt>
<clustering>
<clus scale="   31.329">  1  6  2 -1</clus>
<clus scale="  500.200">  4  5 -1 -1</clus>
<clus scale="  300.000">  1  4  2 -1</clus>
</clustering>
</event>
<event>
 6    1  0.9462926E-012  0.3000000E+03  0.7818608E-02  0.1093470E+00
          1   -1    0    0  502    0  0.00000000000E+00  0.00000000000E+00  0.23777123360E+03  0.23777123360E+03  0.00000000000E+00 0.  1.
         13   -1    0    0    0    0 -0.00000000000E+00 -0.00000000000E+00 -0.27500000000E+03  0.27500000000E+03  0.00000000000E+00 0.  1.
    9000005    2    1    2  501    0  0.40562086280E+02  0.13632306961E+02 -0.45843901011E+02  0.46912099671E+03  0.46491044692E+03 0.  0.
         13    1    3    3    0    0 -0.10262870314E+03 -0.37869742676E+02 -0.21522104305E+03  0.24142672903E+03  0.00000000000E+00 0.  1.
          1    1    3    3  501    0  0.14319078942E+03  0.51502049637E+02  0.16937714204E+03  0.22769426768E+03  0.00000000000E+00 0.  1.
         21    1    1    2  502  501 -0.40562086280E+02 -0.13632306961E+02  0.86151346090E+01  0.43650236892E+02  0.00000000000E+00 0.  1.
<scales pt_clust_4="550.00000" pt_clust_5="550.00000" pt_clust_6="42.79162"></scales>
<mgrwt>
<rscale>  0 0.30000000E+03</rscale>
<asrwt>  1 0.42791619E+02</asrwt>
<pdfrwt beam="1">  1        1 0.86462267E+00 0.30000000E+03</pdfrwt>
<pdfrwt beam="2">0</pdfrwt>
<totfact> 0.27793959E-04</totfact>
</mgrwt>
<clustering>
<clus scale="   42.792">  1  6  2 -1</clus>
<clus scale="  464.910">  4  5 -1 -1</clus>
<clus scale="  300.000">  1  4  2 -1</clus>
</clustering>
</event>
<event>
 6    1  0.9462926E-012  0.3000000E+03  0.7818608E-02  0.1093470E+00
          1   -1    0    0  502    0  0.00000000000E+00  0.00000000000E+00  0.23354661076E+03  0.23354661076E+03  0.00000000000E+00 0.  1.
         13   -1    0    0    0    0 -0.00000000000E+00 -0.00000000000E+00 -0.27500000000E+03  0.27500000000E+03  0.00000000000E+00 0.  1.
    9000005    2    1    2  501    0 -0.11581849362E+02  0.35915028581E+02 -0.39917395368E+02  0.47077906133E+03  0.46756336215E+03 0.  0.
         13    1    3    3    0    0  0.16500363914E+03 -0.13825627698E+03 -0.55348462532E+02  0.22227112129E+03  0.00000000000E+00 0.  1.
          3    1    3    3  501    0 -0.17658548851E+03  0.17417130556E+03  0.15431067164E+02  0.24850794004E+03  0.00000000000E+00 0.  1.
         21    1    1    2  502  501  0.11581849362E+02 -0.35915028581E+02 -0.15359938732E+01  0.37767549428E+02  0.00000000000E+00 0.  1.
<scales pt_clust_4="550.00000" pt_clust_5="550.00000" pt_clust_6="37.73630"></scales>
<mgrwt>
<rscale>  0 0.30000000E+03</rscale>
<asrwt>  1 0.37736302E+02</asrwt>
<pdfrwt beam="1">  1        1 0.84926040E+00 0.30000000E+03</pdfrwt>
<pdfrwt beam="2">0</pdfrwt>
<totfact> 0.40777131E-04</totfact>
</mgrwt>
<clustering>
<clus scale="   37.736">  1  6  2 -1</clus>
<clus scale="  467.563">  4  5 -1 -1</clus>
<clus scale="  300.000">  1  4  2 -1</clus>
</clustering>
</event>
<event>
 6    1  0.9462926E-012  0.3000000E+03  0.7818608E-02  0.1093470E+00
          1   -1    0    0  502    0  0.00000000000E+00  0.00000000000E+00  0.23655509164E+03  0.23655509164E+03  0.00000000000E+00 0.  1.
         13   -1    0    0    0    0 -0.00000000000E+00 -0.00000000000E+00 -0.27500000000E+03  0.27500000000E+03  0.00000000000E+00 0.  1.
    9000005    2    1    2  501    0  0.61058136716E+01  0.33928334040E+02 -0.57487897944E+02  0.47217174156E+03  0.46738943324E+03 0.  0.
         13    1    3    3    0    0  0.18003582917E+03 -0.11028814913E+03  0.57263799618E+02  0.21875904180E+03  0.00000000000E+00 0.  1.
          1    1    3    3  501    0 -0.17393001549E+03  0.14421648317E+03 -0.11475169756E+03  0.25341269976E+03  0.00000000000E+00 0.  1.
         21    1    1    2  502  501 -0.61058136716E+01 -0.33928334040E+02  0.19042989583E+02  0.39383350081E+02  0.00000000000E+00 0.  1.
<scales pt_clust_4="550.00000" pt_clust_5="550.00000" pt_clust_6="34.47336"></scales>
<mgrwt>
<rscale>  0 0.30000000E+03</rscale>
<asrwt>  1 0.34473364E+02</asrwt>
<pdfrwt beam="1">  1        1 0.86020033E+00 0.30000000E+03</pdfrwt>
<pdfrwt beam="2">0</pdfrwt>
<totfact> 0.32278974E-04</totfact>
</mgrwt>
<clustering>
<clus scale="   34.473">  1  6  2 -1</clus>
<clus scale="  467.389">  4  5 -1 -1</clus>
<clus scale="  300.000">  1  4  2 -1</clus>
</clustering>
</event>
<event>
 6    1  0.9462926E-012  0.3000000E+03  0.7818608E-02  0.1093470E+00
          1   -1    0    0  502    0  0.00000000000E+00  0.00000000000E+00  0.22694695103E+03  0.22694695103E+03  0.00000000000E+00 0.  1.
         13   -1    0    0    0    0 -0.00000000000E+00 -0.00000000000E+00 -0.27500000000E+03  0.27500000000E+03  0.00000000000E+00 0.  1.
    9000005    2    1    2  501    0 -0.35944855209E+02 -0.90469055131E+01 -0.39109645613E+02  0.46381738797E+03  0.46067681284E+03 0.  0.
         13    1    3    3    0    0 -0.73616130157E+02  0.28886759491E+02 -0.24169147761E+03  0.25430011767E+03  0.00000000000E+00 0.  1.
          1    1    3    3  501    0  0.37671274948E+02 -0.37933665004E+02  0.20258183200E+03  0.20951727030E+03  0.00000000000E+00 0.  1.
         21    1    1    2  502  501  0.35944855209E+02  0.90469055131E+01 -0.89434033619E+01  0.38129563059E+02  0.00000000000E+00 0.  1.
<scales pt_clust_4="550.00000" pt_clust_5="550.00000" pt_clust_6="37.06589"></scales>
<mgrwt>
<rscale>  0 0.30000000E+03</rscale>
<asrwt>  1 0.37065894E+02</asrwt>
<pdfrwt beam="1">  1        1 0.82526164E+00 0.30000000E+03</pdfrwt>
<pdfrwt beam="2">0</pdfrwt>
<totfact> 0.64277446E-04</totfact>
</mgrwt>
<clustering>
<clus scale="   37.066">  1  6  2 -1</clus>
<clus scale="  460.677">  4  5 -1 -1</clus>
<clus scale="  300.000">  1  4  2 -1</clus>
</clustering>
</event>
<event>
 6    1  0.9462926E-012  0.3000000E+03  0.7818608E-02  0.1093470E+00
          1   -1    0    0  502    0  0.00000000000E+00  0.00000000000E+00  0.22191695235E+03  0.22191695235E+03  0.00000000000E+00 0.  1.
         13   -1    0    0    0    0 -0.00000000000E+00 -0.00000000000E+00 -0.27500000000E+03  0.27500000000E+03  0.00000000000E+00 0.  1.
    9000005    2    1    2  501    0 -0.33422364128E+02  0.11003933800E+01 -0.41229240567E+02  0.46143769035E+03  0.45837389379E+03 0.  0.
         13    1    3    3    0    0 -0.12804958649E+03  0.41175990918E+01  0.17992119344E+03  0.22087391668E+03  0.00000000000E+00 0.  1.
          1    1    3    3  501    0  0.94627222363E+02 -0.30172057118E+01 -0.22115043400E+03  0.24056377367E+03  0.00000000000E+00 0.  1.
         21    1    1    2  502  501  0.33422364128E+02 -0.11003933800E+01 -0.11853807083E+02  0.35479261997E+02  0.00000000000E+00 0.  1.
<scales pt_clust_4="550.00000" pt_clust_5="550.00000" pt_clust_6="33.44049"></scales>
<mgrwt>
<rscale>  0 0.30000000E+03</rscale>
<asrwt>  1 0.33440491E+02</asrwt>
<pdfrwt beam="1">  1        1 0.80697074E+00 0.30000000E+03</pdfrwt>
<pdfrwt beam="2">0</pdfrwt>
<totfact> 0.92839777E-04</totfact>
</mgrwt>
<clustering>
<clus scale="   33.440">  1  6  2 -1</clus>
<clus scale="  458.374">  4  5 -1 -1</clus>
<clus scale="  300.000">  1  4  2 -1</clus>
</clustering>
</event>
<event>
 6    1  0.9462926E-012  0.3000000E+03  0.7818608E-02  0.1093470E+00
          1   -1    0    0  502    0  0.00000000000E+00  0.00000000000E+00  0.22874668116E+03  0.22874668116E+03  0.00000000000E+00 0.  1.
         13   -1    0    0    0    0 -0.00000000000E+00 -0.00000000000E+00 -0.27500000000E+03  0.27500000000E+03  0.00000000000E+00 0.  1.
    9000005    2    1    2  501    0 -0.31807276994E+02 -0.82799644696E+01 -0.69222929018E+02  0.46364850573E+03  0.45727219714E+03 0.  0.
         13    1    3    3    0    0  0.12658445375E+03 -0.18306184293E+03 -0.31897266894E+02  0.22483927127E+03  0.00000000000E+00 0.  1.
          3    1    3    3  501    0 -0.15839173075E+03  0.17478187846E+03 -0.37325662125E+02  0.23880923446E+03  0.00000000000E+00 0.  1.
         21    1    1    2  502  501  0.31807276994E+02  0.82799644696E+01  0.22969610178E+02  0.40098175434E+02  0.00000000000E+00 0.  1.
<scales pt_clust_4="550.00000" pt_clust_5="550.00000" pt_clust_6="32.86732"></scales>
<mgrwt>
<rscale>  0 0.30000000E+03</rscale>
<asrwt>  1 0.32867319E+02</asrwt>
<pdfrwt beam="1">  1        1 0.83180611E+00 0.30000000E+03</pdfrwt>
<pdfrwt beam="2">0</pdfrwt>
<totfact> 0.57846250E-04</totfact>
</mgrwt>
<clustering>
<clus scale="   32.867">  1  6  2 -1</clus>
<clus scale="  457.272">  4  5 -1 -1</clus>
<clus scale="  300.000">  1  4  2 -1</clus>
</clustering>
</event>
<event>
 6    1  0.9462926E-012  0.3000000E+03  0.7818608E-02  0.1093470E+00
          1   -1    0    0  502    0  0.00000000000E+00  0.00000000000E+00  0.24589224538E+03  0.24589224538E+03  0.00000000000E+00 0.  1.
         13   -1    0    0    0    0 -0.00000000000E+00 -0.00000000000E+00 -0.27500000000E+03  0.27500000000E+03  0.00000000000E+00 0.  1.
    9000005    2    1    2  501    0  0.27106940184E+02  0.13878002235E+02 -0.33070385793E+02  0.49018251406E+03  0.48811664745E+03 0.  0.
         13    1    3    3    0    0 -0.12361467168E+03  0.27322436012E+02  0.18535445721E+03  0.22446241861E+03  0.00000000000E+00 0.  1.
          3    1    3    3  501    0  0.15072161186E+03 -0.13444433777E+02 -0.21842484300E+03  0.26572009544E+03  0.00000000000E+00 0.  1.
         21    1    1    2  502  501 -0.27106940184E+02 -0.13878002235E+02  0.39626311733E+01  0.30709731324E+02  0.00000000000E+00 0.  1.
<scales pt_clust_4="550.00000" pt_clust_5="550.00000" pt_clust_6="30.45300"></scales>
<mgrwt>
<rscale>  0 0.30000000E+03</rscale>
<asrwt>  1 0.30452999E+02</asrwt>
<pdfrwt beam="1">  1        1 0.89415362E+00 0.30000000E+03</pdfrwt>
<pdfrwt beam="2">0</pdfrwt>
<totfact> 0.13234422E-04</totfact>
</mgrwt>
<clustering>
<clus scale="   30.453">  1  6  2 -1</clus>
<clus scale="  488.117">  4  5 -1 -1</clus>
<clus scale="  300.000">  1  4  2 -1</clus>
</clustering>
</event>
<event>
 6    1  0.9462926E-012  0.3000000E+03  0.7818608E-02  0.1093470E+00
          1   -1    0    0  502    0  0.00000000000E+00  0.00000000000E+00  0.22672540114E+03  0.22672540114E+03  0.00000000000E+00 0.  1.
         13   -1    0    0    0    0 -0.00000000000E+00 -0.00000000000E+00 -0.27500000000E+03  0.27500000000E+03  0.00000000000E+00 0.  1.
    9000005    2    1    2  501    0 -0.27849338176E+02 -0.13520491197E+02 -0.67049311126E+02  0.46551933618E+03  0.45962403431E+03 0.  0.
         13    1    3    3    0    0 -0.13844271863E+03  0.14138774934E+03 -0.15927402042E+03  0.25401790406E+03  0.00000000000E+00 0.  1.
          3    1    3    3  501    0  0.11059338045E+03 -0.15490824053E+03  0.92224709289E+02  0.21150143212E+03  0.00000000000E+00 0.  1.
         21    1    1    2  502  501  0.27849338176E+02  0.13520491197E+02  0.18774712263E+02  0.36206064956E+02  0.00000000000E+00 0.  1.
<scales pt_clust_4="550.00000" pt_clust_5="550.00000" pt_clust_6="30.95786"></scales>
<mgrwt>
<rscale>  0 0.30000000E+03</rscale>
<asrwt>  1 0.30957864E+02</asrwt>
<pdfrwt beam="1">  1        1 0.82445600E+00 0.30000000E+03</pdfrwt>
<pdfrwt beam="2">0</pdfrwt>
<totfact> 0.67603634E-04</totfact>
</mgrwt>
<clustering>
<clus scale="   30.958">  1  6  2 -1</clus>
<clus scale="  459.624">  4  5 -1 -1</clus>
<clus scale="  300.000">  1  4  2 -1</clus>
</clustering>
</event>
<event>
 6    1  0.9462926E-012  0.3000000E+03  0.7818608E-02  0.1093470E+00
          1   -1    0    0  502    0  0.00000000000E+00  0.00000000000E+00  0.23772957362E+03  0.23772957362E+03  0.00000000000E+00 0.  1.
         13   -1    0    0    0    0 -0.00000000000E+00 -0.00000000000E+00 -0.27500000000E+03  0.27500000000E+03  0.00000000000E+00 0.  1.
    9000005    2    1    2  501    0  0.17761150053E+02  0.36948082104E+02 -0.37025618823E+02  0.47173348657E+03  0.46848795788E+03 0.  0.
         13    1    3    3    0    0  0.14558969835E+03 -0.77622505642E+02 -0.18300358825E+03  0.24639790373E+03  0.00000000000E+00 0.  1.
          3    1    3    3  501    0 -0.12782854830E+03  0.11457058775E+03  0.14597796943E+03  0.22533558284E+03  0.00000000000E+00 0.  1.
         21    1    1    2  502  501 -0.17761150053E+02 -0.36948082104E+02 -0.24480755955E+00  0.40996087047E+02  0.00000000000E+00 0.  1.
<scales pt_clust_4="550.00000" pt_clust_5="550.00000" pt_clust_6="40.99536"></scales>
<mgrwt>
<rscale>  0 0.30000000E+03</rscale>
<asrwt>  1 0.40995356E+02</asrwt>
<pdfrwt beam="1">  1        1 0.86447118E+00 0.30000000E+03</pdfrwt>
<pdfrwt beam="2">0</pdfrwt>
<totfact> 0.28116042E-04</totfact>
</mgrwt>
<clustering>
<clus scale="   40.995">  1  6  2 -1</clus>
<clus scale="  468.488">  4  5 -1 -1</clus>
<clus scale="  300.000">  1  4  2 -1</clus>
</clustering>
</event>
<event>
 6    1  0.9462926E-012  0.3000000E+03  0.7818608E-02  0.1093470E+00
          1   -1    0    0  502    0  0.00000000000E+00  0.00000000000E+00  0.24251092760E+03  0.24251092760E+03  0.00000000000E+00 0.  1.
         13   -1    0    0    0    0 -0.00000000000E+00 -0.00000000000E+00 -0.27500000000E+03  0.27500000000E+03  0.00000000000E+00 0.  1.
    9000005    2    1    2  501    0  0.17252711781E+02 -0.36124639148E+02 -0.48253474229E+02  0.47448579562E+03  0.47032512887E+03 0.  0.
         13    1    3    3    0    0 -0.90069283831E+02  0.18990556755E+03 -0.74277314902E+02  0.22292088279E+03  0.00000000000E+00 0.  1.
          1    1    3    3  501    0  0.10732199561E+03 -0.22603020670E+03  0.26023840672E+02  0.25156491282E+03  0.00000000000E+00 0.  1.
         21    1    1    2  502  501 -0.17252711781E+02  0.36124639148E+02  0.15764401831E+02  0.43025131987E+02  0.00000000000E+00 0. -1.
<scales pt_clust_4="550.00000" pt_clust_5="550.00000" pt_clust_6="40.03306"></scales>
<mgrwt>
<rscale>  0 0.30000000E+03</rscale>
<asrwt>  1 0.40033057E+02</asrwt>
<pdfrwt beam="1">  1        1 0.88185792E+00 0.30000000E+03</pdfrwt>
<pdfrwt beam="2">0</pdfrwt>
<totfact> 0.18238446E-04</totfact>
</mgrwt>
<clustering>
<clus scale="   40.033">  1  6  2 -1</clus>
<clus scale="  470.325">  4  5 -1 -1</clus>
<clus scale="  300.000">  1  4  2 -1</clus>
</clustering>
</event>
<event>
 6    1  0.9462926E-012  0.3000000E+03  0.7818608E-02  0.1093470E+00
          1   -1    0    0  502    0  0.00000000000E+00  0.00000000000E+00  0.23753662092E+03  0.23753662092E+03  0.00000000000E+00 0.  1.
         13   -1    0    0    0    0 -0.00000000000E+00 -0.00000000000E+00 -0.27500000000E+03  0.27500000000E+03  0.00000000000E+00 0.  1.
    9000005    2    1    2  501    0  0.33784543669E+02 -0.10414453944E+02 -0.37272001311E+02  0.47718279698E+03  0.47440948916E+03 0.  0.
         13    1    3    3    0    0  0.15419717177E+03  0.43315137690E+02  0.16869974077E+03  0.23262108991E+03  0.00000000000E+00 0.  1.
          3    1    3    3  501    0 -0.12041262810E+03 -0.53729591634E+02 -0.20597174209E+03  0.24456170706E+03  0.00000000000E+00 0.  1.
         21    1    1    2  502  501 -0.33784543669E+02  0.10414453944E+02 -0.19137776897E+00  0.35353823942E+02  0.00000000000E+00 0.  1.
<scales pt_clust_4="550.00000" pt_clust_5="550.00000" pt_clust_6="35.35331"></scales>
<mgrwt>
<rscale>  0 0.30000000E+03</rscale>
<asrwt>  1 0.35353306E+02</asrwt>
<pdfrwt beam="1">  1        1 0.86376953E+00 0.30000000E+03</pdfrwt>
<pdfrwt beam="2">0</pdfrwt>
<totfact> 0.29402100E-04</totfact>
</mgrwt>
<clustering>
<clus scale="   35.353">  1  6  2 -1</clus>
<clus scale="  474.409">  4  5 -1 -1</clus>
<clus scale="  300.000">  1  4  2 -1</clus>
</clustering>
</event>
<event>
 6    1  0.9462926E-012  0.3000000E+03  0.7818608E-02  0.1093470E+00
          1   -1    0    0  502    0  0.00000000000E+00  0.00000000000E+00  0.25605525678E+03  0.25605525678E+03  0.00000000000E+00 0.  1.
         13   -1    0    0    0    0 -0.00000000000E+00 -0.00000000000E+00 -0.27500000000E+03  0.27500000000E+03  0.00000000000E+00 0.  1.
    9000005    2    1    2  501    0 -0.25471841900E+02  0.27148584701E+02 -0.49941632930E+02  0.48261284197E+03  0.47857614666E+03 0.  0.
         13    1    3    3    0    0 -0.93033948652E+02  0.96794397192E+02  0.18490829753E+03  0.22850721963E+03  0.00000000000E+00 0.  1.
          1    1    3    3  501    0  0.67562106752E+02 -0.69645812491E+02 -0.23484993046E+03  0.25410562234E+03  0.00000000000E+00 0.  1.
         21    1    1    2  502  501  0.25471841900E+02 -0.27148584701E+02  0.30996889709E+02  0.48442414811E+02  0.00000000000E+00 0. -1.
<scales pt_clust_4="550.00000" pt_clust_5="550.00000" pt_clust_6="37.22715"></scales>
<mgrwt>
<rscale>  0 0.30000000E+03</rscale>
<asrwt>  1 0.37227146E+02</asrwt>
<pdfrwt beam="1">  1        1 0.93111002E+00 0.30000000E+03</pdfrwt>
<pdfrwt beam="2">0</pdfrwt>
<totfact> 0.25002406E-05</totfact>
</mgrwt>
<clustering>
<clus scale="   37.227">  1  6  2 -1</clus>
<clus scale="  478.576">  4  5 -1 -1</clus>
<clus scale="  300.000">  1  4  2 -1</clus>
</clustering>
</event>
<event>
 6    1  0.9462926E-012  0.3000000E+03  0.7818608E-02  0.1093470E+00
          1   -1    0    0  502    0  0.00000000000E+00  0.00000000000E+00  0.23554789862E+03  0.23554789862E+03  0.00000000000E+00 0.  1.
         13   -1    0    0    0    0 -0.00000000000E+00 -0.00000000000E+00 -0.27500000000E+03  0.27500000000E+03  0.00000000000E+00 0.  1.
    9000005    2    1    2  501    0 -0.33457948751E+02  0.46744785981E+00 -0.37716509776E+02  0.47704170336E+03  0.47436968579E+03 0.  0.
         13    1    3    3    0    0  0.21080993635E+03  0.56675596969E+02  0.21920050235E+02  0.21939334803E+03  0.00000000000E+00 0.  1.
          3    1    3    3  501    0 -0.24426788510E+03 -0.56208149109E+02 -0.59636560012E+02  0.25764835534E+03  0.00000000000E+00 0.  1.
         21    1    1    2  502  501  0.33457948751E+02 -0.46744785981E+00 -0.17355916063E+01  0.33506195254E+02  0.00000000000E+00 0. -1.
<scales pt_clust_4="550.00000" pt_clust_5="550.00000" pt_clust_6="33.46121"></scales>
<mgrwt>
<rscale>  0 0.30000000E+03</rscale>
<asrwt>  1 0.33461214E+02</asrwt>
<pdfrwt beam="1">  1        1 0.85653781E+00 0.30000000E+03</pdfrwt>
<pdfrwt beam="2">0</pdfrwt>
<totfact> 0.35456604E-04</totfact>
</mgrwt>
<clustering>
<clus scale="   33.461">  1  6  2 -1</clus>
<clus scale="  474.370">  4  5 -1 -1</clus>
<clus scale="  300.000">  1  4  2 -1</clus>
</clustering>
</event>
<event>
 6    1  0.9462926E-012  0.3000000E+03  0.7818608E-02  0.1093470E+00
          1   -1    0    0  502    0  0.00000000000E+00  0.00000000000E+00  0.26501001191E+03  0.26501001191E+03  0.00000000000E+00 0.  1.
         13   -1    0    0    0    0 -0.00000000000E+00 -0.00000000000E+00 -0.27500000000E+03  0.27500000000E+03  0.00000000000E+00 0.  1.
    9000005    2    1    2  501    0  0.82611781108E+01 -0.31427755455E+02  0.17935040124E+02  0.49716426443E+03  0.49577685432E+03 0.  0.
         13    1    3    3    0    0  0.24940167324E+03 -0.32993383034E+02  0.41095635609E+02  0.25490902142E+03  0.00000000000E+00 0.  1.
          3    1    3    3  501    0 -0.24114049513E+03  0.15656275788E+01 -0.23160595485E+02  0.24225524300E+03  0.00000000000E+00 0.  1.
         21    1    1    2  502  501 -0.82611781108E+01  0.31427755455E+02 -0.27925028214E+02  0.42845747484E+02  0.00000000000E+00 0. -1.
<scales pt_clust_4="550.00000" pt_clust_5="550.00000" pt_clust_6="32.49541"></scales>
<mgrwt>
<rscale>  0 0.30000000E+03</rscale>
<asrwt>  1 0.32495414E+02</asrwt>
<pdfrwt beam="1">  1        1 0.96367277E+00 0.30000000E+03</pdfrwt>
<pdfrwt beam="2">0</pdfrwt>
<totfact> 0.64164406E-06</totfact>
</mgrwt>
<clustering>
<clus scale="   32.495">  1  6  2 -1</clus>
<clus scale="  495.777">  4  5 -1 -1</clus>
<clus scale="  300.000">  1  4  2 -1</clus>
</clustering>
</event>
<event>
 6    1  0.9462926E-012  0.3000000E+03  0.7818608E-02  0.1093470E+00
          1   -1    0    0  502    0  0.00000000000E+00  0.00000000000E+00  0.23885014690E+03  0.23885014690E+03  0.00000000000E+00 0.  1.
         13   -1    0    0    0    0 -0.00000000000E+00 -0.00000000000E+00 -0.27500000000E+03  0.27500000000E+03  0.00000000000E+00 0.  1.
    9000005    2    1    2  501    0  0.23607056090E+01  0.31616899248E+02 -0.41800976762E+02  0.48164554401E+03  0.47877960186E+03 0.  0.
         13    1    3    3    0    0  0.19960474735E+03  0.45875696449E+02 -0.15218966919E+03  0.25516334003E+03  0.00000000000E+00 0.  1.
          3    1    3    3  501    0 -0.19724404174E+03 -0.14258797201E+02  0.11038869242E+03  0.22648220397E+03  0.00000000000E+00 0.  1.
         21    1    1    2  502  501 -0.23607056090E+01 -0.31616899248E+02  0.56511236651E+01  0.32204602896E+02  0.00000000000E+00 0.  1.
<scales pt_clust_4="550.00000" pt_clust_5="550.00000" pt_clust_6="31.70491"></scales>
<mgrwt>
<rscale>  0 0.30000000E+03</rscale>
<asrwt>  1 0.31704909E+02</asrwt>
<pdfrwt beam="1">  1        1 0.86854599E+00 0.30000000E+03</pdfrwt>
<pdfrwt beam="2">0</pdfrwt>
<totfact> 0.26705038E-04</totfact>
</mgrwt>
<clustering>
<clus scale="   31.705">  1  6  2 -1</clus>
<clus scale="  478.780">  4  5 -1 -1</clus>
<clus scale="  300.000">  1  4  2 -1</clus>
</clustering>
</event>
<event>
 6    1  0.9462926E-012  0.3000000E+03  0.7818608E-02  0.1093470E+00
          1   -1    0    0  502    0  0.00000000000E+00  0.00000000000E+00  0.24113291326E+03  0.24113291326E+03  0.00000000000E+00 0.  1.
         13   -1    0    0    0    0 -0.00000000000E+00 -0.00000000000E+00 -0.27500000000E+03  0.27500000000E+03  0.00000000000E+00 0.  1.
    9000005    2    1    2  501    0  0.77341587047E+01  0.40741955931E+02 -0.45187836961E+02  0.47314589697E+03  0.46915389269E+03 0.  0.
         13    1    3    3    0    0 -0.87299577789E+02 -0.18673599202E+03  0.44362286339E+02  0.21085435601E+03  0.00000000000E+00 0.  1.
          3    1    3    3  501    0  0.95033736494E+02  0.22747794795E+03 -0.89550123301E+02  0.26229154096E+03  0.00000000000E+00 0.  1.
         21    1    1    2  502  501 -0.77341587047E+01 -0.40741955931E+02  0.11320750224E+02  0.42987016291E+02  0.00000000000E+00 0. -1.
<scales pt_clust_4="550.00000" pt_clust_5="550.00000" pt_clust_6="41.46956"></scales>
<mgrwt>
<rscale>  0 0.30000000E+03</rscale>
<asrwt>  1 0.41469557E+02</asrwt>
<pdfrwt beam="1">  1        1 0.87684696E+00 0.30000000E+03</pdfrwt>
<pdfrwt beam="2">0</pdfrwt>
<totfact> 0.20822303E-04</totfact>
</mgrwt>
<clustering>
<clus scale="   41.470">  1  6  2 -1</clus>
<clus scale="  469.154">  4  5 -1 -1</clus>
<clus scale="  300.000">  1  4  2 -1</clus>
</clustering>
</event>
<event>
 6    1  0.9462926E-012  0.3000000E+03  0.7818608E-02  0.1093470E+00
          1   -1    0    0  502    0  0.00000000000E+00  0.00000000000E+00  0.24374673584E+03  0.24374673584E+03  0.00000000000E+00 0.  1.
         13   -1    0    0    0    0 -0.00000000000E+00 -0.00000000000E+00 -0.27500000000E+03  0.27500000000E+03  0.00000000000E+00 0.  1.
    9000005    2    1    2  501    0  0.31238219960E+02 -0.19014585987E+02 -0.19315698182E+02  0.48027744486E+03  0.47849341373E+03 0.  0.
         13    1    3    3    0    0 -0.71495003101E+02 -0.13931940289E+03 -0.19088880345E+03  0.24690072250E+03  0.00000000000E+00 0.  1.
          3    1    3    3  501    0  0.10273322306E+03  0.12030481690E+03  0.17157310527E+03  0.23337672236E+03  0.00000000000E+00 0.  1.
         21    1    1    2  502  501 -0.31238219960E+02  0.19014585987E+02 -0.11937565981E+02  0.38469290974E+02  0.00000000000E+00 0. -1.
<scales pt_clust_4="550.00000" pt_clust_5="550.00000" pt_clust_6="36.57024"></scales>
<mgrwt>
<rscale>  0 0.30000000E+03</rscale>
<asrwt>  1 0.36570237E+02</asrwt>
<pdfrwt beam="1">  1        1 0.88635177E+00 0.30000000E+03</pdfrwt>
<pdfrwt beam="2">0</pdfrwt>
<totfact> 0.16126595E-04</totfact>
</mgrwt>
<clustering>
<clus scale="   36.570">  1  6  2 -1</clus>
<clus scale="  478.493">  4  5 -1 -1</clus>
<clus scale="  300.000">  1  4  2 -1</clus>
</clustering>
</event>
<event>
 6    1  0.9462926E-012  0.3000000E+03  0.7818608E-02  0.1093470E+00
          1   -1    0    0  502    0  0.00000000000E+00  0.00000000000E+00  0.22859889637E+03  0.22859889637E+03  0.00000000000E+00 0.  1.
         13   -1    0    0    0    0 -0.00000000000E+00 -0.00000000000E+00 -0.27500000000E+03  0.27500000000E+03  0.00000000000E+00 0.  1.
    9000005    2    1    2  501    0  0.35931204904E+02  0.77937616696E+01 -0.46850788213E+02  0.46682939238E+03  0.46301500087E+03 0.  0.
         13    1    3    3    0    0  0.57324349378E+02 -0.19399879101E+03  0.90686085625E+02  0.22168801968E+03  0.00000000000E+00 0.  1.
          1    1    3    3  501    0 -0.21393144474E+02  0.20179255268E+03 -0.13753687384E+03  0.24514137270E+03  0.00000000000E+00 0.  1.
         21    1    1    2  502  501 -0.35931204904E+02 -0.77937616696E+01  0.44968457860E+00  0.36769503981E+02  0.00000000000E+00 0.  1.
<scales pt_clust_4="550.00000" pt_clust_5="550.00000" pt_clust_6="36.76675"></scales>
<mgrwt>
<rscale>  0 0.30000000E+03</rscale>
<asrwt>  1 0.36766754E+02</asrwt>
<pdfrwt beam="1">  1        1 0.83126871E+00 0.30000000E+03</pdfrwt>
<pdfrwt beam="2">0</pdfrwt>
<totfact> 0.57196608E-04</totfact>
</mgrwt>
<clustering>
<clus scale="   36.767">  1  6  2 -1</clus>
<clus scale="  463.015">  4  5 -1 -1</clus>
<clus scale="  300.000">  1  4  2 -1</clus>
</clustering>
</event>
<event>
 6    1  0.9462926E-012  0.3000000E+03  0.7818608E-02  0.1093470E+00
          1   -1    0    0  502    0  0.00000000000E+00  0.00000000000E+00  0.22976656454E+03  0.22976656454E+03  0.00000000000E+00 0.  1.
         13   -1    0    0    0    0 -0.00000000000E+00 -0.00000000000E+00 -0.27500000000E+03  0.27500000000E+03  0.00000000000E+00 0.  1.
    9000005    2    1    2  501    0 -0.29811801601E+02 -0.16924595324E+02 -0.43803276688E+02  0.47045576747E+03  0.46715598750E+03 0.  0.
         13    1    3    3    0    0 -0.13716429001E+03  0.17098773404E+03  0.64439430951E+02  0.22848038845E+03  0.00000000000E+00 0.  1.
          3    1    3    3  501    0  0.10735248840E+03 -0.18791232937E+03 -0.10824270764E+03  0.24197537902E+03  0.00000000000E+00 0.  1.
         21    1    1    2  502  501  0.29811801601E+02  0.16924595324E+02 -0.14301587711E+01  0.34310797072E+02  0.00000000000E+00 0. -1.
<scales pt_clust_4="550.00000" pt_clust_5="550.00000" pt_clust_6="34.28098"></scales>
<mgrwt>
<rscale>  0 0.30000000E+03</rscale>
<asrwt>  1 0.34280978E+02</asrwt>
<pdfrwt beam="1">  1        1 0.83551478E+00 0.30000000E+03</pdfrwt>
<pdfrwt beam="2">0</pdfrwt>
<totfact> 0.53843004E-04</totfact>
</mgrwt>
<clustering>
<clus scale="   34.281">  1  6  2 -1</clus>
<clus scale="  467.156">  4  5 -1 -1</clus>
<clus scale="  300.000">  1  4  2 -1</clus>
</clustering>
</event>
<event>
 6    1  0.9462926E-012  0.3000000E+03  0.7818608E-02  0.1093470E+00
          1   -1    0    0  502    0  0.00000000000E+00  0.00000000000E+00  0.22006793617E+03  0.22006793617E+03  0.00000000000E+00 0.  1.
         13   -1    0    0    0    0 -0.00000000000E+00 -0.00000000000E+00 -0.27500000000E+03  0.27500000000E+03  0.00000000000E+00 0.  1.
    9000005    2    1    2  501    0 -0.18075918254E+02 -0.24181860158E+02 -0.41395340549E+02  0.46198101944E+03  0.45913112171E+03 0.  0.
         13    1    3    3    0    0 -0.22379268047E+03 -0.66888658370E+02  0.39407263853E+02  0.23687589345E+03  0.00000000000E+00 0.  1.
          1    1    3    3  501    0  0.20571676222E+03  0.42706798212E+02 -0.80802604402E+02  0.22510512599E+03  0.00000000000E+00 0.  1.
         21    1    1    2  502  501  0.18075918254E+02  0.24181860158E+02 -0.13536723282E+02  0.33086916729E+02  0.00000000000E+00 0. -1.
<scales pt_clust_4="550.00000" pt_clust_5="550.00000" pt_clust_6="30.19109"></scales>
<mgrwt>
<rscale>  0 0.30000000E+03</rscale>
<asrwt>  1 0.30191093E+02</asrwt>
<pdfrwt beam="1">  1        1 0.80024704E+00 0.30000000E+03</pdfrwt>
<pdfrwt beam="2">0</pdfrwt>
<totfact> 0.10621286E-03</totfact>
</mgrwt>
<clustering>
<clus scale="   30.191">  1  6  2 -1</clus>
<clus scale="  459.131">  4  5 -1 -1</clus>
<clus scale="  300.000">  1  4  2 -1</clus>
</clustering>
</event>
<event>
 6    1  0.9462926E-012  0.3000000E+03  0.7818608E-02  0.1093470E+00
          1   -1    0    0  502    0  0.00000000000E+00  0.00000000000E+00  0.24521424424E+03  0.24521424424E+03  0.00000000000E+00 0.  1.
         13   -1    0    0    0    0 -0.00000000000E+00 -0.00000000000E+00 -0.27500000000E+03  0.27500000000E+03  0.00000000000E+00 0.  1.
    9000005    2    1    2  501    0 -0.38232072816E+02  0.10555729824E+02 -0.64928615430E+01  0.47421779062E+03  0.47251163041E+03 0.  0.
         13    1    3    3    0    0 -0.38592683483E+02  0.15421015510E+03  0.17913324782E+03  0.23949715579E+03  0.00000000000E+00 0.  1.
          1    1    3    3  501    0  0.36061066792E+00 -0.14365442527E+03 -0.18562610937E+03  0.23472063484E+03  0.00000000000E+00 0.  1.
         21    1    1    2  502  501  0.38232072816E+02 -0.10555729824E+02 -0.23292894219E+02  0.45996453613E+02  0.00000000000E+00 0. -1.
<scales pt_clust_4="550.00000" pt_clust_5="550.00000" pt_clust_6="39.66253"></scales>
<mgrwt>
<rscale>  0 0.30000000E+03</rscale>
<asrwt>  1 0.39662531E+02</asrwt>
<pdfrwt beam="1">  1        1 0.89168816E+00 0.30000000E+03</pdfrwt>
<pdfrwt beam="2">0</pdfrwt>
<totfact> 0.13471690E-04</totfact>
</mgrwt>
<clustering>
<clus scale="   39.663">  1  6  2 -1</clus>
<clus scale="  472.512">  4  5 -1 -1</clus>
<clus scale="  300.000">  1  4  2 -1</clus>
</clustering>
</event>
<event>
 6    1  0.9462926E-012  0.3000000E+03  0.7818608E-02  0.1093470E+00
          1   -1    0    0  502    0  0.00000000000E+00  0.00000000000E+00  0.22228343108E+03  0.22228343108E+03  0.00000000000E+00 0.  1.
         13   -1    0    0    0    0 -0.00000000000E+00 -0.00000000000E+00 -0.27500000000E+03  0.27500000000E+03  0.00000000000E+00 0.  1.
    9000005    2    1    2  501    0  0.13440734890E+02 -0.28910752618E+02 -0.51315676280E+02  0.46537030726E+03  0.46143226944E+03 0.  0.
         13    1    3    3    0    0  0.19210573991E+03  0.72330095999E+02  0.81444151175E+02  0.22083796742E+03  0.00000000000E+00 0.  1.
          3    1    3    3  501    0 -0.17866500502E+03 -0.10124084862E+03 -0.13275982745E+03  0.24453233985E+03  0.00000000000E+00 0.  1.
         21    1    1    2  502  501 -0.13440734890E+02  0.28910752618E+02 -0.14008926425E+01  0.31913123814E+02  0.00000000000E+00 0. -1.
<scales pt_clust_4="550.00000" pt_clust_5="550.00000" pt_clust_6="31.88236"></scales>
<mgrwt>
<rscale>  0 0.30000000E+03</rscale>
<asrwt>  1 0.31882361E+02</asrwt>
<pdfrwt beam="1">  1        1 0.80830339E+00 0.30000000E+03</pdfrwt>
<pdfrwt beam="2">0</pdfrwt>
<totfact> 0.91495401E-04</totfact>
</mgrwt>
<clustering>
<clus scale="   31.882">  1  6  2 -1</clus>
<clus scale="  461.432">  4  5 -1 -1</clus>
<clus scale="  300.000">  1  4  2 -1</clus>
</clustering>
</event>
<event>
 6    1  0.9462926E-012  0.3000000E+03  0.7818608E-02  0.1093470E+00
          1   -1    0    0  502    0  0.00000000000E+00  0.00000000000E+00  0.22871167961E+03  0.22871167961E+03  0.00000000000E+00 0.  1.
         13   -1    0    0    0    0 -0.00000000000E+00 -0.00000000000E+00 -0.27500000000E+03  0.27500000000E+03  0.00000000000E+00 0.  1.
    9000005    2    1    2  501    0 -0.37965866186E+02 -0.54335014333E+01 -0.55399148787E+02  0.46429167039E+03  0.45937649001E+03 0.  0.
         13    1    3    3    0    0  0.10500493763E+02 -0.22625104896E+03 -0.71856085912E+02  0.23761964273E+03  0.00000000000E+00 0.  1.
          1    1    3    3  501    0 -0.48466359949E+02  0.22081754753E+03  0.16456937125E+02  0.22667202766E+03  0.00000000000E+00 0.  1.
         21    1    1    2  502  501  0.37965866186E+02  0.54335014333E+01  0.91108283974E+01  0.39420009224E+02  0.00000000000E+00 0.  1.
<scales pt_clust_4="550.00000" pt_clust_5="550.00000" pt_clust_6="38.35270"></scales>
<mgrwt>
<rscale>  0 0.30000000E+03</rscale>
<asrwt>  1 0.38352704E+02</asrwt>
<pdfrwt beam="1">  1        1 0.83167883E+00 0.30000000E+03</pdfrwt>
<pdfrwt beam="2">0</pdfrwt>
<totfact> 0.56332834E-04</totfact>
</mgrwt>
<clustering>
<clus scale="   38.353">  1  6  2 -1</clus>
<clus scale="  459.376">  4  5 -1 -1</clus>
<clus scale="  300.000">  1  4  2 -1</clus>
</clustering>
</event>
<event>
 6    1  0.9462926E-012  0.3000000E+03  0.7818608E-02  0.1093470E+00
          1   -1    0    0  502    0  0.00000000000E+00  0.00000000000E+00  0.24955098000E+03  0.24955098000E+03  0.00000000000E+00 0.  1.
         13   -1    0    0    0    0 -0.00000000000E+00 -0.00000000000E+00 -0.27500000000E+03  0.27500000000E+03  0.00000000000E+00 0.  1.
    9000005    2    1    2  501    0 -0.18143509378E+02  0.36350688605E+02 -0.82063059573E+01  0.48041629204E+03  0.47862502097E+03 0.  0.
         13    1    3    3    0    0 -0.13036496740E+03 -0.18604487841E+03 -0.35078956315E+02  0.22986573186E+03  0.00000000000E+00 0.  1.
          1    1    3    3  501    0  0.11222145802E+03  0.22239556701E+03  0.26872650358E+02  0.25055056018E+03  0.00000000000E+00 0.  1.
         21    1    1    2  502  501  0.18143509378E+02 -0.36350688605E+02 -0.17242714039E+02  0.44134687968E+02  0.00000000000E+00 0. -1.
<scales pt_clust_4="550.00000" pt_clust_5="550.00000" pt_clust_6="40.62710"></scales>
<mgrwt>
<rscale>  0 0.30000000E+03</rscale>
<asrwt>  1 0.40627099E+02</asrwt>
<pdfrwt beam="1">  1        1 0.90745811E+00 0.30000000E+03</pdfrwt>
<pdfrwt beam="2">0</pdfrwt>
<totfact> 0.80100279E-05</totfact>
</mgrwt>
<clustering>
<clus scale="   40.627">  1  6  2 -1</clus>
<clus scale="  478.625">  4  5 -1 -1</clus>
<clus scale="  300.000">  1  4  2 -1</clus>
</clustering>
</event>
<event>
 6    1  0.9462926E-012  0.3000000E+03  0.7818608E-02  0.1093470E+00
          1   -1    0    0  502    0  0.00000000000E+00  0.00000000000E+00  0.23602146649E+03  0.23602146649E+03  0.00000000000E+00 0.  1.
         13   -1    0    0    0    0 -0.00000000000E+00 -0.00000000000E+00 -0.27500000000E+03  0.27500000000E+03  0.00000000000E+00 0.  1.
    9000005    2    1    2  501    0 -0.39573224929E+02 -0.76429244705E+01 -0.51704765804E+02  0.46875550602E+03  0.46414856156E+03 0.  0.
         13    1    3    3    0    0 -0.12318721587E+03 -0.27516054478E+02 -0.23475302435E+03  0.26653556207E+03  0.00000000000E+00 0.  1.
          1    1    3    3  501    0  0.83613990939E+02  0.19873130008E+02  0.18304825854E+03  0.20221994395E+03  0.00000000000E+00 0.  1.
         21    1    1    2  502  501  0.39573224929E+02  0.76429244705E+01  0.12726232293E+02  0.42265960466E+02  0.00000000000E+00 0. -1.
<scales pt_clust_4="550.00000" pt_clust_5="550.00000" pt_clust_6="40.30452"></scales>
<mgrwt>
<rscale>  0 0.30000000E+03</rscale>
<asrwt>  1 0.40304521E+02</asrwt>
<pdfrwt beam="1">  1        1 0.85825988E+00 0.30000000E+03</pdfrwt>
<pdfrwt beam="2">0</pdfrwt>
<totfact> 0.32878388E-04</totfact>
</mgrwt>
<clustering>
<clus scale="   40.305">  1  6  2 -1</clus>
<clus scale="  464.149">  4  5 -1 -1</clus>
<clus scale="  300.000">  1  4  2 -1</clus>
</clustering>
</event>
<event>
 6    1  0.9462926E-012  0.3000000E+03  0.7818608E-02  0.1093470E+00
          1   -1    0    0  502    0  0.00000000000E+00  0.00000000000E+00  0.23619752916E+03  0.23619752916E+03  0.00000000000E+00 0.  1.
         13   -1    0    0    0    0 -0.00000000000E+00 -0.00000000000E+00 -0.27500000000E+03  0.27500000000E+03  0.00000000000E+00 0.  1.
    9000005    2    1    2  501    0  0.35435506170E+02  0.28737468917E+02 -0.56252320329E+02  0.46235068213E+03  0.45664243398E+03 0.  0.
         13    1    3    3    0    0 -0.91064873910E+02  0.21175719903E+03  0.84111687677E+01  0.23066137596E+03  0.00000000000E+00 0.  1.
          3    1    3    3  501    0  0.12650038008E+03 -0.18301973011E+03 -0.64663489096E+02  0.23168930617E+03  0.00000000000E+00 0.  1.
         21    1    1    2  502  501 -0.35435506170E+02 -0.28737468917E+02  0.17449849489E+02  0.48846847027E+02  0.00000000000E+00 0.  1.
<scales pt_clust_4="550.00000" pt_clust_5="550.00000" pt_clust_6="45.62365"></scales>
<mgrwt>
<rscale>  0 0.30000000E+03</rscale>
<asrwt>  1 0.45623648E+02</asrwt>
<pdfrwt beam="1">  1        1 0.85890011E+00 0.30000000E+03</pdfrwt>
<pdfrwt beam="2">0</pdfrwt>
<totfact> 0.31657780E-04</totfact>
</mgrwt>
<clustering>
<clus scale="   45.624">  1  6  2 -1</clus>
<clus scale="  456.642">  4  5 -1 -1</clus>
<clus scale="  300.000">  1  4  2 -1</clus>
</clustering>
</event>
<event>
 6    1  0.9462926E-012  0.3000000E+03  0.7818608E-02  0.1093470E+00
          1   -1    0    0  502    0  0.00000000000E+00  0.00000000000E+00  0.22962147138E+03  0.22962147138E+03  0.00000000000E+00 0.  1.
         13   -1    0    0    0    0 -0.00000000000E+00 -0.00000000000E+00 -0.27500000000E+03  0.27500000000E+03  0.00000000000E+00 0.  1.
    9000005    2    1    2  501    0 -0.26293208581E+02 -0.21886257491E+02 -0.41931935301E+02  0.47023804383E+03  0.46711367950E+03 0.  0.
         13    1    3    3    0    0 -0.14821712162E+03 -0.19188891017E+03 -0.84460025775E+02  0.25675506800E+03  0.00000000000E+00 0.  1.
          3    1    3    3  501    0  0.12192391304E+03  0.17000265268E+03  0.42528090474E+02  0.21348297583E+03  0.00000000000E+00 0.  1.
         21    1    1    2  502  501  0.26293208581E+02  0.21886257491E+02 -0.34465933234E+01  0.34383427549E+02  0.00000000000E+00 0.  1.
<scales pt_clust_4="550.00000" pt_clust_5="550.00000" pt_clust_6="34.21027"></scales>
<mgrwt>
<rscale>  0 0.30000000E+03</rscale>
<asrwt>  1 0.34210265E+02</asrwt>
<pdfrwt beam="1">  1        1 0.83498717E+00 0.30000000E+03</pdfrwt>
<pdfrwt beam="2">0</pdfrwt>
<totfact> 0.54342657E-04</totfact>
</mgrwt>
<clustering>
<clus scale="   34.210">  1  6  2 -1</clus>
<clus scale="  467.114">  4  5 -1 -1</clus>
<clus scale="  300.000">  1  4  2 -1</clus>
</clustering>
</event>
<event>
 6    1  0.9462926E-012  0.3000000E+03  0.7818608E-02  0.1093470E+00
          1   -1    0    0  502    0  0.00000000000E+00  0.00000000000E+00  0.22596538437E+03  0.22596538437E+03  0.00000000000E+00 0.  1.
         13   -1    0    0    0    0 -0.00000000000E+00 -0.00000000000E+00 -0.27500000000E+03  0.27500000000E+03  0.00000000000E+00 0.  1.
    9000005    2    1    2  501    0 -0.38973964849E+02 -0.30849013854E+01 -0.43160165409E+02  0.46143064373E+03  0.45774114141E+03 0.  0.
         13    1    3    3    0    0 -0.10706608400E+03 -0.21012042023E+03 -0.58412252801E+02  0.24295211178E+03  0.00000000000E+00 0.  1.
          3    1    3    3  501    0  0.68092119150E+02  0.20703551884E+03  0.15252087392E+02  0.21847853195E+03  0.00000000000E+00 0.  1.
         21    1    1    2  502  501  0.38973964849E+02  0.30849013854E+01 -0.58744502181E+01  0.39534740646E+02  0.00000000000E+00 0.  1.
<scales pt_clust_4="550.00000" pt_clust_5="550.00000" pt_clust_6="39.09588"></scales>
<mgrwt>
<rscale>  0 0.30000000E+03</rscale>
<asrwt>  1 0.39095883E+02</asrwt>
<pdfrwt beam="1">  1        1 0.82169231E+00 0.30000000E+03</pdfrwt>
<pdfrwt beam="2">0</pdfrwt>
<totfact> 0.68485831E-04</totfact>
</mgrwt>
<clustering>
<clus scale="   39.096">  1  6  2 -1</clus>
<clus scale="  457.741">  4  5 -1 -1</clus>
<clus scale="  300.000">  1  4  2 -1</clus>
</clustering>
</event>
<event>
 6    1  0.9462926E-012  0.3000000E+03  0.7818608E-02  0.1093470E+00
          1   -1    0    0  502    0  0.00000000000E+00  0.00000000000E+00  0.24177011749E+03  0.24177011749E+03  0.00000000000E+00 0.  1.
         13   -1    0    0    0    0 -0.00000000000E+00 -0.00000000000E+00 -0.27500000000E+03  0.27500000000E+03  0.00000000000E+00 0.  1.
    9000005    2    1    2  501    0 -0.10283900426E+02 -0.39563418556E+02 -0.62308241835E+02  0.46660465450E+03  0.46061541866E+03 0.  0.
         13    1    3    3    0    0  0.18939947154E+03 -0.60699617105E+02 -0.14837647891E+03  0.24813742730E+03  0.00000000000E+00 0.  1.
          1    1    3    3  501    0 -0.19968337196E+03  0.21136198550E+02  0.86068237075E+02  0.21846722720E+03  0.00000000000E+00 0.  1.
         21    1    1    2  502  501  0.10283900426E+02  0.39563418556E+02  0.29078359327E+02  0.50165462990E+02  0.00000000000E+00 0. -1.
<scales pt_clust_4="550.00000" pt_clust_5="550.00000" pt_clust_6="40.87814"></scales>
<mgrwt>
<rscale>  0 0.30000000E+03</rscale>
<asrwt>  1 0.40878144E+02</asrwt>
<pdfrwt beam="1">  1        1 0.87916406E+00 0.30000000E+03</pdfrwt>
<pdfrwt beam="2">0</pdfrwt>
<totfact> 0.19634732E-04</totfact>
</mgrwt>
<clustering>
<clus scale="   40.878">  1  6  2 -1</clus>
<clus scale="  460.615">  4  5 -1 -1</clus>
<clus scale="  300.000">  1  4  2 -1</clus>
</clustering>
</event>
<event>
 6    1  0.9462926E-012  0.3000000E+03  0.7818608E-02  0.1093470E+00
          1   -1    0    0  502    0  0.00000000000E+00  0.00000000000E+00  0.23257382825E+03  0.23257382825E+03  0.00000000000E+00 0.  1.
         13   -1    0    0    0    0 -0.00000000000E+00 -0.00000000000E+00 -0.27500000000E+03  0.27500000000E+03  0.00000000000E+00 0.  1.
    9000005    2    1    2  501    0  0.26593910496E+02 -0.22964009087E+02 -0.51864700835E+02  0.47119158505E+03  0.46700854472E+03 0.  0.
         13    1    3    3    0    0 -0.98273801531E+02 -0.16946474098E+02 -0.23165634833E+03  0.25220941056E+03  0.00000000000E+00 0.  1.
          3    1    3    3  501    0  0.12486771203E+03 -0.60175349884E+01  0.17979164750E+03  0.21898217449E+03  0.00000000000E+00 0.  1.
         21    1    1    2  502  501 -0.26593910496E+02  0.22964009087E+02  0.94385290816E+01  0.36382243197E+02  0.00000000000E+00 0. -1.
<scales pt_clust_4="550.00000" pt_clust_5="550.00000" pt_clust_6="35.13662"></scales>
<mgrwt>
<rscale>  0 0.30000000E+03</rscale>
<asrwt>  1 0.35136616E+02</asrwt>
<pdfrwt beam="1">  1        1 0.84572301E+00 0.30000000E+03</pdfrwt>
<pdfrwt beam="2">0</pdfrwt>
<totfact> 0.44493612E-04</totfact>
</mgrwt>
<clustering>
<clus scale="   35.137">  1  6  2 -1</clus>
<clus scale="  467.009">  4  5 -1 -1</clus>
<clus scale="  300.000">  1  4  2 -1</clus>
</clustering>
</event>
<event>
 6    1  0.9462926E-012  0.3000000E+03  0.7818608E-02  0.1093470E+00
          1   -1    0    0  502    0  0.00000000000E+00  0.00000000000E+00  0.26190112667E+03  0.26190112667E+03  0.00000000000E+00 0.  1.
         13   -1    0    0    0    0 -0.00000000000E+00 -0.00000000000E+00 -0.27500000000E+03  0.27500000000E+03  0.00000000000E+00 0.  1.
    9000005    2    1    2  501    0  0.32249407343E+02 -0.73612073954E+01 -0.41066322040E+02  0.49358381101E+03  0.49075892660E+03 0.  0.
         13    1    3    3    0    0 -0.39381651308E+02 -0.23899282824E+03 -0.62601274750E+02  0.25017475094E+03  0.00000000000E+00 0.  1.
          3    1    3    3  501    0  0.71631058651E+02  0.23163162084E+03  0.21534952711E+02  0.24340906007E+03  0.00000000000E+00 0.  1.
         21    1    1    2  502  501 -0.32249407343E+02  0.73612073954E+01  0.27967448705E+02  0.43317315653E+02  0.00000000000E+00 0.  1.
<scales pt_clust_4="550.00000" pt_clust_5="550.00000" pt_clust_6="33.07887"></scales>
<mgrwt>
<rscale>  0 0.30000000E+03</rscale>
<asrwt>  1 0.33078870E+02</asrwt>
<pdfrwt beam="1">  1        1 0.95236773E+00 0.30000000E+03</pdfrwt>
<pdfrwt beam="2">0</pdfrwt>
<totfact> 0.11141520E-05</totfact>
</mgrwt>
<clustering>
<clus scale="   33.079">  1  6  2 -1</clus>
<clus scale="  490.759">  4  5 -1 -1</clus>
<clus scale="  300.000">  1  4  2 -1</clus>
</clustering>
</event>
<event>
 6    1  0.9462926E-012  0.3000000E+03  0.7818608E-02  0.1093470E+00
          1   -1    0    0  502    0  0.00000000000E+00  0.00000000000E+00  0.23557977689E+03  0.23557977689E+03  0.00000000000E+00 0.  1.
         13   -1    0    0    0    0 -0.00000000000E+00 -0.00000000000E+00 -0.27500000000E+03  0.27500000000E+03  0.00000000000E+00 0.  1.
    9000005    2    1    2  501    0  0.26253452669E+02  0.35234926318E+02 -0.46049027271E+02  0.46614235061E+03  0.46177638994E+03 0.  0.
         13    1    3    3    0    0 -0.95743003671E+02 -0.79183435433E+02 -0.20220153332E+03  0.23732298514E+03  0.00000000000E+00 0.  1.
          3    1    3    3  501    0  0.12199645634E+03  0.11441836175E+03  0.15615250605E+03  0.22881936547E+03  0.00000000000E+00 0.  1.
         21    1    1    2  502  501 -0.26253452669E+02 -0.35234926318E+02  0.66288041582E+01  0.44437426278E+02  0.00000000000E+00 0. -1.
<scales pt_clust_4="550.00000" pt_clust_5="550.00000" pt_clust_6="43.94023"></scales>
<mgrwt>
<rscale>  0 0.30000000E+03</rscale>
<asrwt>  1 0.43940230E+02</asrwt>
<pdfrwt beam="1">  1        1 0.85665373E+00 0.30000000E+03</pdfrwt>
<pdfrwt beam="2">0</pdfrwt>
<totfact> 0.33631823E-04</totfact>
</mgrwt>
<clustering>
<clus scale="   43.940">  1  6  2 -1</clus>
<clus scale="  461.776">  4  5 -1 -1</clus>
<clus scale="  300.000">  1  4  2 -1</clus>
</clustering>
</event>
<event>
 6    1  0.9462926E-012  0.3000000E+03  0.7818608E-02  0.1093470E+00
          1   -1    0    0  502    0  0.00000000000E+00  0.00000000000E+00  0.24218079579E+03  0.24218079579E+03  0.00000000000E+00 0.  1.
         13   -1    0    0    0    0 -0.00000000000E+00 -0.00000000000E+00 -0.27500000000E+03  0.27500000000E+03  0.00000000000E+00 0.  1.
    9000005    2    1    2  501    0  0.13482934800E+02 -0.29910128102E+02 -0.66706404686E+02  0.47001356511E+03  0.46409762084E+03 0.  0.
         13    1    3    3    0    0 -0.13948525820E+03  0.16243706352E+03  0.44788056578E+01  0.21415414206E+03  0.00000000000E+00 0.  1.
          1    1    3    3  501    0  0.15296819300E+03 -0.19234719162E+03 -0.71185210344E+02  0.25585942305E+03  0.00000000000E+00 0.  1.
         21    1    1    2  502  501 -0.13482934800E+02  0.29910128102E+02  0.33887200472E+02  0.47167230677E+02  0.00000000000E+00 0. -1.
<scales pt_clust_4="550.00000" pt_clust_5="550.00000" pt_clust_6="32.80862"></scales>
<mgrwt>
<rscale>  0 0.30000000E+03</rscale>
<asrwt>  1 0.32808616E+02</asrwt>
<pdfrwt beam="1">  1        1 0.88065744E+00 0.30000000E+03</pdfrwt>
<pdfrwt beam="2">0</pdfrwt>
<totfact> 0.19606300E-04</totfact>
</mgrwt>
<clustering>
<clus scale="   32.809">  1  6  2 -1</clus>
<clus scale="  464.098">  4  5 -1 -1</clus>
<clus scale="  300.000">  1  4  2 -1</clus>
</clustering>
</event>
<event>
 6    1  0.9462926E-012  0.3000000E+03  0.7818608E-02  0.1093470E+00
          1   -1    0    0  502    0  0.00000000000E+00  0.00000000000E+00  0.25787915785E+03  0.25787915785E+03  0.00000000000E+00 0.  1.
         13   -1    0    0    0    0 -0.00000000000E+00 -0.00000000000E+00 -0.27500000000E+03  0.27500000000E+03  0.00000000000E+00 0.  1.
    9000005    2    1    2  501    0  0.27612738248E+02  0.28635324524E+02 -0.40146493629E+02  0.48691584911E+03  0.48362470785E+03 0.  0.
         13    1    3    3    0    0  0.65760296275E+02 -0.15845639403E+03 -0.18119424065E+03  0.24952795078E+03  0.00000000000E+00 0.  1.
          3    1    3    3  501    0 -0.38147558027E+02  0.18709171855E+03  0.14104774702E+03  0.23738789833E+03  0.00000000000E+00 0.  1.
         21    1    1    2  502  501 -0.27612738248E+02 -0.28635324524E+02  0.23025651476E+02  0.45963308737E+02  0.00000000000E+00 0. -1.
<scales pt_clust_4="550.00000" pt_clust_5="550.00000" pt_clust_6="39.77996"></scales>
<mgrwt>
<rscale>  0 0.30000000E+03</rscale>
<asrwt>  1 0.39779959E+02</asrwt>
<pdfrwt beam="1">  1        1 0.93774239E+00 0.30000000E+03</pdfrwt>
<pdfrwt beam="2">0</pdfrwt>
<totfact> 0.20294705E-05</totfact>
</mgrwt>
<clustering>
<clus scale="   39.780">  1  6  2 -1</clus>
<clus scale="  483.625">  4  5 -1 -1</clus>
<clus scale="  300.000">  1  4  2 -1</clus>
</clustering>
</event>
<event>
 6    1  0.9462926E-012  0.3000000E+03  0.7818608E-02  0.1093470E+00
          1   -1    0    0  502    0  0.00000000000E+00  0.00000000000E+00  0.24902451849E+03  0.24902451849E+03  0.00000000000E+00 0.  1.
         13   -1    0    0    0    0 -0.00000000000E+00 -0.00000000000E+00 -0.27500000000E+03  0.27500000000E+03  0.00000000000E+00 0.  1.
    9000005    2    1    2  501    0 -0.32709577329E+02  0.23344520624E+01 -0.43990721768E+02  0.48660908054E+03  0.48350578854E+03 0.  0.
         13    1    3    3    0    0 -0.30677837599E+02  0.20168688176E+03 -0.15701708877E+03  0.25743561168E+03  0.00000000000E+00 0.  1.
          3    1    3    3  501    0 -0.20317397303E+01 -0.19935242970E+03  0.11302636700E+03  0.22917346886E+03  0.00000000000E+00 0.  1.
         21    1    1    2  502  501  0.32709577329E+02 -0.23344520624E+01  0.18015240261E+02  0.37415437952E+02  0.00000000000E+00 0.  1.
<scales pt_clust_4="550.00000" pt_clust_5="550.00000" pt_clust_6="32.79278"></scales>
<mgrwt>
<rscale>  0 0.30000000E+03</rscale>
<asrwt>  1 0.32792775E+02</asrwt>
<pdfrwt beam="1">  1        1 0.90554370E+00 0.30000000E+03</pdfrwt>
<pdfrwt beam="2">0</pdfrwt>
<totfact> 0.91373602E-05</totfact>
</mgrwt>
<clustering>
<clus scale="   32.793">  1  6  2 -1</clus>
<clus scale="  483.506">  4  5 -1 -1</clus>
<clus scale="  300.000">  1  4  2 -1</clus>
</clustering>
</event>
<event>
 6    1  0.9462926E-012  0.3000000E+03  0.7818608E-02  0.1093470E+00
          1   -1    0    0  502    0  0.00000000000E+00  0.00000000000E+00  0.26130233751E+03  0.26130233751E+03  0.00000000000E+00 0.  1.
         13   -1    0    0    0    0 -0.00000000000E+00 -0.00000000000E+00 -0.27500000000E+03  0.27500000000E+03  0.00000000000E+00 0.  1.
    9000005    2    1    2  501    0  0.25036553136E+02 -0.23329882240E+02 -0.25886493628E+02  0.49997493734E+03  0.49813021894E+03 0.  0.
         13    1    3    3    0    0  0.20718337953E+03 -0.64498451186E+02 -0.16039315009E+03  0.26983507103E+03  0.00000000000E+00 0.  1.
          3    1    3    3  501    0 -0.18214682640E+03  0.41168568946E+02  0.13450665646E+03  0.23013986632E+03  0.00000000000E+00 0.  1.
         21    1    1    2  502  501 -0.25036553136E+02  0.23329882240E+02  0.12188831140E+02  0.36327400166E+02  0.00000000000E+00 0.  1.
<scales pt_clust_4="550.00000" pt_clust_5="550.00000" pt_clust_6="34.22152"></scales>
<mgrwt>
<rscale>  0 0.30000000E+03</rscale>
<asrwt>  1 0.34221520E+02</asrwt>
<pdfrwt beam="1">  1        1 0.95019032E+00 0.30000000E+03</pdfrwt>
<pdfrwt beam="2">0</pdfrwt>
<totfact> 0.12276967E-05</totfact>
</mgrwt>
<clustering>
<clus scale="   34.222">  1  6  2 -1</clus>
<clus scale="  498.130">  4  5 -1 -1</clus>
<clus scale="  300.000">  1  4  2 -1</clus>
</clustering>
</event>
<event>
 6    1  0.9462926E-012  0.3000000E+03  0.7818608E-02  0.1093470E+00
          1   -1    0    0  502    0  0.00000000000E+00  0.00000000000E+00  0.23369695531E+03  0.23369695531E+03  0.00000000000E+00 0.  1.
         13   -1    0    0    0    0 -0.00000000000E+00 -0.00000000000E+00 -0.27500000000E+03  0.27500000000E+03  0.00000000000E+00 0.  1.
    9000005    2    1    2  501    0 -0.27979144293E+02  0.14478258156E+02 -0.48347313073E+02  0.47641578136E+03  0.47290811113E+03 0.  0.
         13    1    3    3    0    0  0.32144423313E+02 -0.11839828485E+03 -0.21955612743E+03  0.25150807323E+03  0.00000000000E+00 0.  1.
          1    1    3    3  501    0 -0.60123567607E+02  0.13287654301E+03  0.17120881436E+03  0.22490770813E+03  0.00000000000E+00 0.  1.
         21    1    1    2  502  501  0.27979144293E+02 -0.14478258156E+02  0.70442683829E+01  0.32281173951E+02  0.00000000000E+00 0. -1.
<scales pt_clust_4="550.00000" pt_clust_5="550.00000" pt_clust_6="31.50321"></scales>
<mgrwt>
<rscale>  0 0.30000000E+03</rscale>
<asrwt>  1 0.31503214E+02</asrwt>
<pdfrwt beam="1">  1        1 0.84980711E+00 0.30000000E+03</pdfrwt>
<pdfrwt beam="2">0</pdfrwt>
<totfact> 0.41689053E-04</totfact>
</mgrwt>
<clustering>
<clus scale="   31.503">  1  6  2 -1</clus>
<clus scale="  472.908">  4  5 -1 -1</clus>
<clus scale="  300.000">  1  4  2 -1</clus>
</clustering>
</event>
<event>
 6    1  0.9462926E-012  0.3000000E+03  0.7818608E-02  0.1093470E+00
          1   -1    0    0  502    0  0.00000000000E+00  0.00000000000E+00  0.22028357770E+03  0.22028357770E+03  0.00000000000E+00 0.  1.
         13   -1    0    0    0    0 -0.00000000000E+00 -0.00000000000E+00 -0.27500000000E+03  0.27500000000E+03  0.00000000000E+00 0.  1.
    9000005    2    1    2  501    0  0.29294135445E+02  0.80068688767E+01 -0.66192694098E+02  0.46281881011E+03  0.45705308435E+03 0.  0.
         13    1    3    3    0    0 -0.19721243049E+03  0.51449236923E+02 -0.10447208995E+03  0.22902878487E+03  0.00000000000E+00 0.  1.
          3    1    3    3  501    0  0.22650656594E+03 -0.43442368046E+02  0.38279395851E+02  0.23379002524E+03  0.00000000000E+00 0.  1.
         21    1    1    2  502  501 -0.29294135445E+02 -0.80068688767E+01  0.11476271800E+02  0.32464767596E+02  0.00000000000E+00 0. -1.
<scales pt_clust_4="550.00000" pt_clust_5="550.00000" pt_clust_6="30.36867"></scales>
<mgrwt>
<rscale>  0 0.30000000E+03</rscale>
<asrwt>  1 0.30368673E+02</asrwt>
<pdfrwt beam="1">  1        1 0.80103119E+00 0.30000000E+03</pdfrwt>
<pdfrwt beam="2">0</pdfrwt>
<totfact> 0.10471537E-03</totfact>
</mgrwt>
<clustering>
<clus scale="   30.369">  1  6  2 -1</clus>
<clus scale="  457.053">  4  5 -1 -1</clus>
<clus scale="  300.000">  1  4  2 -1</clus>
</clustering>
</event>
<event>
 6    1  0.9462926E-012  0.3000000E+03  0.7818608E-02  0.1093470E+00
          1   -1    0    0  502    0  0.00000000000E+00  0.00000000000E+00  0.22193962382E+03  0.22193962382E+03  0.00000000000E+00 0.  1.
         13   -1    0    0    0    0 -0.00000000000E+00 -0.00000000000E+00 -0.27500000000E+03  0.27500000000E+03  0.00000000000E+00 0.  1.
    9000005    2    1    2  501    0 -0.33047513021E+02  0.43820603270E+01 -0.49650659857E+02  0.46342892799E+03  0.45955396060E+03 0.  0.
         13    1    3    3    0    0  0.14015366312E+02 -0.21855438627E+03  0.32128672312E+02  0.22134746855E+03  0.00000000000E+00 0.  1.
          1    1    3    3  501    0 -0.47062879333E+02  0.22293644660E+03 -0.81779332169E+02  0.24208145943E+03  0.00000000000E+00 0.  1.
         21    1    1    2  502  501  0.33047513021E+02 -0.43820603270E+01 -0.34097163260E+01  0.33510695830E+02  0.00000000000E+00 0.  1.
<scales pt_clust_4="550.00000" pt_clust_5="550.00000" pt_clust_6="33.33678"></scales>
<mgrwt>
<rscale>  0 0.30000000E+03</rscale>
<asrwt>  1 0.33336775E+02</asrwt>
<pdfrwt beam="1">  1        1 0.80705318E+00 0.30000000E+03</pdfrwt>
<pdfrwt beam="2">0</pdfrwt>
<totfact> 0.92758925E-04</totfact>
</mgrwt>
<clustering>
<clus scale="   33.337">  1  6  2 -1</clus>
<clus scale="  459.554">  4  5 -1 -1</clus>
<clus scale="  300.000">  1  4  2 -1</clus>
</clustering>
</event>
<event>
 6    1  0.9462926E-012  0.3000000E+03  0.7818608E-02  0.1093470E+00
          1   -1    0    0  502    0  0.00000000000E+00  0.00000000000E+00  0.22071673957E+03  0.22071673957E+03  0.00000000000E+00 0.  1.
         13   -1    0    0    0    0 -0.00000000000E+00 -0.00000000000E+00 -0.27500000000E+03  0.27500000000E+03  0.00000000000E+00 0.  1.
    9000005    2    1    2  501    0  0.47248244437E+01  0.30297036107E+02 -0.63220892115E+02  0.46377749063E+03  0.45842387072E+03 0.  0.
         13    1    3    3    0    0  0.25595010798E+02  0.23441376882E+03 -0.98559494992E+02  0.25557561238E+03  0.00000000000E+00 0.  1.
          3    1    3    3  501    0 -0.20870186354E+02 -0.20411673271E+03  0.35338602877E+02  0.20820187825E+03  0.00000000000E+00 0.  1.
         21    1    1    2  502  501 -0.47248244437E+01 -0.30297036107E+02  0.89376316852E+01  0.31939248943E+02  0.00000000000E+00 0.  1.
<scales pt_clust_4="550.00000" pt_clust_5="550.00000" pt_clust_6="30.66324"></scales>
<mgrwt>
<rscale>  0 0.30000000E+03</rscale>
<asrwt>  1 0.30663241E+02</asrwt>
<pdfrwt beam="1">  1        1 0.80260633E+00 0.30000000E+03</pdfrwt>
<pdfrwt beam="2">0</pdfrwt>
<totfact> 0.10179756E-03</totfact>
</mgrwt>
<clustering>
<clus scale="   30.663">  1  6  2 -1</clus>
<clus scale="  458.424">  4  5 -1 -1</clus>
<clus scale="  300.000">  1  4  2 -1</clus>
</clustering>
</event>
<event>
 6    1  0.9462926E-012  0.3000000E+03  0.7818608E-02  0.1093470E+00
          1   -1    0    0  502    0  0.00000000000E+00  0.00000000000E+00  0.23377987073E+03  0.23377987073E+03  0.00000000000E+00 0.  1.
         13   -1    0    0    0    0 -0.00000000000E+00 -0.00000000000E+00 -0.27500000000E+03  0.27500000000E+03  0.00000000000E+00 0.  1.
    9000005    2    1    2  501    0  0.34739111288E+02 -0.20532522717E+02 -0.56971580903E+02  0.46546129999E+03  0.46019568709E+03 0.  0.
         13    1    3    3    0    0 -0.12503894507E+03 -0.18461630586E+03 -0.76186039656E+02  0.23563155734E+03  0.00000000000E+00 0.  1.
          1    1    3    3  501    0  0.15977805636E+03  0.16408378314E+03  0.19214458752E+02  0.22982974266E+03  0.00000000000E+00 0.  1.
         21    1    1    2  502  501 -0.34739111288E+02  0.20532522717E+02  0.15751451636E+02  0.43318570738E+02  0.00000000000E+00 0. -1.
<scales pt_clust_4="550.00000" pt_clust_5="550.00000" pt_clust_6="40.35332"></scales>
<mgrwt>
<rscale>  0 0.30000000E+03</rscale>
<asrwt>  1 0.40353319E+02</asrwt>
<pdfrwt beam="1">  1        1 0.85010862E+00 0.30000000E+03</pdfrwt>
<pdfrwt beam="2">0</pdfrwt>
<totfact> 0.39550308E-04</totfact>
</mgrwt>
<clustering>
<clus scale="   40.353">  1  6  2 -1</clus>
<clus scale="  460.196">  4  5 -1 -1</clus>
<clus scale="  300.000">  1  4  2 -1</clus>
</clustering>
</event>
<event>
 6    1  0.9462926E-012  0.3000000E+03  0.7818608E-02  0.1093470E+00
          1   -1    0    0  502    0  0.00000000000E+00  0.00000000000E+00  0.21810835061E+03  0.21810835061E+03  0.00000000000E+00 0.  1.
         13   -1    0    0    0    0 -0.00000000000E+00 -0.00000000000E+00 -0.27500000000E+03  0.27500000000E+03  0.00000000000E+00 0.  1.
    9000005    2    1    2  501    0 -0.29092714793E+02 -0.12327891708E+02 -0.55715264324E+02  0.46148957692E+03  0.45702305845E+03 0.  0.
         13    1    3    3    0    0  0.17465561581E+02 -0.18739199088E+03 -0.16469073794E+03  0.25008767113E+03  0.00000000000E+00 0.  1.
          3    1    3    3  501    0 -0.46558276374E+02  0.17506409917E+03  0.10897547362E+03  0.21140190578E+03  0.00000000000E+00 0.  1.
         21    1    1    2  502  501  0.29092714793E+02  0.12327891708E+02 -0.11763850680E+01  0.31618773693E+02  0.00000000000E+00 0.  1.
<scales pt_clust_4="550.00000" pt_clust_5="550.00000" pt_clust_6="31.59688"></scales>
<mgrwt>
<rscale>  0 0.30000000E+03</rscale>
<asrwt>  1 0.31596882E+02</asrwt>
<pdfrwt beam="1">  1        1 0.79312127E+00 0.30000000E+03</pdfrwt>
<pdfrwt beam="2">0</pdfrwt>
<totfact> 0.11884114E-03</totfact>
</mgrwt>
<clustering>
<clus scale="   31.597">  1  6  2 -1</clus>
<clus scale="  457.023">  4  5 -1 -1</clus>
<clus scale="  300.000">  1  4  2 -1</clus>
</clustering>
</event>
<event>
 6    1  0.9462926E-012  0.3000000E+03  0.7818608E-02  0.1093470E+00
          1   -1    0    0  502    0  0.00000000000E+00  0.00000000000E+00  0.27040050140E+03  0.27040050140E+03  0.00000000000E+00 0.  1.
         13   -1    0    0    0    0 -0.00000000000E+00 -0.00000000000E+00 -0.27500000000E+03  0.27500000000E+03  0.00000000000E+00 0.  1.
    9000005    2    1    2  501    0  0.47436098595E+02  0.60739169234E+01 -0.18803965255E+02  0.49551219826E+03  0.49284041393E+03 0.  0.
         13    1    3    3    0    0 -0.92456453554E+01 -0.12552322125E+03  0.19860760602E+03  0.23513090439E+03  0.00000000000E+00 0.  1.
          1    1    3    3  501    0  0.56681743951E+02  0.13159713818E+03 -0.21741157127E+03  0.26038129387E+03  0.00000000000E+00 0.  1.
         21    1    1    2  502  501 -0.47436098595E+02 -0.60739169234E+01  0.14204466651E+02  0.49888303134E+02  0.00000000000E+00 0.  1.
<scales pt_clust_4="550.00000" pt_clust_5="550.00000" pt_clust_6="47.82338"></scales>
<mgrwt>
<rscale>  0 0.30000000E+03</rscale>
<asrwt>  1 0.47823383E+02</asrwt>
<pdfrwt beam="1">  1        1 0.98327455E+00 0.30000000E+03</pdfrwt>
<pdfrwt beam="2">0</pdfrwt>
<totfact> 0.18987984E-06</totfact>
</mgrwt>
<clustering>
<clus scale="   47.823">  1  6  2 -1</clus>
<clus scale="  492.840">  4  5 -1 -1</clus>
<clus scale="  300.000">  1  4  2 -1</clus>
</clustering>
</event>
<event>
 6    1  0.9462926E-012  0.3000000E+03  0.7818608E-02  0.1093470E+00
          1   -1    0    0  502    0  0.00000000000E+00  0.00000000000E+00  0.24265376322E+03  0.24265376322E+03  0.00000000000E+00 0.  1.
         13   -1    0    0    0    0 -0.00000000000E+00 -0.00000000000E+00 -0.27500000000E+03  0.27500000000E+03  0.00000000000E+00 0.  1.
    9000005    2    1    2  501    0 -0.49134228991E+00 -0.31304846970E+02 -0.33058308740E+02  0.48633696410E+03  0.48420094590E+03 0.  0.
         13    1    3    3    0    0  0.13921685099E+03 -0.21361268225E+03 -0.57820291069E+01  0.25503949004E+03  0.00000000000E+00 0.  1.
          1    1    3    3  501    0 -0.13970819328E+03  0.18230783528E+03 -0.27276279634E+02  0.23129747406E+03  0.00000000000E+00 0.  1.
         21    1    1    2  502  501  0.49134228991E+00  0.31304846970E+02  0.71207196346E+00  0.31316799127E+02  0.00000000000E+00 0. -1.
<scales pt_clust_4="550.00000" pt_clust_5="550.00000" pt_clust_6="31.30870"></scales>
<mgrwt>
<rscale>  0 0.30000000E+03</rscale>
<asrwt>  1 0.31308703E+02</asrwt>
<pdfrwt beam="1">  1        1 0.88237732E+00 0.30000000E+03</pdfrwt>
<pdfrwt beam="2">0</pdfrwt>
<totfact> 0.18798851E-04</totfact>
</mgrwt>
<clustering>
<clus scale="   31.309">  1  6  2 -1</clus>
<clus scale="  484.201">  4  5 -1 -1</clus>
<clus scale="  300.000">  1  4  2 -1</clus>
</clustering>
</event>
<event>
 6    1  0.9462926E-012  0.3000000E+03  0.7818608E-02  0.1093470E+00
          1   -1    0    0  502    0  0.00000000000E+00  0.00000000000E+00  0.23833453154E+03  0.23833453154E+03  0.00000000000E+00 0.  1.
         13   -1    0    0    0    0 -0.00000000000E+00 -0.00000000000E+00 -0.27500000000E+03  0.27500000000E+03  0.00000000000E+00 0.  1.
    9000005    2    1    2  501    0  0.55830657620E+01  0.34303685878E+02 -0.69620425592E+02  0.46543940979E+03  0.45888879594E+03 0.  0.
         13    1    3    3    0    0 -0.11980357953E+03 -0.26704599231E+02  0.15704220968E+03  0.19931956479E+03  0.00000000000E+00 0.  1.
          1    1    3    3  501    0  0.12538664529E+03  0.61008285109E+02 -0.22666263528E+03  0.26611984499E+03  0.00000000000E+00 0.  1.
         21    1    1    2  502  501 -0.55830657620E+01 -0.34303685878E+02  0.32954957132E+02  0.47895121752E+02  0.00000000000E+00 0.  1.
<scales pt_clust_4="550.00000" pt_clust_5="550.00000" pt_clust_6="34.75505"></scales>
<mgrwt>
<rscale>  0 0.30000000E+03</rscale>
<asrwt>  1 0.34755050E+02</asrwt>
<pdfrwt beam="1">  1        1 0.86667102E+00 0.30000000E+03</pdfrwt>
<pdfrwt beam="2">0</pdfrwt>
<totfact> 0.27455954E-04</totfact>
</mgrwt>
<clustering>
<clus scale="   34.755">  1  6  2 -1</clus>
<clus scale="  458.889">  4  5 -1 -1</clus>
<clus scale="  300.000">  1  4  2 -1</clus>
</clustering>
</event>
<event>
 6    1  0.9462926E-012  0.3000000E+03  0.7818608E-02  0.1093470E+00
          1   -1    0    0  502    0  0.00000000000E+00  0.00000000000E+00  0.24103287541E+03  0.24103287541E+03  0.00000000000E+00 0.  1.
         13   -1    0    0    0    0 -0.00000000000E+00 -0.00000000000E+00 -0.27500000000E+03  0.27500000000E+03  0.00000000000E+00 0.  1.
    9000005    2    1    2  501    0 -0.30183920915E+02  0.39666058138E+01 -0.18930877222E+02  0.48207861532E+03  0.48074380932E+03 0.  0.
         13    1    3    3    0    0  0.21041950366E+03 -0.17726602633E+02  0.73251290422E+02  0.22350917545E+03  0.00000000000E+00 0.  1.
          1    1    3    3  501    0 -0.24060342457E+03  0.21693208447E+02 -0.92182167644E+02  0.25856943988E+03  0.00000000000E+00 0.  1.
         21    1    1    2  502  501  0.30183920915E+02 -0.39666058138E+01 -0.15036247364E+02  0.33954260090E+02  0.00000000000E+00 0. -1.
<scales pt_clust_4="550.00000" pt_clust_5="550.00000" pt_clust_6="30.44346"></scales>
<mgrwt>
<rscale>  0 0.30000000E+03</rscale>
<asrwt>  1 0.30443455E+02</asrwt>
<pdfrwt beam="1">  1        1 0.87648318E+00 0.30000000E+03</pdfrwt>
<pdfrwt beam="2">0</pdfrwt>
<totfact> 0.22262502E-04</totfact>
</mgrwt>
<clustering>
<clus scale="   30.443">  1  6  2 -1</clus>
<clus scale="  480.744">  4  5 -1 -1</clus>
<clus scale="  300.000">  1  4  2 -1</clus>
</clustering>
</event>
<event>
 6    1  0.9462926E-012  0.3000000E+03  0.7818608E-02  0.1093470E+00
          1   -1    0    0  502    0  0.00000000000E+00  0.00000000000E+00  0.24700759181E+03  0.24700759181E+03  0.00000000000E+00 0.  1.
         13   -1    0    0    0    0 -0.00000000000E+00 -0.00000000000E+00 -0.27500000000E+03  0.27500000000E+03  0.00000000000E+00 0.  1.
    9000005    2    1    2  501    0  0.34072734321E+01  0.31302617321E+02 -0.42710542339E+02  0.48725004822E+03  0.48435209889E+03 0.  0.
         13    1    3    3    0    0 -0.21773821228E+03  0.74647949406E+02  0.62548907197E+02  0.23852591312E+03  0.00000000000E+00 0.  1.
          3    1    3    3  501    0  0.22114548571E+03 -0.43345332085E+02 -0.10525944954E+03  0.24872413510E+03  0.00000000000E+00 0.  1.
         21    1    1    2  502  501 -0.34072734321E+01 -0.31302617321E+02  0.14718134148E+02  0.34757543587E+02  0.00000000000E+00 0. -1.
<scales pt_clust_4="550.00000" pt_clust_5="550.00000" pt_clust_6="31.48751"></scales>
<mgrwt>
<rscale>  0 0.30000000E+03</rscale>
<asrwt>  1 0.31487511E+02</asrwt>
<pdfrwt beam="1">  1        1 0.89820942E+00 0.30000000E+03</pdfrwt>
<pdfrwt beam="2">0</pdfrwt>
<totfact> 0.11838302E-04</totfact>
</mgrwt>
<clustering>
<clus scale="   31.488">  1  6  2 -1</clus>
<clus scale="  484.352">  4  5 -1 -1</clus>
<clus scale="  300.000">  1  4  2 -1</clus>
</clustering>
</event>
<event>
 6    1  0.9462926E-012  0.3000000E+03  0.7818608E-02  0.1093470E+00
          1   -1    0    0  502    0  0.00000000000E+00  0.00000000000E+00  0.24601657196E+03  0.24601657196E+03  0.00000000000E+00 0.  1.
         13   -1    0    0    0    0 -0.00000000000E+00 -0.00000000000E+00 -0.27500000000E+03  0.27500000000E+03  0.00000000000E+00 0.  1.
    9000005    2    1    2  501    0  0.31702071939E+01  0.37735436794E+02 -0.57592419805E+02  0.47355619045E+03  0.46851314313E+03 0.  0.
         13    1    3    3    0    0  0.17559709825E+02 -0.16667637875E+03  0.11695833050E+03  0.20437370113E+03  0.00000000000E+00 0.  1.
          1    1    3    3  501    0 -0.14389502631E+02  0.20441181554E+03 -0.17455075031E+03  0.26918248931E+03  0.00000000000E+00 0.  1.
         21    1    1    2  502  501 -0.31702071939E+01 -0.37735436794E+02  0.28608991767E+02  0.47460381516E+02  0.00000000000E+00 0.  1.
<scales pt_clust_4="550.00000" pt_clust_5="550.00000" pt_clust_6="37.86837"></scales>
<mgrwt>
<rscale>  0 0.30000000E+03</rscale>
<asrwt>  1 0.37868369E+02</asrwt>
<pdfrwt beam="1">  1        1 0.89460572E+00 0.30000000E+03</pdfrwt>
<pdfrwt beam="2">0</pdfrwt>
<totfact> 0.12553707E-04</totfact>
</mgrwt>
<clustering>
<clus scale="   37.868">  1  6  2 -1</clus>
<clus scale="  468.513">  4  5 -1 -1</clus>
<clus scale="  300.000">  1  4  2 -1</clus>
</clustering>
</event>
<event>
 6    1  0.9462926E-012  0.3000000E+03  0.7818608E-02  0.1093470E+00
          1   -1    0    0  502    0  0.00000000000E+00  0.00000000000E+00  0.21856517698E+03  0.21856517698E+03  0.00000000000E+00 0.  1.
         13   -1    0    0    0    0 -0.00000000000E+00 -0.00000000000E+00 -0.27500000000E+03  0.27500000000E+03  0.00000000000E+00 0.  1.
    9000005    2    1    2  501    0  0.13453104066E+02 -0.27617120844E+02 -0.48125766463E+02  0.46174172975E+03  0.45819825865E+03 0.  0.
         13    1    3    3    0    0 -0.18161174156E+03  0.56896245852E+02 -0.13369341394E+03  0.23258103189E+03  0.00000000000E+00 0.  1.
          1    1    3    3  501    0  0.19506484563E+03 -0.84513366695E+02  0.85567647473E+02  0.22916069786E+03  0.00000000000E+00 0.  1.
         21    1    1    2  502  501 -0.13453104066E+02  0.27617120844E+02 -0.83090565541E+01  0.31823447229E+02  0.00000000000E+00 0. -1.
<scales pt_clust_4="550.00000" pt_clust_5="550.00000" pt_clust_6="30.71958"></scales>
<mgrwt>
<rscale>  0 0.30000000E+03</rscale>
<asrwt>  1 0.30719575E+02</asrwt>
<pdfrwt beam="1">  1        1 0.79478246E+00 0.30000000E+03</pdfrwt>
<pdfrwt beam="2">0</pdfrwt>
<totfact> 0.11606518E-03</totfact>
</mgrwt>
<clustering>
<clus scale="   30.720">  1  6  2 -1</clus>
<clus scale="  458.198">  4  5 -1 -1</clus>
<clus scale="  300.000">  1  4  2 -1</clus>
</clustering>
</event>
<event>
 6    1  0.9462926E-012  0.3000000E+03  0.7818608E-02  0.1093470E+00
          1   -1    0    0  502    0  0.00000000000E+00  0.00000000000E+00  0.25101947071E+03  0.25101947071E+03  0.00000000000E+00 0.  1.
         13   -1    0    0    0    0 -0.00000000000E+00 -0.00000000000E+00 -0.27500000000E+03  0.27500000000E+03  0.00000000000E+00 0.  1.
    9000005    2    1    2  501    0  0.33010581399E+02 -0.65379445237E+01 -0.64790479070E+02  0.47312433668E+03  0.46745736552E+03 0.  0.
         13    1    3    3    0    0  0.16306904586E+03 -0.21934709066E+02  0.14928299685E+03  0.22216673542E+03  0.00000000000E+00 0.  1.
          1    1    3    3  501    0 -0.13005846446E+03  0.15396764542E+02 -0.21407347592E+03  0.25095760126E+03  0.00000000000E+00 0.  1.
         21    1    1    2  502  501 -0.33010581399E+02  0.65379445237E+01  0.40809949783E+02  0.52895134031E+02  0.00000000000E+00 0.  1.
<scales pt_clust_4="550.00000" pt_clust_5="550.00000" pt_clust_6="33.65179"></scales>
<mgrwt>
<rscale>  0 0.30000000E+03</rscale>
<asrwt>  1 0.33651793E+02</asrwt>
<pdfrwt beam="1">  1        1 0.91279808E+00 0.30000000E+03</pdfrwt>
<pdfrwt beam="2">0</pdfrwt>
<totfact> 0.61680243E-05</totfact>
</mgrwt>
<clustering>
<clus scale="   33.652">  1  6  2 -1</clus>
<clus scale="  467.457">  4  5 -1 -1</clus>
<clus scale="  300.000">  1  4  2 -1</clus>
</clustering>
</event>
<event>
 6    1  0.9462926E-012  0.3000000E+03  0.7818608E-02  0.1093470E+00
          1   -1    0    0  502    0  0.00000000000E+00  0.00000000000E+00  0.21788713028E+03  0.21788713028E+03  0.00000000000E+00 0.  1.
         13   -1    0    0    0    0 -0.00000000000E+00 -0.00000000000E+00 -0.27500000000E+03  0.27500000000E+03  0.00000000000E+00 0.  1.
    9000005    2    1    2  501    0 -0.27057364083E+02 -0.14899933662E+02 -0.51970383498E+02  0.46157332919E+03  0.45759688426E+03 0.  0.
         13    1    3    3    0    0  0.20487041489E+03  0.62280789257E+02 -0.28502599259E+02  0.21601662383E+03  0.00000000000E+00 0.  1.
          1    1    3    3  501    0 -0.23192777897E+03 -0.77180722919E+02 -0.23467784239E+02  0.24555670536E+03  0.00000000000E+00 0.  1.
         21    1    1    2  502  501  0.27057364083E+02  0.14899933662E+02 -0.51424862197E+01  0.31313801091E+02  0.00000000000E+00 0.  1.
<scales pt_clust_4="550.00000" pt_clust_5="550.00000" pt_clust_6="30.88867"></scales>
<mgrwt>
<rscale>  0 0.30000000E+03</rscale>
<asrwt>  1 0.30888670E+02</asrwt>
<pdfrwt beam="1">  1        1 0.79231684E+00 0.30000000E+03</pdfrwt>
<pdfrwt beam="2">0</pdfrwt>
<totfact> 0.12107887E-03</totfact>
</mgrwt>
<clustering>
<clus scale="   30.889">  1  6  2 -1</clus>
<clus scale="  457.597">  4  5 -1 -1</clus>
<clus scale="  300.000">  1  4  2 -1</clus>
</clustering>
</event>
<event>
 6    1  0.9462926E-012  0.3000000E+03  0.7818608E-02  0.1093470E+00
          1   -1    0    0  502    0  0.00000000000E+00  0.00000000000E+00  0.23656400392E+03  0.23656400392E+03  0.00000000000E+00 0.  1.
         13   -1    0    0    0    0 -0.00000000000E+00 -0.00000000000E+00 -0.27500000000E+03  0.27500000000E+03  0.00000000000E+00 0.  1.
    9000005    2    1    2  501    0  0.83086251893E+01 -0.30088002060E+02 -0.67750805565E+02  0.46874252361E+03  0.46276890633E+03 0.  0.
         13    1    3    3    0    0 -0.14247276582E+03  0.16451559708E+03 -0.32977694651E+02  0.22011678497E+03  0.00000000000E+00 0.  1.
          3    1    3    3  501    0  0.15078139101E+03 -0.19460359914E+03 -0.34773110914E+02  0.24862573864E+03  0.00000000000E+00 0.  1.
         21    1    1    2  502  501 -0.83086251893E+01  0.30088002060E+02  0.29314809487E+02  0.42821480308E+02  0.00000000000E+00 0.  1.
<scales pt_clust_4="550.00000" pt_clust_5="550.00000" pt_clust_6="31.21412"></scales>
<mgrwt>
<rscale>  0 0.30000000E+03</rscale>
<asrwt>  1 0.31214117E+02</asrwt>
<pdfrwt beam="1">  1        1 0.86023274E+00 0.30000000E+03</pdfrwt>
<pdfrwt beam="2">0</pdfrwt>
<totfact> 0.32865358E-04</totfact>
</mgrwt>
<clustering>
<clus scale="   31.214">  1  6  2 -1</clus>
<clus scale="  462.769">  4  5 -1 -1</clus>
<clus scale="  300.000">  1  4  2 -1</clus>
</clustering>
</event>
<event>
 6    1  0.9462926E-012  0.3000000E+03  0.7818608E-02  0.1093470E+00
          1   -1    0    0  502    0  0.00000000000E+00  0.00000000000E+00  0.22077986857E+03  0.22077986857E+03  0.00000000000E+00 0.  1.
         13   -1    0    0    0    0 -0.00000000000E+00 -0.00000000000E+00 -0.27500000000E+03  0.27500000000E+03  0.00000000000E+00 0.  1.
    9000005    2    1    2  501    0  0.33477894900E+02  0.10623605513E+01 -0.55341929797E+02  0.46226634162E+03  0.45771775512E+03 0.  0.
         13    1    3    3    0    0 -0.64163778965E+02 -0.18008780791E+03 -0.14284203546E+03  0.23864713739E+03  0.00000000000E+00 0.  1.
          1    1    3    3  501    0  0.97641673865E+02  0.18115016846E+03  0.87500105666E+02  0.22361920423E+03  0.00000000000E+00 0.  1.
         21    1    1    2  502  501 -0.33477894900E+02 -0.10623605513E+01  0.11217983689E+01  0.33513526947E+02  0.00000000000E+00 0.  1.
<scales pt_clust_4="550.00000" pt_clust_5="550.00000" pt_clust_6="33.49475"></scales>
<mgrwt>
<rscale>  0 0.30000000E+03</rscale>
<asrwt>  1 0.33494747E+02</asrwt>
<pdfrwt beam="1">  1        1 0.80283589E+00 0.30000000E+03</pdfrwt>
<pdfrwt beam="2">0</pdfrwt>
<totfact> 0.99714904E-04</totfact>
</mgrwt>
<clustering>
<clus scale="   33.495">  1  6  2 -1</clus>
<clus scale="  457.718">  4  5 -1 -1</clus>
<clus scale="  300.000">  1  4  2 -1</clus>
</clustering>
</event>
<event>
 6    1  0.9462926E-012  0.3000000E+03  0.7818608E-02  0.1093470E+00
          1   -1    0    0  502    0  0.00000000000E+00  0.00000000000E+00  0.24171487628E+03  0.24171487628E+03  0.00000000000E+00 0.  1.
         13   -1    0    0    0    0 -0.00000000000E+00 -0.00000000000E+00 -0.27500000000E+03  0.27500000000E+03  0.00000000000E+00 0.  1.
    9000005    2    1    2  501    0 -0.35105497858E+02 -0.14858236548E+02 -0.30132505136E+02  0.47846435763E+03  0.47599055714E+03 0.  0.
         13    1    3    3    0    0 -0.10528267814E+03  0.21379183939E+03 -0.12447574283E+02  0.23863431231E+03  0.00000000000E+00 0.  1.
          3    1    3    3  501    0  0.70177180283E+02 -0.22865007594E+03 -0.17684930853E+02  0.23983004532E+03  0.00000000000E+00 0.  1.
         21    1    1    2  502  501  0.35105497858E+02  0.14858236548E+02 -0.31526185831E+01  0.38250518652E+02  0.00000000000E+00 0. -1.
<scales pt_clust_4="550.00000" pt_clust_5="550.00000" pt_clust_6="38.12040"></scales>
<mgrwt>
<rscale>  0 0.30000000E+03</rscale>
<asrwt>  1 0.38120396E+02</asrwt>
<pdfrwt beam="1">  1        1 0.87896319E+00 0.30000000E+03</pdfrwt>
<pdfrwt beam="2">0</pdfrwt>
<totfact> 0.19997268E-04</totfact>
</mgrwt>
<clustering>
<clus scale="   38.120">  1  6  2 -1</clus>
<clus scale="  475.991">  4  5 -1 -1</clus>
<clus scale="  300.000">  1  4  2 -1</clus>
</clustering>
</event>
<event>
 6    1  0.9462926E-012  0.3000000E+03  0.7818608E-02  0.1093470E+00
          1   -1    0    0  502    0  0.00000000000E+00  0.00000000000E+00  0.23746665642E+03  0.23746665642E+03  0.00000000000E+00 0.  1.
         13   -1    0    0    0    0 -0.00000000000E+00 -0.00000000000E+00 -0.27500000000E+03  0.27500000000E+03  0.00000000000E+00 0.  1.
    9000005    2    1    2  501    0  0.30567727799E+02 -0.15849344048E+01 -0.45868702776E+02  0.48074322324E+03  0.47757011087E+03 0.  0.
         13    1    3    3    0    0 -0.12610213974E+03  0.11980036045E+03 -0.17296751611E+03  0.24529907794E+03  0.00000000000E+00 0.  1.
          3    1    3    3  501    0  0.15666986754E+03 -0.12138529485E+03  0.12709881333E+03  0.23544414529E+03  0.00000000000E+00 0.  1.
         21    1    1    2  502  501 -0.30567727799E+02  0.15849344048E+01  0.83353591925E+01  0.31723433180E+02  0.00000000000E+00 0.  1.
<scales pt_clust_4="550.00000" pt_clust_5="550.00000" pt_clust_6="30.60879"></scales>
<mgrwt>
<rscale>  0 0.30000000E+03</rscale>
<asrwt>  1 0.30608790E+02</asrwt>
<pdfrwt beam="1">  1        1 0.86351511E+00 0.30000000E+03</pdfrwt>
<pdfrwt beam="2">0</pdfrwt>
<totfact> 0.30406962E-04</totfact>
</mgrwt>
<clustering>
<clus scale="   30.609">  1  6  2 -1</clus>
<clus scale="  477.570">  4  5 -1 -1</clus>
<clus scale="  300.000">  1  4  2 -1</clus>
</clustering>
</event>
<event>
 6    1  0.9462926E-012  0.3000000E+03  0.7818608E-02  0.1093470E+00
          1   -1    0    0  502    0  0.00000000000E+00  0.00000000000E+00  0.24914700564E+03  0.24914700564E+03  0.00000000000E+00 0.  1.
         13   -1    0    0    0    0 -0.00000000000E+00 -0.00000000000E+00 -0.27500000000E+03  0.27500000000E+03  0.00000000000E+00 0.  1.
    9000005    2    1    2  501    0  0.29716960036E+02  0.43784514292E+02 -0.43780002190E+02  0.46827609179E+03  0.46321229273E+03 0.  0.
         13    1    3    3    0    0 -0.50693399607E+02 -0.90802134724E+02  0.17233621539E+03  0.20128243731E+03  0.00000000000E+00 0.  1.
          1    1    3    3  501    0  0.80410359643E+02  0.13458664902E+03 -0.21611621758E+03  0.26699365448E+03  0.00000000000E+00 0.  1.
         21    1    1    2  502  501 -0.29716960036E+02 -0.43784514292E+02  0.17927007834E+02  0.55870913859E+02  0.00000000000E+00 0.  1.
<scales pt_clust_4="550.00000" pt_clust_5="550.00000" pt_clust_6="52.91674"></scales>
<mgrwt>
<rscale>  0 0.30000000E+03</rscale>
<asrwt>  1 0.52916740E+02</asrwt>
<pdfrwt beam="1">  1        1 0.90598911E+00 0.30000000E+03</pdfrwt>
<pdfrwt beam="2">0</pdfrwt>
<totfact> 0.82087484E-05</totfact>
</mgrwt>
<clustering>
<clus scale="   52.917">  1  6  2 -1</clus>
<clus scale="  463.212">  4  5 -1 -1</clus>
<clus scale="  300.000">  1  4  2 -1</clus>
</clustering>
</event>
<event>
 6    1  0.9462926E-012  0.3000000E+03  0.7818608E-02  0.1093470E+00
          1   -1    0    0  502    0  0.00000000000E+00  0.00000000000E+00  0.25764445663E+03  0.25764445663E+03  0.00000000000E+00 0.  1.
         13   -1    0    0    0    0 -0.00000000000E+00 -0.00000000000E+00 -0.27500000000E+03  0.27500000000E+03  0.00000000000E+00 0.  1.
    9000005    2    1    2  501    0  0.37874349349E+02 -0.30829872715E+02 -0.20512040332E+02  0.48370663013E+03  0.48079768390E+03 0.  0.
         13    1    3    3    0    0  0.78698889879E+01 -0.19104366817E+03 -0.17494769963E+03  0.25916465018E+03  0.00000000000E+00 0.  1.
          3    1    3    3  501    0  0.30004460361E+02  0.16021379545E+03  0.15443565930E+03  0.22454197994E+03  0.00000000000E+00 0.  1.
         21    1    1    2  502  501 -0.37874349349E+02  0.30829872715E+02  0.31564969664E+01  0.48937826508E+02  0.00000000000E+00 0.  1.
<scales pt_clust_4="550.00000" pt_clust_5="550.00000" pt_clust_6="48.83592"></scales>
<mgrwt>
<rscale>  0 0.30000000E+03</rscale>
<asrwt>  1 0.48835923E+02</asrwt>
<pdfrwt beam="1">  1        1 0.93688893E+00 0.30000000E+03</pdfrwt>
<pdfrwt beam="2">0</pdfrwt>
<totfact> 0.20085772E-05</totfact>
</mgrwt>
<clustering>
<clus scale="   48.836">  1  6  2 -1</clus>
<clus scale="  480.798">  4  5 -1 -1</clus>
<clus scale="  300.000">  1  4  2 -1</clus>
</clustering>
</event>
<event>
 6    1  0.9462926E-012  0.3000000E+03  0.7818608E-02  0.1093470E+00
          1   -1    0    0  502    0  0.00000000000E+00  0.00000000000E+00  0.23875015146E+03  0.23875015146E+03  0.00000000000E+00 0.  1.
         13   -1    0    0    0    0 -0.00000000000E+00 -0.00000000000E+00 -0.27500000000E+03  0.27500000000E+03  0.00000000000E+00 0.  1.
    9000005    2    1    2  501    0  0.50022967707E+02  0.20451371817E+00 -0.45450236330E+02  0.46288772663E+03  0.45792683298E+03 0.  0.
         13    1    3    3    0    0 -0.18975111316E+03  0.82434355544E+02 -0.28522026067E+02  0.20884064233E+03  0.00000000000E+00 0.  1.
          3    1    3    3  501    0  0.23977408086E+03 -0.82229841826E+02 -0.16928210264E+02  0.25404708430E+03  0.00000000000E+00 0.  1.
         21    1    1    2  502  501 -0.50022967707E+02 -0.20451371817E+00  0.92003877931E+01  0.50862424831E+02  0.00000000000E+00 0.  1.
<scales pt_clust_4="550.00000" pt_clust_5="550.00000" pt_clust_6="50.02339"></scales>
<mgrwt>
<rscale>  0 0.30000000E+03</rscale>
<asrwt>  1 0.50023386E+02</asrwt>
<pdfrwt beam="1">  1        1 0.86818237E+00 0.30000000E+03</pdfrwt>
<pdfrwt beam="2">0</pdfrwt>
<totfact> 0.24783792E-04</totfact>
</mgrwt>
<clustering>
<clus scale="   50.023">  1  6  2 -1</clus>
<clus scale="  457.927">  4  5 -1 -1</clus>
<clus scale="  300.000">  1  4  2 -1</clus>
</clustering>
</event>
<event>
 6    1  0.9462926E-012  0.3000000E+03  0.7818608E-02  0.1093470E+00
          1   -1    0    0  502    0  0.00000000000E+00  0.00000000000E+00  0.27077507730E+03  0.27077507730E+03  0.00000000000E+00 0.  1.
         13   -1    0    0    0    0 -0.00000000000E+00 -0.00000000000E+00 -0.27500000000E+03  0.27500000000E+03  0.00000000000E+00 0.  1.
    9000005    2    1    2  501    0  0.33335272945E+02 -0.10948644978E+02 -0.74237371407E+02  0.46746252260E+03  0.46019442573E+03 0.  0.
         13    1    3    3    0    0  0.71349917846E+02 -0.62910389093E+02  0.18086867422E+03  0.20435754243E+03  0.00000000000E+00 0.  1.
          1    1    3    3  501    0 -0.38014644901E+02  0.51961744115E+02 -0.25510604563E+03  0.26310498018E+03  0.00000000000E+00 0.  1.
         21    1    1    2  502  501 -0.33335272945E+02  0.10948644978E+02  0.70012448704E+02  0.78312554694E+02  0.00000000000E+00 0.  1.
<scales pt_clust_4="550.00000" pt_clust_5="550.00000" pt_clust_6="35.08722"></scales>
<mgrwt>
<rscale>  0 0.30000000E+03</rscale>
<asrwt>  1 0.35087223E+02</asrwt>
<pdfrwt beam="1">  1        1 0.98463664E+00 0.30000000E+03</pdfrwt>
<pdfrwt beam="2">0</pdfrwt>
<totfact> 0.16806241E-06</totfact>
</mgrwt>
<clustering>
<clus scale="   35.087">  1  6  2 -1</clus>
<clus scale="  460.194">  4  5 -1 -1</clus>
<clus scale="  300.000">  1  4  2 -1</clus>
</clustering>
</event>
<event>
 6    1  0.9462926E-012  0.3000000E+03  0.7818608E-02  0.1093470E+00
          1   -1    0    0  502    0  0.00000000000E+00  0.00000000000E+00  0.23190841945E+03  0.23190841945E+03  0.00000000000E+00 0.  1.
         13   -1    0    0    0    0 -0.00000000000E+00 -0.00000000000E+00 -0.27500000000E+03  0.27500000000E+03  0.00000000000E+00 0.  1.
    9000005    2    1    2  501    0  0.32091372868E+02 -0.26586568706E+02 -0.41426463539E+02  0.46520141210E+03  0.46147535155E+03 0.  0.
         13    1    3    3    0    0 -0.21112600259E+03 -0.46821731622E+02  0.70741396196E+01  0.21637122492E+03  0.00000000000E+00 0.  1.
          1    1    3    3  501    0  0.24321737546E+03  0.20235162916E+02 -0.48500603159E+02  0.24883018718E+03  0.00000000000E+00 0.  1.
         21    1    1    2  502  501 -0.32091372868E+02  0.26586568706E+02 -0.16651170077E+01  0.41707007358E+02  0.00000000000E+00 0.  1.
<scales pt_clust_4="550.00000" pt_clust_5="550.00000" pt_clust_6="41.67375"></scales>
<mgrwt>
<rscale>  0 0.30000000E+03</rscale>
<asrwt>  1 0.41673755E+02</asrwt>
<pdfrwt beam="1">  1        1 0.84330334E+00 0.30000000E+03</pdfrwt>
<pdfrwt beam="2">0</pdfrwt>
<totfact> 0.45250728E-04</totfact>
</mgrwt>
<clustering>
<clus scale="   41.674">  1  6  2 -1</clus>
<clus scale="  461.475">  4  5 -1 -1</clus>
<clus scale="  300.000">  1  4  2 -1</clus>
</clustering>
</event>
<event>
 6    1  0.9462926E-012  0.3000000E+03  0.7818608E-02  0.1093470E+00
          1   -1    0    0  502    0  0.00000000000E+00  0.00000000000E+00  0.22042840172E+03  0.22042840172E+03  0.00000000000E+00 0.  1.
         13   -1    0    0    0    0 -0.00000000000E+00 -0.00000000000E+00 -0.27500000000E+03  0.27500000000E+03  0.00000000000E+00 0.  1.
    9000005    2    1    2  501    0  0.31298560399E+01  0.30855201133E+02 -0.51484113728E+02  0.46426156042E+03  0.46035458408E+03 0.  0.
         13    1    3    3    0    0  0.12148418739E+03  0.10044443686E+03 -0.20481090702E+03  0.25844728730E+03  0.00000000000E+00 0.  1.
          1    1    3    3  501    0 -0.11835433135E+03 -0.69589235723E+02  0.15332679329E+03  0.20581427311E+03  0.00000000000E+00 0.  1.
         21    1    1    2  502  501 -0.31298560399E+01 -0.30855201133E+02 -0.30874845538E+01  0.31166841301E+02  0.00000000000E+00 0.  1.
<scales pt_clust_4="550.00000" pt_clust_5="550.00000" pt_clust_6="31.01354"></scales>
<mgrwt>
<rscale>  0 0.30000000E+03</rscale>
<asrwt>  1 0.31013536E+02</asrwt>
<pdfrwt beam="1">  1        1 0.80155782E+00 0.30000000E+03</pdfrwt>
<pdfrwt beam="2">0</pdfrwt>
<totfact> 0.10338046E-03</totfact>
</mgrwt>
<clustering>
<clus scale="   31.014">  1  6  2 -1</clus>
<clus scale="  460.355">  4  5 -1 -1</clus>
<clus scale="  300.000">  1  4  2 -1</clus>
</clustering>
</event>
<event>
 6    1  0.9462926E-012  0.3000000E+03  0.7818608E-02  0.1093470E+00
          1   -1    0    0  502    0  0.00000000000E+00  0.00000000000E+00  0.23320235141E+03  0.23320235141E+03  0.00000000000E+00 0.  1.
         13   -1    0    0    0    0 -0.00000000000E+00 -0.00000000000E+00 -0.27500000000E+03  0.27500000000E+03  0.00000000000E+00 0.  1.
    9000005    2    1    2  501    0 -0.33256991702E+02 -0.15230751396E+02 -0.56375699488E+02  0.46882567236E+03  0.46398414659E+03 0.  0.
         13    1    3    3    0    0  0.65130303299E+02  0.11644736432E+03 -0.20673686448E+03  0.24605299469E+03  0.00000000000E+00 0.  1.
          1    1    3    3  501    0 -0.98387295001E+02 -0.13167811572E+03  0.15036116499E+03  0.22277267766E+03  0.00000000000E+00 0.  1.
         21    1    1    2  502  501  0.33256991702E+02  0.15230751396E+02  0.14578050894E+02  0.39376679050E+02  0.00000000000E+00 0.  1.
<scales pt_clust_4="550.00000" pt_clust_5="550.00000" pt_clust_6="36.57873"></scales>
<mgrwt>
<rscale>  0 0.30000000E+03</rscale>
<asrwt>  1 0.36578727E+02</asrwt>
<pdfrwt beam="1">  1        1 0.84800855E+00 0.30000000E+03</pdfrwt>
<pdfrwt beam="2">0</pdfrwt>
<totfact> 0.42118419E-04</totfact>
</mgrwt>
<clustering>
<clus scale="   36.579">  1  6  2 -1</clus>
<clus scale="  463.984">  4  5 -1 -1</clus>
<clus scale="  300.000">  1  4  2 -1</clus>
</clustering>
</event>
<event>
 6    1  0.9462926E-012  0.3000000E+03  0.7818608E-02  0.1093470E+00
          1   -1    0    0  502    0  0.00000000000E+00  0.00000000000E+00  0.23256547748E+03  0.23256547748E+03  0.00000000000E+00 0.  1.
         13   -1    0    0    0    0 -0.00000000000E+00 -0.00000000000E+00 -0.27500000000E+03  0.27500000000E+03  0.00000000000E+00 0.  1.
    9000005    2    1    2  501    0  0.21366853093E+01  0.34683000833E+02 -0.36072608440E+02  0.47223914280E+03  0.46957544542E+03 0.  0.
         13    1    3    3    0    0 -0.83977573495E+02 -0.40721462864E+02 -0.22934941671E+03  0.24761184409E+03  0.00000000000E+00 0.  1.
          3    1    3    3  501    0  0.86114258804E+02  0.75404463697E+02  0.19327680827E+03  0.22462729872E+03  0.00000000000E+00 0.  1.
         21    1    1    2  502  501 -0.21366853093E+01 -0.34683000833E+02 -0.63619140817E+01  0.35326334676E+02  0.00000000000E+00 0. -1.
<scales pt_clust_4="550.00000" pt_clust_5="550.00000" pt_clust_6="34.74877"></scales>
<mgrwt>
<rscale>  0 0.30000000E+03</rscale>
<asrwt>  1 0.34748772E+02</asrwt>
<pdfrwt beam="1">  1        1 0.84569265E+00 0.30000000E+03</pdfrwt>
<pdfrwt beam="2">0</pdfrwt>
<totfact> 0.44613672E-04</totfact>
</mgrwt>
<clustering>
<clus scale="   34.749">  1  6  2 -1</clus>
<clus scale="  469.575">  4  5 -1 -1</clus>
<clus scale="  300.000">  1  4  2 -1</clus>
</clustering>
</event>
<event>
 6    1  0.9462926E-012  0.3000000E+03  0.7818608E-02  0.1093470E+00
          1   -1    0    0  502    0  0.00000000000E+00  0.00000000000E+00  0.24781075545E+03  0.24781075545E+03  0.00000000000E+00 0.  1.
         13   -1    0    0    0    0 -0.00000000000E+00 -0.00000000000E+00 -0.27500000000E+03  0.27500000000E+03  0.00000000000E+00 0.  1.
    9000005    2    1    2  501    0  0.68624201512E+00  0.31310298404E+02 -0.31686695824E+02  0.49117165334E+03  0.48914695199E+03 0.  0.
         13    1    3    3    0    0  0.23680012398E+03  0.77953650531E+02 -0.96471673306E+01  0.24948775158E+03  0.00000000000E+00 0.  1.
          3    1    3    3  501    0 -0.23611388197E+03 -0.46643352126E+02 -0.22039528493E+02  0.24168390176E+03  0.00000000000E+00 0.  1.
         21    1    1    2  502  501 -0.68624201512E+00 -0.31310298404E+02  0.44974512723E+01  0.31639102108E+02  0.00000000000E+00 0.  1.
<scales pt_clust_4="550.00000" pt_clust_5="550.00000" pt_clust_6="31.31782"></scales>
<mgrwt>
<rscale>  0 0.30000000E+03</rscale>
<asrwt>  1 0.31317818E+02</asrwt>
<pdfrwt beam="1">  1        1 0.90113002E+00 0.30000000E+03</pdfrwt>
<pdfrwt beam="2">0</pdfrwt>
<totfact> 0.10902567E-04</totfact>
</mgrwt>
<clustering>
<clus scale="   31.318">  1  6  2 -1</clus>
<clus scale="  489.147">  4  5 -1 -1</clus>
<clus scale="  300.000">  1  4  2 -1</clus>
</clustering>
</event>
<event>
 6    1  0.9462926E-012  0.3000000E+03  0.7818608E-02  0.1093470E+00
          1   -1    0    0  502    0  0.00000000000E+00  0.00000000000E+00  0.23289249505E+03  0.23289249505E+03  0.00000000000E+00 0.  1.
         13   -1    0    0    0    0 -0.00000000000E+00 -0.00000000000E+00 -0.27500000000E+03  0.27500000000E+03  0.00000000000E+00 0.  1.
    9000005    2    1    2  501    0 -0.83738587352E+01  0.34425243560E+02 -0.61192765339E+02  0.46764990482E+03  0.46227336073E+03 0.  0.
         13    1    3    3    0    0 -0.18914299714E+03  0.96693210881E+02 -0.14675034637E+03  0.25818658864E+03  0.00000000000E+00 0.  1.
          3    1    3    3  501    0  0.18076913840E+03 -0.62267967321E+02  0.85557581029E+02  0.20946331618E+03  0.00000000000E+00 0.  1.
         21    1    1    2  502  501  0.83738587352E+01 -0.34425243560E+02  0.19085260391E+02  0.40242590231E+02  0.00000000000E+00 0. -1.
<scales pt_clust_4="550.00000" pt_clust_5="550.00000" pt_clust_6="35.42907"></scales>
<mgrwt>
<rscale>  0 0.30000000E+03</rscale>
<asrwt>  1 0.35429069E+02</asrwt>
<pdfrwt beam="1">  1        1 0.84688180E+00 0.30000000E+03</pdfrwt>
<pdfrwt beam="2">0</pdfrwt>
<totfact> 0.43379360E-04</totfact>
</mgrwt>
<clustering>
<clus scale="   35.429">  1  6  2 -1</clus>
<clus scale="  462.273">  4  5 -1 -1</clus>
<clus scale="  300.000">  1  4  2 -1</clus>
</clustering>
</event>
<event>
 6    1  0.9462926E-012  0.3000000E+03  0.7818608E-02  0.1093470E+00
          1   -1    0    0  502    0  0.00000000000E+00  0.00000000000E+00  0.24180413725E+03  0.24180413725E+03  0.00000000000E+00 0.  1.
         13   -1    0    0    0    0 -0.00000000000E+00 -0.00000000000E+00 -0.27500000000E+03  0.27500000000E+03  0.00000000000E+00 0.  1.
    9000005    2    1    2  501    0 -0.26819102909E+02  0.35225627660E+02 -0.53622862453E+02  0.46804584112E+03  0.46285136803E+03 0.  0.
         13    1    3    3    0    0 -0.22756723836E+03 -0.62294391900E+02 -0.64507930864E+02  0.24459908500E+03  0.00000000000E+00 0.  1.
          3    1    3    3  501    0  0.20074813546E+03  0.97520019559E+02  0.10885068411E+02  0.22344675611E+03  0.00000000000E+00 0.  1.
         21    1    1    2  502  501  0.26819102909E+02 -0.35225627660E+02  0.20426999700E+02  0.48758296131E+02  0.00000000000E+00 0.  1.
<scales pt_clust_4="550.00000" pt_clust_5="550.00000" pt_clust_6="44.27312"></scales>
<mgrwt>
<rscale>  0 0.30000000E+03</rscale>
<asrwt>  1 0.44273120E+02</asrwt>
<pdfrwt beam="1">  1        1 0.87928777E+00 0.30000000E+03</pdfrwt>
<pdfrwt beam="2">0</pdfrwt>
<totfact> 0.19288008E-04</totfact>
</mgrwt>
<clustering>
<clus scale="   44.273">  1  6  2 -1</clus>
<clus scale="  462.851">  4  5 -1 -1</clus>
<clus scale="  300.000">  1  4  2 -1</clus>
</clustering>
</event>
<event>
 6    1  0.9462926E-012  0.3000000E+03  0.7818608E-02  0.1093470E+00
          1   -1    0    0  502    0  0.00000000000E+00  0.00000000000E+00  0.24479049832E+03  0.24479049832E+03  0.00000000000E+00 0.  1.
         13   -1    0    0    0    0 -0.00000000000E+00 -0.00000000000E+00 -0.27500000000E+03  0.27500000000E+03  0.00000000000E+00 0.  1.
    9000005    2    1    2  501    0 -0.14235031326E+02 -0.34579053157E+02 -0.24685425667E+02  0.48199020137E+03  0.47990294533E+03 0.  0.
         13    1    3    3    0    0  0.15874688949E+03 -0.17825823769E+03  0.52201570214E+02  0.24433906392E+03  0.00000000000E+00 0.  1.
          1    1    3    3  501    0 -0.17298192081E+03  0.14367918453E+03 -0.76886995881E+02  0.23765113745E+03  0.00000000000E+00 0.  1.
         21    1    1    2  502  501  0.14235031326E+02  0.34579053157E+02 -0.55240760095E+01  0.37800296954E+02  0.00000000000E+00 0. -1.
<scales pt_clust_4="550.00000" pt_clust_5="550.00000" pt_clust_6="37.39450"></scales>
<mgrwt>
<rscale>  0 0.30000000E+03</rscale>
<asrwt>  1 0.37394497E+02</asrwt>
<pdfrwt beam="1">  1        1 0.89014727E+00 0.30000000E+03</pdfrwt>
<pdfrwt beam="2">0</pdfrwt>
<totfact> 0.14254022E-04</totfact>
</mgrwt>
<clustering>
<clus scale="   37.394">  1  6  2 -1</clus>
<clus scale="  479.903">  4  5 -1 -1</clus>
<clus scale="  300.000">  1  4  2 -1</clus>
</clustering>
</event>
<event>
 6    1  0.9462926E-012  0.3000000E+03  0.7818608E-02  0.1093470E+00
          1   -1    0    0  502    0  0.00000000000E+00  0.00000000000E+00  0.24190486400E+03  0.24190486400E+03  0.00000000000E+00 0.  1.
         13   -1    0    0    0    0 -0.00000000000E+00 -0.00000000000E+00 -0.27500000000E+03  0.27500000000E+03  0.00000000000E+00 0.  1.
    9000005    2    1    2  501    0 -0.41958560582E+02  0.22251915863E+01 -0.59282519321E+02  0.46739475060E+03  0.46171199195E+03 0.  0.
         13    1    3    3    0    0 -0.91147872594E+02 -0.16385030022E+02 -0.25155445889E+03  0.26805978750E+03  0.00000000000E+00 0.  1.
          3    1    3    3  501    0  0.49189312012E+02  0.18610221609E+02  0.19227193957E+03  0.19933496309E+03  0.00000000000E+00 0.  1.
         21    1    1    2  502  501  0.41958560582E+02 -0.22251915863E+01  0.26187383321E+02  0.49510113400E+02  0.00000000000E+00 0. -1.
<scales pt_clust_4="550.00000" pt_clust_5="550.00000" pt_clust_6="42.01752"></scales>
<mgrwt>
<rscale>  0 0.30000000E+03</rscale>
<asrwt>  1 0.42017524E+02</asrwt>
<pdfrwt beam="1">  1        1 0.87965405E+00 0.30000000E+03</pdfrwt>
<pdfrwt beam="2">0</pdfrwt>
<totfact> 0.19272601E-04</totfact>
</mgrwt>
<clustering>
<clus scale="   42.018">  1  6  2 -1</clus>
<clus scale="  461.712">  4  5 -1 -1</clus>
<clus scale="  300.000">  1  4  2 -1</clus>
</clustering>
</event>
<event>
 6    1  0.9462926E-012  0.3000000E+03  0.7818608E-02  0.1093470E+00
          1   -1    0    0  502    0  0.00000000000E+00  0.00000000000E+00  0.22507849198E+03  0.22507849198E+03  0.00000000000E+00 0.  1.
         13   -1    0    0    0    0 -0.00000000000E+00 -0.00000000000E+00 -0.27500000000E+03  0.27500000000E+03  0.00000000000E+00 0.  1.
    9000005    2    1    2  501    0  0.64763327128E+01 -0.32757171094E+02 -0.56183917038E+02  0.46610507722E+03  0.46150009245E+03 0.  0.
         13    1    3    3    0    0  0.40223894047E+02  0.18622975168E+03 -0.13215394758E+03  0.23187097257E+03  0.00000000000E+00 0.  1.
          1    1    3    3  501    0 -0.33747561334E+02 -0.21898692277E+03  0.75970030539E+02  0.23423410465E+03  0.00000000000E+00 0.  1.
         21    1    1    2  502  501 -0.64763327128E+01  0.32757171094E+02  0.62624090152E+01  0.33973414755E+02  0.00000000000E+00 0.  1.
<scales pt_clust_4="550.00000" pt_clust_5="550.00000" pt_clust_6="33.39124"></scales>
<mgrwt>
<rscale>  0 0.30000000E+03</rscale>
<asrwt>  1 0.33391244E+02</asrwt>
<pdfrwt beam="1">  1        1 0.81846724E+00 0.30000000E+03</pdfrwt>
<pdfrwt beam="2">0</pdfrwt>
<totfact> 0.75207183E-04</totfact>
</mgrwt>
<clustering>
<clus scale="   33.391">  1  6  2 -1</clus>
<clus scale="  461.500">  4  5 -1 -1</clus>
<clus scale="  300.000">  1  4  2 -1</clus>
</clustering>
</event>
<event>
 6    1  0.9462926E-012  0.3000000E+03  0.7818608E-02  0.1093470E+00
          1   -1    0    0  502    0  0.00000000000E+00  0.00000000000E+00  0.22160163452E+03  0.22160163452E+03  0.00000000000E+00 0.  1.
         13   -1    0    0    0    0 -0.00000000000E+00 -0.00000000000E+00 -0.27500000000E+03  0.27500000000E+03  0.00000000000E+00 0.  1.
    9000005    2    1    2  501    0 -0.27726402789E+02  0.20832113666E+02 -0.53771855551E+02  0.46191922015E+03  0.45746608959E+03 0.  0.
         13    1    3    3    0    0  0.17755868976E+02  0.21387987200E+03  0.72814864072E+02  0.22663158421E+03  0.00000000000E+00 0.  1.
          3    1    3    3  501    0 -0.45482271765E+02 -0.19304775834E+03 -0.12658671962E+03  0.23528763595E+03  0.00000000000E+00 0.  1.
         21    1    1    2  502  501  0.27726402789E+02 -0.20832113666E+02  0.37349007099E+00  0.34682414366E+02  0.00000000000E+00 0.  1.
<scales pt_clust_4="550.00000" pt_clust_5="550.00000" pt_clust_6="34.68040"></scales>
<mgrwt>
<rscale>  0 0.30000000E+03</rscale>
<asrwt>  1 0.34680403E+02</asrwt>
<pdfrwt beam="1">  1        1 0.80582413E+00 0.30000000E+03</pdfrwt>
<pdfrwt beam="2">0</pdfrwt>
<totfact> 0.94089364E-04</totfact>
</mgrwt>
<clustering>
<clus scale="   34.680">  1  6  2 -1</clus>
<clus scale="  457.466">  4  5 -1 -1</clus>
<clus scale="  300.000">  1  4  2 -1</clus>
</clustering>
</event>
<event>
 6    1  0.9462926E-012  0.3000000E+03  0.7818608E-02  0.1093470E+00
          1   -1    0    0  502    0  0.00000000000E+00  0.00000000000E+00  0.24684876123E+03  0.24684876123E+03  0.00000000000E+00 0.  1.
         13   -1    0    0    0    0 -0.00000000000E+00 -0.00000000000E+00 -0.27500000000E+03  0.27500000000E+03  0.00000000000E+00 0.  1.
    9000005    2    1    2  501    0 -0.10730073014E+02 -0.29385949477E+02 -0.64263574481E+02  0.47407042635E+03  0.46865156955E+03 0.  0.
         13    1    3    3    0    0  0.20624387052E+03 -0.95236745084E+02 -0.93079308014E+02  0.24550016155E+03  0.00000000000E+00 0.  1.
          3    1    3    3  501    0 -0.21697394353E+03  0.65850795606E+02  0.28815733533E+02  0.22857026480E+03  0.00000000000E+00 0.  1.
         21    1    1    2  502  501  0.10730073014E+02  0.29385949477E+02  0.36112335714E+02  0.47778334884E+02  0.00000000000E+00 0.  1.
<scales pt_clust_4="550.00000" pt_clust_5="550.00000" pt_clust_6="31.28368"></scales>
<mgrwt>
<rscale>  0 0.30000000E+03</rscale>
<asrwt>  1 0.31283678E+02</asrwt>
<pdfrwt beam="1">  1        1 0.89763186E+00 0.30000000E+03</pdfrwt>
<pdfrwt beam="2">0</pdfrwt>
<totfact> 0.12034811E-04</totfact>
</mgrwt>
<clustering>
<clus scale="   31.284">  1  6  2 -1</clus>
<clus scale="  468.652">  4  5 -1 -1</clus>
<clus scale="  300.000">  1  4  2 -1</clus>
</clustering>
</event>
<event>
 6    1  0.9462926E-012  0.3000000E+03  0.7818608E-02  0.1093470E+00
          1   -1    0    0  502    0  0.00000000000E+00  0.00000000000E+00  0.25238405995E+03  0.25238405995E+03  0.00000000000E+00 0.  1.
         13   -1    0    0    0    0 -0.00000000000E+00 -0.00000000000E+00 -0.27500000000E+03  0.27500000000E+03  0.00000000000E+00 0.  1.
    9000005    2    1    2  501    0 -0.68283394650E+01  0.29673144423E+02 -0.40641303893E+02  0.49199994683E+03  0.48937215938E+03 0.  0.
         13    1    3    3    0    0 -0.13210228884E+03  0.20269683046E+02  0.18826899611E+03  0.23088328147E+03  0.00000000000E+00 0.  1.
          1    1    3    3  501    0  0.12527394938E+03  0.94034613775E+01 -0.22891030000E+03  0.26111666535E+03  0.00000000000E+00 0.  1.
         21    1    1    2  502  501  0.68283394650E+01 -0.29673144423E+02  0.18025363841E+02  0.35384113122E+02  0.00000000000E+00 0.  1.
<scales pt_clust_4="550.00000" pt_clust_5="550.00000" pt_clust_6="30.44867"></scales>
<mgrwt>
<rscale>  0 0.30000000E+03</rscale>
<asrwt>  1 0.30448674E+02</asrwt>
<pdfrwt beam="1">  1        1 0.91776022E+00 0.30000000E+03</pdfrwt>
<pdfrwt beam="2">0</pdfrwt>
<totfact> 0.48087735E-05</totfact>
</mgrwt>
<clustering>
<clus scale="   30.449">  1  6  2 -1</clus>
<clus scale="  489.372">  4  5 -1 -1</clus>
<clus scale="  300.000">  1  4  2 -1</clus>
</clustering>
</event>
<event>
 6    1  0.9462926E-012  0.3000000E+03  0.7818608E-02  0.1093470E+00
          1   -1    0    0  502    0  0.00000000000E+00  0.00000000000E+00  0.25298475206E+03  0.25298475206E+03  0.00000000000E+00 0.  1.
         13   -1    0    0    0    0 -0.00000000000E+00 -0.00000000000E+00 -0.27500000000E+03  0.27500000000E+03  0.00000000000E+00 0.  1.
    9000005    2    1    2  501    0 -0.13855608481E+02 -0.47812923185E+02 -0.46629210362E+02  0.47245187301E+03  0.46750233747E+03 0.  0.
         13    1    3    3    0    0 -0.34593250972E+02  0.12091150786E+03 -0.20474914148E+03  0.24028836152E+03  0.00000000000E+00 0.  1.
          1    1    3    3  501    0  0.20737642491E+02 -0.16872443104E+03  0.15811993112E+03  0.23216351148E+03  0.00000000000E+00 0.  1.
         21    1    1    2  502  501  0.13855608481E+02  0.47812923185E+02  0.24613962424E+02  0.55532879054E+02  0.00000000000E+00 0.  1.
<scales pt_clust_4="550.00000" pt_clust_5="550.00000" pt_clust_6="49.78005"></scales>
<mgrwt>
<rscale>  0 0.30000000E+03</rscale>
<asrwt>  1 0.49780051E+02</asrwt>
<pdfrwt beam="1">  1        1 0.91994455E+00 0.30000000E+03</pdfrwt>
<pdfrwt beam="2">0</pdfrwt>
<totfact> 0.39325129E-05</totfact>
</mgrwt>
<clustering>
<clus scale="   49.780">  1  6  2 -1</clus>
<clus scale="  467.502">  4  5 -1 -1</clus>
<clus scale="  300.000">  1  4  2 -1</clus>
</clustering>
</event>
<event>
 6    1  0.9462926E-012  0.3000000E+03  0.7818608E-02  0.1093470E+00
          1   -1    0    0  502    0  0.00000000000E+00  0.00000000000E+00  0.22675156325E+03  0.22675156325E+03  0.00000000000E+00 0.  1.
         13   -1    0    0    0    0 -0.00000000000E+00 -0.00000000000E+00 -0.27500000000E+03  0.27500000000E+03  0.00000000000E+00 0.  1.
    9000005    2    1    2  501    0 -0.42503098522E+01 -0.30634858406E+02 -0.44467819127E+02  0.47059305313E+03  0.46746537308E+03 0.  0.
         13    1    3    3    0    0  0.15017987871E+03  0.13723693807E+03 -0.11261621966E+03  0.23253039817E+03  0.00000000000E+00 0.  1.
          3    1    3    3  501    0 -0.15443018856E+03 -0.16787179648E+03  0.68148400533E+02  0.23806265496E+03  0.00000000000E+00 0.  1.
         21    1    1    2  502  501  0.42503098522E+01  0.30634858406E+02 -0.37806176246E+01  0.31158510122E+02  0.00000000000E+00 0.  1.
<scales pt_clust_4="550.00000" pt_clust_5="550.00000" pt_clust_6="30.92831"></scales>
<mgrwt>
<rscale>  0 0.30000000E+03</rscale>
<asrwt>  1 0.30928315E+02</asrwt>
<pdfrwt beam="1">  1        1 0.82455114E+00 0.30000000E+03</pdfrwt>
<pdfrwt beam="2">0</pdfrwt>
<totfact> 0.67483771E-04</totfact>
</mgrwt>
<clustering>
<clus scale="   30.928">  1  6  2 -1</clus>
<clus scale="  467.465">  4  5 -1 -1</clus>
<clus scale="  300.000">  1  4  2 -1</clus>
</clustering>
</event>
<event>
 6    1  0.9462926E-012  0.3000000E+03  0.7818608E-02  0.1093470E+00
          1   -1    0    0  502    0  0.00000000000E+00  0.00000000000E+00  0.22195602303E+03  0.22195602303E+03  0.00000000000E+00 0.  1.
         13   -1    0    0    0    0 -0.00000000000E+00 -0.00000000000E+00 -0.27500000000E+03  0.27500000000E+03  0.00000000000E+00 0.  1.
    9000005    2    1    2  501    0  0.25064836658E+02 -0.22032524701E+02 -0.61317357082E+02  0.46257394922E+03  0.45727580521E+03 0.  0.
         13    1    3    3    0    0  0.91044825475E+01 -0.18413289578E+03  0.11911873504E+03  0.21949279703E+03  0.00000000000E+00 0.  1.
          1    1    3    3  501    0  0.15960354110E+02  0.16210037108E+03 -0.18043609212E+03  0.24308115218E+03  0.00000000000E+00 0.  1.
         21    1    1    2  502  501 -0.25064836658E+02  0.22032524701E+02  0.82733801133E+01  0.34382073816E+02  0.00000000000E+00 0.  1.
<scales pt_clust_4="550.00000" pt_clust_5="550.00000" pt_clust_6="33.37182"></scales>
<mgrwt>
<rscale>  0 0.30000000E+03</rscale>
<asrwt>  1 0.33371817E+02</asrwt>
<pdfrwt beam="1">  1        1 0.80711281E+00 0.30000000E+03</pdfrwt>
<pdfrwt beam="2">0</pdfrwt>
<totfact> 0.92642803E-04</totfact>
</mgrwt>
<clustering>
<clus scale="   33.372">  1  6  2 -1</clus>
<clus scale="  457.276">  4  5 -1 -1</clus>
<clus scale="  300.000">  1  4  2 -1</clus>
</clustering>
</event>
<event>
 6    1  0.9462926E-012  0.3000000E+03  0.7818608E-02  0.1093470E+00
          1   -1    0    0  502    0  0.00000000000E+00  0.00000000000E+00  0.23938514096E+03  0.23938514096E+03  0.00000000000E+00 0.  1.
         13   -1    0    0    0    0 -0.00000000000E+00 -0.00000000000E+00 -0.27500000000E+03  0.27500000000E+03  0.00000000000E+00 0.  1.
    9000005    2    1    2  501    0 -0.64656927704E+01  0.31005938113E+02 -0.55192512151E+02  0.47714997099E+03  0.47288762729E+03 0.  0.
         13    1    3    3    0    0 -0.30221322993E+02  0.12406835824E+03  0.18138099482E+03  0.22182279225E+03  0.00000000000E+00 0.  1.
          1    1    3    3  501    0  0.23755630223E+02 -0.93062420129E+02 -0.23657350697E+03  0.25532717874E+03  0.00000000000E+00 0.  1.
         21    1    1    2  502  501  0.64656927704E+01 -0.31005938113E+02  0.19577653113E+02  0.37235169970E+02  0.00000000000E+00 0.  1.
<scales pt_clust_4="550.00000" pt_clust_5="550.00000" pt_clust_6="31.67291"></scales>
<mgrwt>
<rscale>  0 0.30000000E+03</rscale>
<asrwt>  1 0.31672912E+02</asrwt>
<pdfrwt beam="1">  1        1 0.87049142E+00 0.30000000E+03</pdfrwt>
<pdfrwt beam="2">0</pdfrwt>
<totfact> 0.25510489E-04</totfact>
</mgrwt>
<clustering>
<clus scale="   31.673">  1  6  2 -1</clus>
<clus scale="  472.888">  4  5 -1 -1</clus>
<clus scale="  300.000">  1  4  2 -1</clus>
</clustering>
</event>
<event>
 6    1  0.9462926E-012  0.3000000E+03  0.7818608E-02  0.1093470E+00
          1   -1    0    0  502    0  0.00000000000E+00  0.00000000000E+00  0.24064609678E+03  0.24064609678E+03  0.00000000000E+00 0.  1.
         13   -1    0    0    0    0 -0.00000000000E+00 -0.00000000000E+00 -0.27500000000E+03  0.27500000000E+03  0.00000000000E+00 0.  1.
    9000005    2    1    2  501    0 -0.21986413118E+02 -0.23475104124E+02 -0.52722005384E+02  0.47860733259E+03  0.47460603250E+03 0.  0.
         13    1    3    3    0    0 -0.90023167620E+01  0.38133535040E+02 -0.25950759186E+03  0.26244884918E+03  0.00000000000E+00 0.  1.
          3    1    3    3  501    0 -0.12984096356E+02 -0.61608639164E+02  0.20678558647E+03  0.21615848341E+03  0.00000000000E+00 0.  1.
         21    1    1    2  502  501  0.21986413118E+02  0.23475104124E+02  0.18368102161E+02  0.37038764186E+02  0.00000000000E+00 0. -1.
<scales pt_clust_4="550.00000" pt_clust_5="550.00000" pt_clust_6="32.16338"></scales>
<mgrwt>
<rscale>  0 0.30000000E+03</rscale>
<asrwt>  1 0.32163378E+02</asrwt>
<pdfrwt beam="1">  1        1 0.87507672E+00 0.30000000E+03</pdfrwt>
<pdfrwt beam="2">0</pdfrwt>
<totfact> 0.22811237E-04</totfact>
</mgrwt>
<clustering>
<clus scale="   32.163">  1  6  2 -1</clus>
<clus scale="  474.606">  4  5 -1 -1</clus>
<clus scale="  300.000">  1  4  2 -1</clus>
</clustering>
</event>
<event>
 6    1  0.9462926E-012  0.3000000E+03  0.7818608E-02  0.1093470E+00
          1   -1    0    0  502    0  0.00000000000E+00  0.00000000000E+00  0.22692346628E+03  0.22692346628E+03  0.00000000000E+00 0.  1.
         13   -1    0    0    0    0 -0.00000000000E+00 -0.00000000000E+00 -0.27500000000E+03  0.27500000000E+03  0.00000000000E+00 0.  1.
    9000005    2    1    2  501    0 -0.31550715717E+02  0.10477232448E+02 -0.57642432668E+02  0.46732973152E+03  0.46256805754E+03 0.  0.
         13    1    3    3    0    0 -0.51165767171E+02  0.17177187998E+03  0.12828445989E+03  0.22040965752E+03  0.00000000000E+00 0.  1.
          3    1    3    3  501    0  0.19615051455E+02 -0.16129464753E+03 -0.18592689256E+03  0.24692007399E+03  0.00000000000E+00 0.  1.
         21    1    1    2  502  501  0.31550715717E+02 -0.10477232448E+02  0.95658989469E+01  0.34593734760E+02  0.00000000000E+00 0. -1.
<scales pt_clust_4="550.00000" pt_clust_5="550.00000" pt_clust_6="33.24485"></scales>
<mgrwt>
<rscale>  0 0.30000000E+03</rscale>
<asrwt>  1 0.33244850E+02</asrwt>
<pdfrwt beam="1">  1        1 0.82517624E+00 0.30000000E+03</pdfrwt>
<pdfrwt beam="2">0</pdfrwt>
<totfact> 0.65713367E-04</totfact>
</mgrwt>
<clustering>
<clus scale="   33.245">  1  6  2 -1</clus>
<clus scale="  462.568">  4  5 -1 -1</clus>
<clus scale="  300.000">  1  4  2 -1</clus>
</clustering>
</event>
<event>
 6    1  0.9462926E-012  0.3000000E+03  0.7818608E-02  0.1093470E+00
          1   -1    0    0  502    0  0.00000000000E+00  0.00000000000E+00  0.22780380077E+03  0.22780380077E+03  0.00000000000E+00 0.  1.
         13   -1    0    0    0    0 -0.00000000000E+00 -0.00000000000E+00 -0.27500000000E+03  0.27500000000E+03  0.00000000000E+00 0.  1.
    9000005    2    1    2  501    0 -0.25865803064E+02 -0.18387005222E+02 -0.69703518045E+02  0.46389748856E+03  0.45753161392E+03 0.  0.
         13    1    3    3    0    0  0.61415034865E+02  0.19604949025E+03  0.37374438605E+02  0.20881584661E+03  0.00000000000E+00 0.  1.
          1    1    3    3  501    0 -0.87280837930E+02 -0.21443649547E+03 -0.10707795665E+03  0.25508164195E+03  0.00000000000E+00 0.  1.
         21    1    1    2  502  501  0.25865803064E+02  0.18387005222E+02  0.22507318811E+02  0.38906312203E+02  0.00000000000E+00 0.  1.
<scales pt_clust_4="550.00000" pt_clust_5="550.00000" pt_clust_6="31.73518"></scales>
<mgrwt>
<rscale>  0 0.30000000E+03</rscale>
<asrwt>  1 0.31735181E+02</asrwt>
<pdfrwt beam="1">  1        1 0.82837746E+00 0.30000000E+03</pdfrwt>
<pdfrwt beam="2">0</pdfrwt>
<totfact> 0.62132959E-04</totfact>
</mgrwt>
<clustering>
<clus scale="   31.735">  1  6  2 -1</clus>
<clus scale="  457.532">  4  5 -1 -1</clus>
<clus scale="  300.000">  1  4  2 -1</clus>
</clustering>
</event>
<event>
 6    1  0.9462926E-012  0.3000000E+03  0.7818608E-02  0.1093470E+00
          1   -1    0    0  502    0  0.00000000000E+00  0.00000000000E+00  0.24624996861E+03  0.24624996861E+03  0.00000000000E+00 0.  1.
         13   -1    0    0    0    0 -0.00000000000E+00 -0.00000000000E+00 -0.27500000000E+03  0.27500000000E+03  0.00000000000E+00 0.  1.
    9000005    2    1    2  501    0 -0.19216238970E+02 -0.40073728393E+02 -0.42024941953E+02  0.47486688120E+03  0.47091112916E+03 0.  0.
         13    1    3    3    0    0 -0.18003062204E+03 -0.14545533259E+03  0.82596299446E+02  0.24574463847E+03  0.00000000000E+00 0.  1.
          3    1    3    3  501    0  0.16081438307E+03  0.10538160420E+03 -0.12462124140E+03  0.22912224273E+03  0.00000000000E+00 0.  1.
         21    1    1    2  502  501  0.19216238970E+02  0.40073728393E+02  0.13274910567E+02  0.46383087414E+02  0.00000000000E+00 0.  1.
<scales pt_clust_4="550.00000" pt_clust_5="550.00000" pt_clust_6="44.44286"></scales>
<mgrwt>
<rscale>  0 0.30000000E+03</rscale>
<asrwt>  1 0.44442857E+02</asrwt>
<pdfrwt beam="1">  1        1 0.89545443E+00 0.30000000E+03</pdfrwt>
<pdfrwt beam="2">0</pdfrwt>
<totfact> 0.11929506E-04</totfact>
</mgrwt>
<clustering>
<clus scale="   44.443">  1  6  2 -1</clus>
<clus scale="  470.911">  4  5 -1 -1</clus>
<clus scale="  300.000">  1  4  2 -1</clus>
</clustering>
</event>
<event>
 6    1  0.9462926E-012  0.3000000E+03  0.7818608E-02  0.1093470E+00
          1   -1    0    0  502    0  0.00000000000E+00  0.00000000000E+00  0.26612495997E+03  0.26612495997E+03  0.00000000000E+00 0.  1.
         13   -1    0    0    0    0 -0.00000000000E+00 -0.00000000000E+00 -0.27500000000E+03  0.27500000000E+03  0.00000000000E+00 0.  1.
    9000005    2    1    2  501    0  0.25106175100E+02 -0.19079596906E+02 -0.61755821784E+01  0.50947629303E+03  0.50846199888E+03 0.  0.
         13    1    3    3    0    0 -0.13718969690E+03  0.19506695986E+03 -0.26841561301E+02  0.23998458530E+03  0.00000000000E+00 0.  1.
          3    1    3    3  501    0  0.16229587200E+03 -0.21414655677E+03  0.20665979123E+02  0.26949170774E+03  0.00000000000E+00 0.  1.
         21    1    1    2  502  501 -0.25106175100E+02  0.19079596906E+02 -0.26994578518E+01  0.31648666938E+02  0.00000000000E+00 0.  1.
<scales pt_clust_4="550.00000" pt_clust_5="550.00000" pt_clust_6="31.53335"></scales>
<mgrwt>
<rscale>  0 0.30000000E+03</rscale>
<asrwt>  1 0.31533348E+02</asrwt>
<pdfrwt beam="1">  1        1 0.96772713E+00 0.30000000E+03</pdfrwt>
<pdfrwt beam="2">0</pdfrwt>
<totfact> 0.54587409E-06</totfact>
</mgrwt>
<clustering>
<clus scale="   31.533">  1  6  2 -1</clus>
<clus scale="  508.462">  4  5 -1 -1</clus>
<clus scale="  300.000">  1  4  2 -1</clus>
</clustering>
</event>
<event>
 6    1  0.9462926E-012  0.3000000E+03  0.7818608E-02  0.1093470E+00
          1   -1    0    0  502    0  0.00000000000E+00  0.00000000000E+00  0.22369637980E+03  0.22369637980E+03  0.00000000000E+00 0.  1.
         13   -1    0    0    0    0 -0.00000000000E+00 -0.00000000000E+00 -0.27500000000E+03  0.27500000000E+03  0.00000000000E+00 0.  1.
    9000005    2    1    2  501    0 -0.13557904837E+01 -0.32304733505E+02 -0.64513826546E+02  0.46376868984E+03  0.45811999507E+03 0.  0.
         13    1    3    3    0    0 -0.20781589892E+03  0.73899384229E+02  0.74710344307E+01  0.22069069575E+03  0.00000000000E+00 0.  1.
          3    1    3    3  501    0  0.20646010844E+03 -0.10620411773E+03 -0.71984860977E+02  0.24307799409E+03  0.00000000000E+00 0.  1.
         21    1    1    2  502  501  0.13557904837E+01  0.32304733505E+02  0.13210206351E+02  0.34927689968E+02  0.00000000000E+00 0. -1.
<scales pt_clust_4="550.00000" pt_clust_5="550.00000" pt_clust_6="32.33317"></scales>
<mgrwt>
<rscale>  0 0.30000000E+03</rscale>
<asrwt>  1 0.32333171E+02</asrwt>
<pdfrwt beam="1">  1        1 0.81344138E+00 0.30000000E+03</pdfrwt>
<pdfrwt beam="2">0</pdfrwt>
<totfact> 0.83164559E-04</totfact>
</mgrwt>
<clustering>
<clus scale="   32.333">  1  6  2 -1</clus>
<clus scale="  458.120">  4  5 -1 -1</clus>
<clus scale="  300.000">  1  4  2 -1</clus>
</clustering>
</event>
<event>
 6    1  0.9462926E-012  0.3000000E+03  0.7818608E-02  0.1093470E+00
          1   -1    0    0  502    0  0.00000000000E+00  0.00000000000E+00  0.23275373782E+03  0.23275373782E+03  0.00000000000E+00 0.  1.
         13   -1    0    0    0    0 -0.00000000000E+00 -0.00000000000E+00 -0.27500000000E+03  0.27500000000E+03  0.00000000000E+00 0.  1.
    9000005    2    1    2  501    0 -0.19638907013E+02  0.24924584663E+02 -0.55739807270E+02  0.47327189697E+03  0.46890557766E+03 0.  0.
         13    1    3    3    0    0  0.20193853927E+03 -0.30253821429E+02 -0.11898570720E+03  0.23633041673E+03  0.00000000000E+00 0.  1.
          3    1    3    3  501    0 -0.22157744628E+03  0.55178406092E+02  0.63245899929E+02  0.23694148024E+03  0.00000000000E+00 0.  1.
         21    1    1    2  502  501  0.19638907013E+02 -0.24924584663E+02  0.13493545088E+02  0.34481840849E+02  0.00000000000E+00 0.  1.
<scales pt_clust_4="550.00000" pt_clust_5="550.00000" pt_clust_6="31.73203"></scales>
<mgrwt>
<rscale>  0 0.30000000E+03</rscale>
<asrwt>  1 0.31732028E+02</asrwt>
<pdfrwt beam="1">  1        1 0.84637723E+00 0.30000000E+03</pdfrwt>
<pdfrwt beam="2">0</pdfrwt>
<totfact> 0.44754053E-04</totfact>
</mgrwt>
<clustering>
<clus scale="   31.732">  1  6  2 -1</clus>
<clus scale="  468.906">  4  5 -1 -1</clus>
<clus scale="  300.000">  1  4  2 -1</clus>
</clustering>
</event>
<event>
 6    1  0.9462926E-012  0.3000000E+03  0.7818608E-02  0.1093470E+00
          1   -1    0    0  502    0  0.00000000000E+00  0.00000000000E+00  0.23633043964E+03  0.23633043964E+03  0.00000000000E+00 0.  1.
         13   -1    0    0    0    0 -0.00000000000E+00 -0.00000000000E+00 -0.27500000000E+03  0.27500000000E+03  0.00000000000E+00 0.  1.
    9000005    2    1    2  501    0 -0.43557330126E+02 -0.43132739165E+01 -0.50643688216E+02  0.46595175437E+03  0.46111864948E+03 0.  0.
         13    1    3    3    0    0  0.16179087477E+03  0.43833743453E+02 -0.15706168639E+03  0.22970863622E+03  0.00000000000E+00 0.  1.
          1    1    3    3  501    0 -0.20534820490E+03 -0.48147017369E+02  0.10641799817E+03  0.23624311814E+03  0.00000000000E+00 0.  1.
         21    1    1    2  502  501  0.43557330126E+02  0.43132739165E+01  0.11974127860E+02  0.45378685278E+02  0.00000000000E+00 0.  1.
<scales pt_clust_4="550.00000" pt_clust_5="550.00000" pt_clust_6="43.77037"></scales>
<mgrwt>
<rscale>  0 0.30000000E+03</rscale>
<asrwt>  1 0.43770371E+02</asrwt>
<pdfrwt beam="1">  1        1 0.85938342E+00 0.30000000E+03</pdfrwt>
<pdfrwt beam="2">0</pdfrwt>
<totfact> 0.31520324E-04</totfact>
</mgrwt>
<clustering>
<clus scale="   43.770">  1  6  2 -1</clus>
<clus scale="  461.119">  4  5 -1 -1</clus>
<clus scale="  300.000">  1  4  2 -1</clus>
</clustering>
</event>
<event>
 6    1  0.9462926E-012  0.3000000E+03  0.7818608E-02  0.1093470E+00
          1   -1    0    0  502    0  0.00000000000E+00  0.00000000000E+00  0.22756762643E+03  0.22756762643E+03  0.00000000000E+00 0.  1.
         13   -1    0    0    0    0 -0.00000000000E+00 -0.00000000000E+00 -0.27500000000E+03  0.27500000000E+03  0.00000000000E+00 0.  1.
    9000005    2    1    2  501    0  0.11252850459E+02  0.28287375522E+02 -0.56905624762E+02  0.47068432758E+03  0.46623886994E+03 0.  0.
         13    1    3    3    0    0 -0.17367811602E+03  0.95307002620E+00 -0.17740825918E+03  0.24827139737E+03  0.00000000000E+00 0.  1.
          3    1    3    3  501    0  0.18493096648E+03  0.27334305495E+02  0.12050263442E+03  0.22241293021E+03  0.00000000000E+00 0.  1.
         21    1    1    2  502  501 -0.11252850459E+02 -0.28287375522E+02  0.94732511899E+01  0.31883298848E+02  0.00000000000E+00 0.  1.
<scales pt_clust_4="550.00000" pt_clust_5="550.00000" pt_clust_6="30.44343"></scales>
<mgrwt>
<rscale>  0 0.30000000E+03</rscale>
<asrwt>  1 0.30443427E+02</asrwt>
<pdfrwt beam="1">  1        1 0.82751864E+00 0.30000000E+03</pdfrwt>
<pdfrwt beam="2">0</pdfrwt>
<totfact> 0.63711736E-04</totfact>
</mgrwt>
<clustering>
<clus scale="   30.443">  1  6  2 -1</clus>
<clus scale="  466.239">  4  5 -1 -1</clus>
<clus scale="  300.000">  1  4  2 -1</clus>
</clustering>
</event>
<event>
 6    1  0.9462926E-012  0.3000000E+03  0.7818608E-02  0.1093470E+00
          1   -1    0    0  502    0  0.00000000000E+00  0.00000000000E+00  0.23633270091E+03  0.23633270091E+03  0.00000000000E+00 0.  1.
         13   -1    0    0    0    0 -0.00000000000E+00 -0.00000000000E+00 -0.27500000000E+03  0.27500000000E+03  0.00000000000E+00 0.  1.
    9000005    2    1    2  501    0 -0.12577812144E+01 -0.33148664654E+02 -0.27284723285E+02  0.47626164427E+03  0.47432086365E+03 0.  0.
         13    1    3    3    0    0 -0.68929240482E+02  0.18531158997E+03 -0.11797129862E+03  0.23023651507E+03  0.00000000000E+00 0.  1.
          3    1    3    3  501    0  0.67671459267E+02 -0.21846025463E+03  0.90686575334E+02  0.24602512920E+03  0.00000000000E+00 0.  1.
         21    1    1    2  502  501  0.12577812144E+01  0.33148664654E+02 -0.11382575807E+02  0.35071056641E+02  0.00000000000E+00 0. -1.
<scales pt_clust_4="550.00000" pt_clust_5="550.00000" pt_clust_6="33.17254"></scales>
<mgrwt>
<rscale>  0 0.30000000E+03</rscale>
<asrwt>  1 0.33172535E+02</asrwt>
<pdfrwt beam="1">  1        1 0.85939164E+00 0.30000000E+03</pdfrwt>
<pdfrwt beam="2">0</pdfrwt>
<totfact> 0.33164598E-04</totfact>
</mgrwt>
<clustering>
<clus scale="   33.173">  1  6  2 -1</clus>
<clus scale="  474.321">  4  5 -1 -1</clus>
<clus scale="  300.000">  1  4  2 -1</clus>
</clustering>
</event>
<event>
 6    1  0.9462926E-012  0.3000000E+03  0.7818608E-02  0.1093470E+00
          1   -1    0    0  502    0  0.00000000000E+00  0.00000000000E+00  0.24252118210E+03  0.24252118210E+03  0.00000000000E+00 0.  1.
         13   -1    0    0    0    0 -0.00000000000E+00 -0.00000000000E+00 -0.27500000000E+03  0.27500000000E+03  0.00000000000E+00 0.  1.
    9000005    2    1    2  501    0 -0.16607876454E+02 -0.30209648374E+02 -0.48105514801E+02  0.47967097641E+03  0.47600594601E+03 0.  0.
         13    1    3    3    0    0 -0.17463129605E+03  0.13394907054E+03  0.59053679188E+02  0.22787228898E+03  0.00000000000E+00 0.  1.
          3    1    3    3  501    0  0.15802341960E+03 -0.16415871891E+03 -0.10715919399E+03  0.25179868743E+03  0.00000000000E+00 0.  1.
         21    1    1    2  502  501  0.16607876454E+02  0.30209648374E+02  0.15626696904E+02  0.37850205697E+02  0.00000000000E+00 0. -1.
<scales pt_clust_4="550.00000" pt_clust_5="550.00000" pt_clust_6="34.47382"></scales>
<mgrwt>
<rscale>  0 0.30000000E+03</rscale>
<asrwt>  1 0.34473822E+02</asrwt>
<pdfrwt beam="1">  1        1 0.88189521E+00 0.30000000E+03</pdfrwt>
<pdfrwt beam="2">0</pdfrwt>
<totfact> 0.18729051E-04</totfact>
</mgrwt>
<clustering>
<clus scale="   34.474">  1  6  2 -1</clus>
<clus scale="  476.006">  4  5 -1 -1</clus>
<clus scale="  300.000">  1  4  2 -1</clus>
</clustering>
</event>
<event>
 6    1  0.9462926E-012  0.3000000E+03  0.7818608E-02  0.1093470E+00
          1   -1    0    0  502    0  0.00000000000E+00  0.00000000000E+00  0.23166312182E+03  0.23166312182E+03  0.00000000000E+00 0.  1.
         13   -1    0    0    0    0 -0.00000000000E+00 -0.00000000000E+00 -0.27500000000E+03  0.27500000000E+03  0.00000000000E+00 0.  1.
    9000005    2    1    2  501    0 -0.25216541319E+02  0.19733703556E+02 -0.58626157643E+02  0.47117995569E+03  0.46642065914E+03 0.  0.
         13    1    3    3    0    0  0.12573643525E+03  0.16951741524E+03  0.70344137145E+02  0.22247270136E+03  0.00000000000E+00 0.  1.
          3    1    3    3  501    0 -0.15095297657E+03 -0.14978371169E+03 -0.12897029479E+03  0.24870725433E+03  0.00000000000E+00 0.  1.
         21    1    1    2  502  501  0.25216541319E+02 -0.19733703556E+02  0.15289279465E+02  0.35483166131E+02  0.00000000000E+00 0. -1.
<scales pt_clust_4="550.00000" pt_clust_5="550.00000" pt_clust_6="32.02020"></scales>
<mgrwt>
<rscale>  0 0.30000000E+03</rscale>
<asrwt>  1 0.32020197E+02</asrwt>
<pdfrwt beam="1">  1        1 0.84241135E+00 0.30000000E+03</pdfrwt>
<pdfrwt beam="2">0</pdfrwt>
<totfact> 0.48345900E-04</totfact>
</mgrwt>
<clustering>
<clus scale="   32.020">  1  6  2 -1</clus>
<clus scale="  466.421">  4  5 -1 -1</clus>
<clus scale="  300.000">  1  4  2 -1</clus>
</clustering>
</event>
<event>
 6    1  0.9462926E-012  0.3000000E+03  0.7818608E-02  0.1093470E+00
          1   -1    0    0  502    0  0.00000000000E+00  0.00000000000E+00  0.24249337039E+03  0.24249337039E+03  0.00000000000E+00 0.  1.
         13   -1    0    0    0    0 -0.00000000000E+00 -0.00000000000E+00 -0.27500000000E+03  0.27500000000E+03  0.00000000000E+00 0.  1.
    9000005    2    1    2  501    0 -0.14954102326E+02 -0.33460039534E+02 -0.46675882607E+02  0.47820002296E+03  0.47450334511E+03 0.  0.
         13    1    3    3    0    0  0.14011302617E+03 -0.23235336705E+02  0.16365269606E+03  0.21668813051E+03  0.00000000000E+00 0.  1.
          3    1    3    3  501    0 -0.15506712850E+03 -0.10224702830E+02 -0.21032857867E+03  0.26151189245E+03  0.00000000000E+00 0.  1.
         21    1    1    2  502  501  0.14954102326E+02  0.33460039534E+02  0.14169253001E+02  0.39293347435E+02  0.00000000000E+00 0.  1.
<scales pt_clust_4="550.00000" pt_clust_5="550.00000" pt_clust_6="36.64969"></scales>
<mgrwt>
<rscale>  0 0.30000000E+03</rscale>
<asrwt>  1 0.36649685E+02</asrwt>
<pdfrwt beam="1">  1        1 0.88179407E+00 0.30000000E+03</pdfrwt>
<pdfrwt beam="2">0</pdfrwt>
<totfact> 0.18572488E-04</totfact>
</mgrwt>
<clustering>
<clus scale="   36.650">  1  6  2 -1</clus>
<clus scale="  474.503">  4  5 -1 -1</clus>
<clus scale="  300.000">  1  4  2 -1</clus>
</clustering>
</event>
<event>
 6    1  0.9462926E-012  0.3000000E+03  0.7818608E-02  0.1093470E+00
          1   -1    0    0  502    0  0.00000000000E+00  0.00000000000E+00  0.22322488970E+03  0.22322488970E+03  0.00000000000E+00 0.  1.
         13   -1    0    0    0    0 -0.00000000000E+00 -0.00000000000E+00 -0.27500000000E+03  0.27500000000E+03  0.00000000000E+00 0.  1.
    9000005    2    1    2  501    0  0.43672444388E+01 -0.31965953829E+02 -0.46878596442E+02  0.46559253036E+03  0.46210161923E+03 0.  0.
         13    1    3    3    0    0  0.47588093892E+02 -0.24032687202E+03 -0.60526025506E+02  0.25235893457E+03  0.00000000000E+00 0.  1.
          3    1    3    3  501    0 -0.43220849453E+02  0.20836091819E+03  0.13647429065E+02  0.21323359580E+03  0.00000000000E+00 0.  1.
         21    1    1    2  502  501 -0.43672444388E+01  0.31965953829E+02 -0.48965138540E+01  0.32632359340E+02  0.00000000000E+00 0.  1.
<scales pt_clust_4="550.00000" pt_clust_5="550.00000" pt_clust_6="32.26292"></scales>
<mgrwt>
<rscale>  0 0.30000000E+03</rscale>
<asrwt>  1 0.32262921E+02</asrwt>
<pdfrwt beam="1">  1        1 0.81172687E+00 0.30000000E+03</pdfrwt>
<pdfrwt beam="2">0</pdfrwt>
<totfact> 0.85845160E-04</totfact>
</mgrwt>
<clustering>
<clus scale="   32.263">  1  6  2 -1</clus>
<clus scale="  462.102">  4  5 -1 -1</clus>
<clus scale="  300.000">  1  4  2 -1</clus>
</clustering>
</event>
<event>
 6    1  0.9462926E-012  0.3000000E+03  0.7818608E-02  0.1093470E+00
          1   -1    0    0  502    0  0.00000000000E+00  0.00000000000E+00  0.22248616259E+03  0.22248616259E+03  0.00000000000E+00 0.  1.
         13   -1    0    0    0    0 -0.00000000000E+00 -0.00000000000E+00 -0.27500000000E+03  0.27500000000E+03  0.00000000000E+00 0.  1.
    9000005    2    1    2  501    0  0.11907892614E+02  0.32869597742E+02 -0.55910422826E+02  0.46236145398E+03  0.45763514986E+03 0.  0.
         13    1    3    3    0    0 -0.66659253953E+02 -0.12945056443E+02 -0.24408813674E+03  0.25335755193E+03  0.00000000000E+00 0.  1.
          1    1    3    3  501    0  0.78567146567E+02  0.45814654186E+02  0.18817771391E+03  0.20900390205E+03  0.00000000000E+00 0.  1.
         21    1    1    2  502  501 -0.11907892614E+02 -0.32869597742E+02  0.33965854152E+01  0.35124708607E+02  0.00000000000E+00 0.  1.
<scales pt_clust_4="550.00000" pt_clust_5="550.00000" pt_clust_6="34.96010"></scales>
<mgrwt>
<rscale>  0 0.30000000E+03</rscale>
<asrwt>  1 0.34960097E+02</asrwt>
<pdfrwt beam="1">  1        1 0.80904059E+00 0.30000000E+03</pdfrwt>
<pdfrwt beam="2">0</pdfrwt>
<totfact> 0.88744750E-04</totfact>
</mgrwt>
<clustering>
<clus scale="   34.960">  1  6  2 -1</clus>
<clus scale="  457.635">  4  5 -1 -1</clus>
<clus scale="  300.000">  1  4  2 -1</clus>
</clustering>
</event>
<event>
 6    1  0.9462926E-012  0.3000000E+03  0.7818608E-02  0.1093470E+00
          1   -1    0    0  502    0  0.00000000000E+00  0.00000000000E+00  0.22991931598E+03  0.22991931598E+03  0.00000000000E+00 0.  1.
         13   -1    0    0    0    0 -0.00000000000E+00 -0.00000000000E+00 -0.27500000000E+03  0.27500000000E+03  0.00000000000E+00 0.  1.
    9000005    2    1    2  501    0 -0.29281484377E+02 -0.27926546233E+02 -0.46259317635E+02  0.46443862318E+03  0.46035422549E+03 0.  0.
         13    1    3    3    0    0 -0.21304536673E+02  0.12036862380E+03  0.16552752491E+03  0.20577135462E+03  0.00000000000E+00 0.  1.
          3    1    3    3  501    0 -0.79769477038E+01 -0.14829517004E+03 -0.21178684255E+03  0.25866726856E+03  0.00000000000E+00 0.  1.
         21    1    1    2  502  501  0.29281484377E+02  0.27926546233E+02  0.11786336125E+01  0.40480692794E+02  0.00000000000E+00 0.  1.
<scales pt_clust_4="550.00000" pt_clust_5="550.00000" pt_clust_6="40.46353"></scales>
<mgrwt>
<rscale>  0 0.30000000E+03</rscale>
<asrwt>  1 0.40463531E+02</asrwt>
<pdfrwt beam="1">  1        1 0.83607024E+00 0.30000000E+03</pdfrwt>
<pdfrwt beam="2">0</pdfrwt>
<totfact> 0.51734503E-04</totfact>
</mgrwt>
<clustering>
<clus scale="   40.464">  1  6  2 -1</clus>
<clus scale="  460.354">  4  5 -1 -1</clus>
<clus scale="  300.000">  1  4  2 -1</clus>
</clustering>
</event>
<event>
 6    1  0.9462926E-012  0.3000000E+03  0.7818608E-02  0.1093470E+00
          1   -1    0    0  502    0  0.00000000000E+00  0.00000000000E+00  0.22830736956E+03  0.22830736956E+03  0.00000000000E+00 0.  1.
         13   -1    0    0    0    0 -0.00000000000E+00 -0.00000000000E+00 -0.27500000000E+03  0.27500000000E+03  0.00000000000E+00 0.  1.
    9000005    2    1    2  501    0 -0.13489014014E+02 -0.28066428287E+02 -0.51476435371E+02  0.47180240669E+03  0.46795086244E+03 0.  0.
         13    1    3    3    0    0  0.32634285252E+02 -0.23964764195E+03  0.22647431352E+02  0.24291746544E+03  0.00000000000E+00 0.  1.
          3    1    3    3  501    0 -0.46123299266E+02  0.21158121367E+03 -0.74123866724E+02  0.22888494125E+03  0.00000000000E+00 0.  1.
         21    1    1    2  502  501  0.13489014014E+02  0.28066428287E+02  0.47838049275E+01  0.31504962870E+02  0.00000000000E+00 0.  1.
<scales pt_clust_4="550.00000" pt_clust_5="550.00000" pt_clust_6="31.13965"></scales>
<mgrwt>
<rscale>  0 0.30000000E+03</rscale>
<asrwt>  1 0.31139652E+02</asrwt>
<pdfrwt beam="1">  1        1 0.83020862E+00 0.30000000E+03</pdfrwt>
<pdfrwt beam="2">0</pdfrwt>
<totfact> 0.60183468E-04</totfact>
</mgrwt>
<clustering>
<clus scale="   31.140">  1  6  2 -1</clus>
<clus scale="  467.951">  4  5 -1 -1</clus>
<clus scale="  300.000">  1  4  2 -1</clus>
</clustering>
</event>
<event>
 6    1  0.9462926E-012  0.3000000E+03  0.7818608E-02  0.1093470E+00
          1   -1    0    0  502    0  0.00000000000E+00  0.00000000000E+00  0.24093900443E+03  0.24093900443E+03  0.00000000000E+00 0.  1.
         13   -1    0    0    0    0 -0.00000000000E+00 -0.00000000000E+00 -0.27500000000E+03  0.27500000000E+03  0.00000000000E+00 0.  1.
    9000005    2    1    2  501    0  0.32007817508E+02  0.29762045308E+02 -0.62275947463E+02  0.46391628600E+03  0.45763494956E+03 0.  0.
         13    1    3    3    0    0 -0.14618511775E+03  0.10779868494E+03  0.10286778145E+03  0.20874009099E+03  0.00000000000E+00 0.  1.
          3    1    3    3  501    0  0.17819293525E+03 -0.78036639636E+02 -0.16514372891E+03  0.25517619501E+03  0.00000000000E+00 0.  1.
         21    1    1    2  502  501 -0.32007817508E+02 -0.29762045308E+02  0.28214951896E+02  0.52022718432E+02  0.00000000000E+00 0.  1.
<scales pt_clust_4="550.00000" pt_clust_5="550.00000" pt_clust_6="43.70675"></scales>
<mgrwt>
<rscale>  0 0.30000000E+03</rscale>
<asrwt>  1 0.43706747E+02</asrwt>
<pdfrwt beam="1">  1        1 0.87614183E+00 0.30000000E+03</pdfrwt>
<pdfrwt beam="2">0</pdfrwt>
<totfact> 0.20995896E-04</totfact>
</mgrwt>
<clustering>
<clus scale="   43.707">  1  6  2 -1</clus>
<clus scale="  457.635">  4  5 -1 -1</clus>
<clus scale="  300.000">  1  4  2 -1</clus>
</clustering>
</event>
<event>
 6    1  0.9462926E-012  0.3000000E+03  0.7818608E-02  0.1093470E+00
          1   -1    0    0  502    0  0.00000000000E+00  0.00000000000E+00  0.24564346772E+03  0.24564346772E+03  0.00000000000E+00 0.  1.
         13   -1    0    0    0    0 -0.00000000000E+00 -0.00000000000E+00 -0.27500000000E+03  0.27500000000E+03  0.00000000000E+00 0.  1.
    9000005    2    1    2  501    0  0.31462254686E+02 -0.22732432394E+02 -0.31651844398E+02  0.48176023984E+03  0.47914971823E+03 0.  0.
         13    1    3    3    0    0  0.74159460287E+02  0.66350480412E+02 -0.23526731899E+03  0.25544612580E+03  0.00000000000E+00 0.  1.
          3    1    3    3  501    0 -0.42697205600E+02 -0.89082912806E+02  0.20361547459E+03  0.22631411404E+03  0.00000000000E+00 0.  1.
         21    1    1    2  502  501 -0.31462254686E+02  0.22732432394E+02  0.22953121159E+01  0.38883227878E+02  0.00000000000E+00 0.  1.
<scales pt_clust_4="550.00000" pt_clust_5="550.00000" pt_clust_6="38.81542"></scales>
<mgrwt>
<rscale>  0 0.30000000E+03</rscale>
<asrwt>  1 0.38815422E+02</asrwt>
<pdfrwt beam="1">  1        1 0.89324897E+00 0.30000000E+03</pdfrwt>
<pdfrwt beam="2">0</pdfrwt>
<totfact> 0.12952699E-04</totfact>
</mgrwt>
<clustering>
<clus scale="   38.815">  1  6  2 -1</clus>
<clus scale="  479.150">  4  5 -1 -1</clus>
<clus scale="  300.000">  1  4  2 -1</clus>
</clustering>
</event>
<event>
 6    1  0.9462926E-012  0.3000000E+03  0.7818608E-02  0.1093470E+00
          1   -1    0    0  502    0  0.00000000000E+00  0.00000000000E+00  0.24319504965E+03  0.24319504965E+03  0.00000000000E+00 0.  1.
         13   -1    0    0    0    0 -0.00000000000E+00 -0.00000000000E+00 -0.27500000000E+03  0.27500000000E+03  0.00000000000E+00 0.  1.
    9000005    2    1    2  501    0  0.15287665434E+02  0.27565000209E+02 -0.35445843740E+02  0.48646496840E+03  0.48414689475E+03 0.  0.
         13    1    3    3    0    0  0.18060787357E+03  0.73659688838E+02  0.14072295698E+03  0.24051591294E+03  0.00000000000E+00 0.  1.
          1    1    3    3  501    0 -0.16532020814E+03 -0.46094688629E+02 -0.17616880072E+03  0.24594905547E+03  0.00000000000E+00 0.  1.
         21    1    1    2  502  501 -0.15287665434E+02 -0.27565000209E+02  0.36408933855E+01  0.31730081242E+02  0.00000000000E+00 0.  1.
<scales pt_clust_4="550.00000" pt_clust_5="550.00000" pt_clust_6="31.52050"></scales>
<mgrwt>
<rscale>  0 0.30000000E+03</rscale>
<asrwt>  1 0.31520500E+02</asrwt>
<pdfrwt beam="1">  1        1 0.88434564E+00 0.30000000E+03</pdfrwt>
<pdfrwt beam="2">0</pdfrwt>
<totfact> 0.17669470E-04</totfact>
</mgrwt>
<clustering>
<clus scale="   31.521">  1  6  2 -1</clus>
<clus scale="  484.147">  4  5 -1 -1</clus>
<clus scale="  300.000">  1  4  2 -1</clus>
</clustering>
</event>
<event>
 6    1  0.9462926E-012  0.3000000E+03  0.7818608E-02  0.1093470E+00
          1   -1    0    0  502    0  0.00000000000E+00  0.00000000000E+00  0.23182464997E+03  0.23182464997E+03  0.00000000000E+00 0.  1.
         13   -1    0    0    0    0 -0.00000000000E+00 -0.00000000000E+00 -0.27500000000E+03  0.27500000000E+03  0.00000000000E+00 0.  1.
    9000005    2    1    2  501    0  0.45730641066E+02 -0.76880561802E+01 -0.40191621223E+02  0.46035637716E+03  0.45624799160E+03 0.  0.
         13    1    3    3    0    0 -0.15831548111E+03 -0.11833470479E+03  0.61416867365E+02  0.20697566406E+03  0.00000000000E+00 0.  1.
          3    1    3    3  501    0  0.20404612217E+03  0.11064664861E+03 -0.10160848859E+03  0.25338071311E+03  0.00000000000E+00 0.  1.
         21    1    1    2  502  501 -0.45730641066E+02  0.76880561802E+01 -0.29837288055E+01  0.46468272807E+02  0.00000000000E+00 0. -1.
<scales pt_clust_4="550.00000" pt_clust_5="550.00000" pt_clust_6="46.37238"></scales>
<mgrwt>
<rscale>  0 0.30000000E+03</rscale>
<asrwt>  1 0.46372381E+02</asrwt>
<pdfrwt beam="1">  1        1 0.84299873E+00 0.30000000E+03</pdfrwt>
<pdfrwt beam="2">0</pdfrwt>
<totfact> 0.44655532E-04</totfact>
</mgrwt>
<clustering>
<clus scale="   46.372">  1  6  2 -1</clus>
<clus scale="  456.248">  4  5 -1 -1</clus>
<clus scale="  300.000">  1  4  2 -1</clus>
</clustering>
</event>
<event>
 6    1  0.9462926E-012  0.3000000E+03  0.7818608E-02  0.1093470E+00
          1   -1    0    0  502    0  0.00000000000E+00  0.00000000000E+00  0.23849957544E+03  0.23849957544E+03  0.00000000000E+00 0.  1.
         13   -1    0    0    0    0 -0.00000000000E+00 -0.00000000000E+00 -0.27500000000E+03  0.27500000000E+03  0.00000000000E+00 0.  1.
    9000005    2    1    2  501    0 -0.32193114022E+02  0.12960664640E+02 -0.48640934519E+02  0.47673318589E+03  0.47297379907E+03 0.  0.
         13    1    3    3    0    0  0.83146063340E+02 -0.16026963107E+03  0.11319224980E+03  0.21310116824E+03  0.00000000000E+00 0.  1.
          1    1    3    3  501    0 -0.11533917736E+03  0.17323029571E+03 -0.16183318432E+03  0.26363201765E+03  0.00000000000E+00 0.  1.
         21    1    1    2  502  501  0.32193114022E+02 -0.12960664640E+02  0.12140509961E+02  0.36766389549E+02  0.00000000000E+00 0. -1.
<scales pt_clust_4="550.00000" pt_clust_5="550.00000" pt_clust_6="34.70411"></scales>
<mgrwt>
<rscale>  0 0.30000000E+03</rscale>
<asrwt>  1 0.34704112E+02</asrwt>
<pdfrwt beam="1">  1        1 0.86727118E+00 0.30000000E+03</pdfrwt>
<pdfrwt beam="2">0</pdfrwt>
<totfact> 0.27066919E-04</totfact>
</mgrwt>
<clustering>
<clus scale="   34.704">  1  6  2 -1</clus>
<clus scale="  472.974">  4  5 -1 -1</clus>
<clus scale="  300.000">  1  4  2 -1</clus>
</clustering>
</event>
<event>
 6    1  0.9462926E-012  0.3000000E+03  0.7818608E-02  0.1093470E+00
          1   -1    0    0  502    0  0.00000000000E+00  0.00000000000E+00  0.24228608953E+03  0.24228608953E+03  0.00000000000E+00 0.  1.
         13   -1    0    0    0    0 -0.00000000000E+00 -0.00000000000E+00 -0.27500000000E+03  0.27500000000E+03  0.00000000000E+00 0.  1.
    9000005    2    1    2  501    0  0.17436029325E+02 -0.28660160006E+02 -0.12206024548E+00  0.47051378372E+03  0.46931629621E+03 0.  0.
         13    1    3    3    0    0  0.21889508370E+03 -0.10880160845E+03  0.46288369925E+02  0.24878798375E+03  0.00000000000E+00 0.  1.
          1    1    3    3  501    0 -0.20145905437E+03  0.80141448440E+02 -0.46410430170E+02  0.22172579998E+03  0.00000000000E+00 0.  1.
         21    1    1    2  502  501 -0.17436029325E+02  0.28660160006E+02 -0.32591850220E+02  0.46772305811E+02  0.00000000000E+00 0. -1.
<scales pt_clust_4="550.00000" pt_clust_5="550.00000" pt_clust_6="33.54730"></scales>
<mgrwt>
<rscale>  0 0.30000000E+03</rscale>
<asrwt>  1 0.33547295E+02</asrwt>
<pdfrwt beam="1">  1        1 0.88104033E+00 0.30000000E+03</pdfrwt>
<pdfrwt beam="2">0</pdfrwt>
<totfact> 0.19307633E-04</totfact>
</mgrwt>
<clustering>
<clus scale="   33.547">  1  6  2 -1</clus>
<clus scale="  469.316">  4  5 -1 -1</clus>
<clus scale="  300.000">  1  4  2 -1</clus>
</clustering>
</event>
<event>
 6    1  0.9462926E-012  0.3000000E+03  0.7818608E-02  0.1093470E+00
          1   -1    0    0  502    0  0.00000000000E+00  0.00000000000E+00  0.24113801288E+03  0.24113801288E+03  0.00000000000E+00 0.  1.
         13   -1    0    0    0    0 -0.00000000000E+00 -0.00000000000E+00 -0.27500000000E+03  0.27500000000E+03  0.00000000000E+00 0.  1.
    9000005    2    1    2  501    0 -0.43701162558E+02  0.59235964858E+01 -0.57264405226E+02  0.46621253063E+03  0.46057576034E+03 0.  0.
         13    1    3    3    0    0 -0.13151620085E+03 -0.14841143576E+03  0.10612413991E+03  0.22491064542E+03  0.00000000000E+00 0.  1.
          1    1    3    3  501    0  0.87815038289E+02  0.15433503225E+03 -0.16338854513E+03  0.24130188522E+03  0.00000000000E+00 0.  1.
         21    1    1    2  502  501  0.43701162558E+02 -0.59235964858E+01  0.23402418102E+02  0.49925482244E+02  0.00000000000E+00 0.  1.
<scales pt_clust_4="550.00000" pt_clust_5="550.00000" pt_clust_6="44.10080"></scales>
<mgrwt>
<rscale>  0 0.30000000E+03</rscale>
<asrwt>  1 0.44100800E+02</asrwt>
<pdfrwt beam="1">  1        1 0.87686550E+00 0.30000000E+03</pdfrwt>
<pdfrwt beam="2">0</pdfrwt>
<totfact> 0.20582924E-04</totfact>
</mgrwt>
<clustering>
<clus scale="   44.101">  1  6  2 -1</clus>
<clus scale="  460.576">  4  5 -1 -1</clus>
<clus scale="  300.000">  1  4  2 -1</clus>
</clustering>
</event>
<event>
 6    1  0.9462926E-012  0.3000000E+03  0.7818608E-02  0.1093470E+00
          1   -1    0    0  502    0  0.00000000000E+00  0.00000000000E+00  0.24073989545E+03  0.24073989545E+03  0.00000000000E+00 0.  1.
         13   -1    0    0    0    0 -0.00000000000E+00 -0.00000000000E+00 -0.27500000000E+03  0.27500000000E+03  0.00000000000E+00 0.  1.
    9000005    2    1    2  501    0 -0.79776789226E+01 -0.33606250999E+02 -0.53150698004E+02  0.47637140566E+03  0.47213525177E+03 0.  0.
         13    1    3    3    0    0  0.14356335825E+03  0.16678925714E+03 -0.47129955743E+02  0.22505627487E+03  0.00000000000E+00 0.  1.
          1    1    3    3  501    0 -0.15154103717E+03 -0.20039550814E+03 -0.60207422609E+01  0.25131513079E+03  0.00000000000E+00 0.  1.
         21    1    1    2  502  501  0.79776789226E+01  0.33606250999E+02  0.18890593450E+02  0.39368489787E+02  0.00000000000E+00 0. -1.
<scales pt_clust_4="550.00000" pt_clust_5="550.00000" pt_clust_6="34.54017"></scales>
<mgrwt>
<rscale>  0 0.30000000E+03</rscale>
<asrwt>  1 0.34540172E+02</asrwt>
<pdfrwt beam="1">  1        1 0.87541780E+00 0.30000000E+03</pdfrwt>
<pdfrwt beam="2">0</pdfrwt>
<totfact> 0.22319230E-04</totfact>
</mgrwt>
<clustering>
<clus scale="   34.540">  1  6  2 -1</clus>
<clus scale="  472.135">  4  5 -1 -1</clus>
<clus scale="  300.000">  1  4  2 -1</clus>
</clustering>
</event>
<event>
 6    1  0.9462926E-012  0.3000000E+03  0.7818608E-02  0.1093470E+00
          1   -1    0    0  502    0  0.00000000000E+00  0.00000000000E+00  0.24702095550E+03  0.24702095550E+03  0.00000000000E+00 0.  1.
         13   -1    0    0    0    0 -0.00000000000E+00 -0.00000000000E+00 -0.27500000000E+03  0.27500000000E+03  0.00000000000E+00 0.  1.
    9000005    2    1    2  501    0  0.27775523134E+02  0.16069253663E+02 -0.63043732923E+02  0.47448956616E+03  0.46918667451E+03 0.  0.
         13    1    3    3    0    0 -0.23385163341E+02 -0.19568075918E+03 -0.14186651841E+03  0.24282490487E+03  0.00000000000E+00 0.  1.
          1    1    3    3  501    0  0.51160686475E+02  0.21175001285E+03  0.78822785483E+02  0.23166466129E+03  0.00000000000E+00 0.  1.
         21    1    1    2  502  501 -0.27775523134E+02 -0.16069253663E+02  0.35064688427E+02  0.47531389346E+02  0.00000000000E+00 0. -1.
<scales pt_clust_4="550.00000" pt_clust_5="550.00000" pt_clust_6="32.08895"></scales>
<mgrwt>
<rscale>  0 0.30000000E+03</rscale>
<asrwt>  1 0.32088948E+02</asrwt>
<pdfrwt beam="1">  1        1 0.89825802E+00 0.30000000E+03</pdfrwt>
<pdfrwt beam="2">0</pdfrwt>
<totfact> 0.11780477E-04</totfact>
</mgrwt>
<clustering>
<clus scale="   32.089">  1  6  2 -1</clus>
<clus scale="  469.187">  4  5 -1 -1</clus>
<clus scale="  300.000">  1  4  2 -1</clus>
</clustering>
</event>
<event>
 6    1  0.9462926E-012  0.3000000E+03  0.7818608E-02  0.1093470E+00
          1   -1    0    0  502    0  0.00000000000E+00  0.00000000000E+00  0.23588094871E+03  0.23588094871E+03  0.00000000000E+00 0.  1.
         13   -1    0    0    0    0 -0.00000000000E+00 -0.00000000000E+00 -0.27500000000E+03  0.27500000000E+03  0.00000000000E+00 0.  1.
    9000005    2    1    2  501    0  0.23519250121E+02 -0.22996788455E+02 -0.49725221679E+02  0.47631943462E+03  0.47257337919E+03 0.  0.
         13    1    3    3    0    0  0.56940304744E+02 -0.13503906133E+03 -0.22326487564E+03  0.26706731564E+03  0.00000000000E+00 0.  1.
          1    1    3    3  501    0 -0.33421054623E+02  0.11204227288E+03  0.17353965396E+03  0.20925211898E+03  0.00000000000E+00 0.  1.
         21    1    1    2  502  501 -0.23519250121E+02  0.22996788455E+02  0.10606170386E+02  0.34561514084E+02  0.00000000000E+00 0. -1.
<scales pt_clust_4="550.00000" pt_clust_5="550.00000" pt_clust_6="32.89388"></scales>
<mgrwt>
<rscale>  0 0.30000000E+03</rscale>
<asrwt>  1 0.32893881E+02</asrwt>
<pdfrwt beam="1">  1        1 0.85774890E+00 0.30000000E+03</pdfrwt>
<pdfrwt beam="2">0</pdfrwt>
<totfact> 0.34564106E-04</totfact>
</mgrwt>
<clustering>
<clus scale="   32.894">  1  6  2 -1</clus>
<clus scale="  472.573">  4  5 -1 -1</clus>
<clus scale="  300.000">  1  4  2 -1</clus>
</clustering>
</event>
<event>
 6    1  0.9462926E-012  0.3000000E+03  0.7818608E-02  0.1093470E+00
          1   -1    0    0  502    0  0.00000000000E+00  0.00000000000E+00  0.25332088523E+03  0.25332088523E+03  0.00000000000E+00 0.  1.
         13   -1    0    0    0    0 -0.00000000000E+00 -0.00000000000E+00 -0.27500000000E+03  0.27500000000E+03  0.00000000000E+00 0.  1.
    9000005    2    1    2  501    0  0.27392567008E+02 -0.21793494209E+02 -0.35262447436E+02  0.49077336809E+03  0.48825172760E+03 0.  0.
         13    1    3    3    0    0  0.18324250329E+03 -0.15354022409E+03 -0.12274825483E+03  0.26873695222E+03  0.00000000000E+00 0.  1.
          1    1    3    3  501    0 -0.15584993628E+03  0.13174672988E+03  0.87485807398E+02  0.22203641586E+03  0.00000000000E+00 0.  1.
         21    1    1    2  502  501 -0.27392567008E+02  0.21793494209E+02  0.13583332662E+02  0.37547517139E+02  0.00000000000E+00 0. -1.
<scales pt_clust_4="550.00000" pt_clust_5="550.00000" pt_clust_6="35.00442"></scales>
<mgrwt>
<rscale>  0 0.30000000E+03</rscale>
<asrwt>  1 0.35004416E+02</asrwt>
<pdfrwt beam="1">  1        1 0.92116686E+00 0.30000000E+03</pdfrwt>
<pdfrwt beam="2">0</pdfrwt>
<totfact> 0.39449333E-05</totfact>
</mgrwt>
<clustering>
<clus scale="   35.004">  1  6  2 -1</clus>
<clus scale="  488.252">  4  5 -1 -1</clus>
<clus scale="  300.000">  1  4  2 -1</clus>
</clustering>
</event>
<event>
 6    1  0.9462926E-012  0.3000000E+03  0.7818608E-02  0.1093470E+00
          1   -1    0    0  502    0  0.00000000000E+00  0.00000000000E+00  0.23632422199E+03  0.23632422199E+03  0.00000000000E+00 0.  1.
         13   -1    0    0    0    0 -0.00000000000E+00 -0.00000000000E+00 -0.27500000000E+03  0.27500000000E+03  0.00000000000E+00 0.  1.
    9000005    2    1    2  501    0  0.25317134189E+02  0.19458831626E+02 -0.40802002911E+02  0.47932228074E+03  0.47651384236E+03 0.  0.
         13    1    3    3    0    0  0.16593044108E+03  0.12707005561E+03  0.11926362901E+03  0.24063150981E+03  0.00000000000E+00 0.  1.
          1    1    3    3  501    0 -0.14061330689E+03 -0.10761122398E+03 -0.16006563192E+03  0.23869077092E+03  0.00000000000E+00 0.  1.
         21    1    1    2  502  501 -0.25317134189E+02 -0.19458831626E+02  0.21262249041E+01  0.32001941256E+02  0.00000000000E+00 0. -1.
<scales pt_clust_4="550.00000" pt_clust_5="550.00000" pt_clust_6="31.93123"></scales>
<mgrwt>
<rscale>  0 0.30000000E+03</rscale>
<asrwt>  1 0.31931229E+02</asrwt>
<pdfrwt beam="1">  1        1 0.85936081E+00 0.30000000E+03</pdfrwt>
<pdfrwt beam="2">0</pdfrwt>
<totfact> 0.33430401E-04</totfact>
</mgrwt>
<clustering>
<clus scale="   31.931">  1  6  2 -1</clus>
<clus scale="  476.514">  4  5 -1 -1</clus>
<clus scale="  300.000">  1  4  2 -1</clus>
</clustering>
</event>
<event>
 6    1  0.9462926E-012  0.3000000E+03  0.7818608E-02  0.1093470E+00
          1   -1    0    0  502    0  0.00000000000E+00  0.00000000000E+00  0.23099360597E+03  0.23099360597E+03  0.00000000000E+00 0.  1.
         13   -1    0    0    0    0 -0.00000000000E+00 -0.00000000000E+00 -0.27500000000E+03  0.27500000000E+03  0.00000000000E+00 0.  1.
    9000005    2    1    2  501    0 -0.18531091580E+01 -0.30451065232E+02 -0.60467487112E+02  0.47132850864E+03  0.46643707472E+03 0.  0.
         13    1    3    3    0    0 -0.10701789909E+03 -0.22147649991E+03 -0.37198918921E+01  0.24600509819E+03  0.00000000000E+00 0.  1.
          1    1    3    3  501    0  0.10516478994E+03  0.19102543468E+03 -0.56747595220E+02  0.22532341045E+03  0.00000000000E+00 0.  1.
         21    1    1    2  502  501  0.18531091580E+01  0.30451065232E+02  0.16461093078E+02  0.34665097326E+02  0.00000000000E+00 0. -1.
<scales pt_clust_4="550.00000" pt_clust_5="550.00000" pt_clust_6="30.50740"></scales>
<mgrwt>
<rscale>  0 0.30000000E+03</rscale>
<asrwt>  1 0.30507399E+02</asrwt>
<pdfrwt beam="1">  1        1 0.83997675E+00 0.30000000E+03</pdfrwt>
<pdfrwt beam="2">0</pdfrwt>
<totfact> 0.51035927E-04</totfact>
</mgrwt>
<clustering>
<clus scale="   30.507">  1  6  2 -1</clus>
<clus scale="  466.437">  4  5 -1 -1</clus>
<clus scale="  300.000">  1  4  2 -1</clus>
</clustering>
</event>
<event>
 6    1  0.9462926E-012  0.3000000E+03  0.7818608E-02  0.1093470E+00
          1   -1    0    0  502    0  0.00000000000E+00  0.00000000000E+00  0.24618389678E+03  0.24618389678E+03  0.00000000000E+00 0.  1.
         13   -1    0    0    0    0 -0.00000000000E+00 -0.00000000000E+00 -0.27500000000E+03  0.27500000000E+03  0.00000000000E+00 0.  1.
    9000005    2    1    2  501    0  0.29838647158E+02  0.13307127399E+02 -0.46224878338E+02  0.48416376773E+03  0.48084341536E+03 0.  0.
         13    1    3    3    0    0  0.13979709328E+03  0.75842573172E+02 -0.21861129958E+03  0.27034463837E+03  0.00000000000E+00 0.  1.
          1    1    3    3  501    0 -0.10995844612E+03 -0.62535445773E+02  0.17238642124E+03  0.21381912936E+03  0.00000000000E+00 0.  1.
         21    1    1    2  502  501 -0.29838647158E+02 -0.13307127399E+02  0.17408775115E+02  0.37020129049E+02  0.00000000000E+00 0. -1.
<scales pt_clust_4="550.00000" pt_clust_5="550.00000" pt_clust_6="32.67146"></scales>
<mgrwt>
<rscale>  0 0.30000000E+03</rscale>
<asrwt>  1 0.32671463E+02</asrwt>
<pdfrwt beam="1">  1        1 0.89521417E+00 0.30000000E+03</pdfrwt>
<pdfrwt beam="2">0</pdfrwt>
<totfact> 0.12703309E-04</totfact>
</mgrwt>
<clustering>
<clus scale="   32.671">  1  6  2 -1</clus>
<clus scale="  480.843">  4  5 -1 -1</clus>
<clus scale="  300.000">  1  4  2 -1</clus>
</clustering>
</event>
<event>
 6    1  0.9462926E-012  0.3000000E+03  0.7818608E-02  0.1093470E+00
          1   -1    0    0  502    0  0.00000000000E+00  0.00000000000E+00  0.21979346852E+03  0.21979346852E+03  0.00000000000E+00 0.  1.
         13   -1    0    0    0    0 -0.00000000000E+00 -0.00000000000E+00 -0.27500000000E+03  0.27500000000E+03  0.00000000000E+00 0.  1.
    9000005    2    1    2  501    0  0.18431175684E+02  0.26587771777E+02 -0.59673755141E+02  0.46213502501E+03  0.45712274768E+03 0.  0.
         13    1    3    3    0    0 -0.11047530442E+02  0.67219588570E+02  0.19292394402E+03  0.20459757866E+03  0.00000000000E+00 0.  1.
          3    1    3    3  501    0  0.29478706125E+02 -0.40631816793E+02 -0.25259769916E+03  0.25753744635E+03  0.00000000000E+00 0.  1.
         21    1    1    2  502  501 -0.18431175684E+02 -0.26587771777E+02  0.44672236601E+01  0.32658443508E+02  0.00000000000E+00 0.  1.
<scales pt_clust_4="550.00000" pt_clust_5="550.00000" pt_clust_6="32.35147"></scales>
<mgrwt>
<rscale>  0 0.30000000E+03</rscale>
<asrwt>  1 0.32351474E+02</asrwt>
<pdfrwt beam="1">  1        1 0.79924898E+00 0.30000000E+03</pdfrwt>
<pdfrwt beam="2">0</pdfrwt>
<totfact> 0.10657593E-03</totfact>
</mgrwt>
<clustering>
<clus scale="   32.351">  1  6  2 -1</clus>
<clus scale="  457.123">  4  5 -1 -1</clus>
<clus scale="  300.000">  1  4  2 -1</clus>
</clustering>
</event>
<event>
 6    1  0.9462926E-012  0.3000000E+03  0.7818608E-02  0.1093470E+00
          1   -1    0    0  502    0  0.00000000000E+00  0.00000000000E+00  0.23609652690E+03  0.23609652690E+03  0.00000000000E+00 0.  1.
         13   -1    0    0    0    0 -0.00000000000E+00 -0.00000000000E+00 -0.27500000000E+03  0.27500000000E+03  0.00000000000E+00 0.  1.
    9000005    2    1    2  501    0  0.28198292620E+02  0.27643978454E+02 -0.47054367585E+02  0.47077568449E+03  0.46675078827E+03 0.  0.
         13    1    3    3    0    0 -0.14067414097E+03  0.17297255024E+03 -0.95872028373E+02  0.24269355760E+03  0.00000000000E+00 0.  1.
          3    1    3    3  501    0  0.16887243359E+03 -0.14532857179E+03  0.48817660788E+02  0.22808212690E+03  0.00000000000E+00 0.  1.
         21    1    1    2  502  501 -0.28198292620E+02 -0.27643978454E+02  0.81508944838E+01  0.40320842406E+02  0.00000000000E+00 0.  1.
<scales pt_clust_4="550.00000" pt_clust_5="550.00000" pt_clust_6="39.48839"></scales>
<mgrwt>
<rscale>  0 0.30000000E+03</rscale>
<asrwt>  1 0.39488394E+02</asrwt>
<pdfrwt beam="1">  1        1 0.85853283E+00 0.30000000E+03</pdfrwt>
<pdfrwt beam="2">0</pdfrwt>
<totfact> 0.32784617E-04</totfact>
</mgrwt>
<clustering>
<clus scale="   39.488">  1  6  2 -1</clus>
<clus scale="  466.751">  4  5 -1 -1</clus>
<clus scale="  300.000">  1  4  2 -1</clus>
</clustering>
</event>
<event>
 6    1  0.9462926E-012  0.3000000E+03  0.7818608E-02  0.1093470E+00
          1   -1    0    0  502    0  0.00000000000E+00  0.00000000000E+00  0.24808143647E+03  0.24808143647E+03  0.00000000000E+00 0.  1.
         13   -1    0    0    0    0 -0.00000000000E+00 -0.00000000000E+00 -0.27500000000E+03  0.27500000000E+03  0.00000000000E+00 0.  1.
    9000005    2    1    2  501    0 -0.30904545285E+02  0.23304202100E+02 -0.41150582560E+02  0.48184156353E+03  0.47851828089E+03 0.  0.
         13    1    3    3    0    0 -0.99246336958E+02  0.12642298237E+03  0.17199056805E+03  0.23540042772E+03  0.00000000000E+00 0.  1.
          1    1    3    3  501    0  0.68341791673E+02 -0.10311878027E+03 -0.21314115061E+03  0.24644113581E+03  0.00000000000E+00 0.  1.
         21    1    1    2  502  501  0.30904545285E+02 -0.23304202100E+02  0.14232019034E+02  0.41239872946E+02  0.00000000000E+00 0.  1.
<scales pt_clust_4="550.00000" pt_clust_5="550.00000" pt_clust_6="38.70629"></scales>
<mgrwt>
<rscale>  0 0.30000000E+03</rscale>
<asrwt>  1 0.38706288E+02</asrwt>
<pdfrwt beam="1">  1        1 0.90211431E+00 0.30000000E+03</pdfrwt>
<pdfrwt beam="2">0</pdfrwt>
<totfact> 0.10148625E-04</totfact>
</mgrwt>
<clustering>
<clus scale="   38.706">  1  6  2 -1</clus>
<clus scale="  478.518">  4  5 -1 -1</clus>
<clus scale="  300.000">  1  4  2 -1</clus>
</clustering>
</event>
<event>
 6    1  0.9462926E-012  0.3000000E+03  0.7818608E-02  0.1093470E+00
          1   -1    0    0  502    0  0.00000000000E+00  0.00000000000E+00  0.24902126488E+03  0.24902126488E+03  0.00000000000E+00 0.  1.
         13   -1    0    0    0    0 -0.00000000000E+00 -0.00000000000E+00 -0.27500000000E+03  0.27500000000E+03  0.00000000000E+00 0.  1.
    9000005    2    1    2  501    0 -0.17138566945E+02  0.35091863872E+02 -0.57849785535E+02  0.47361359442E+03  0.46844217332E+03 0.  0.
         13    1    3    3    0    0 -0.11003047326E+03 -0.17497478625E+03 -0.11553273118E+03  0.23679251011E+03  0.00000000000E+00 0.  1.
          1    1    3    3  501    0  0.92891906317E+02  0.21006665013E+03  0.57682945640E+02  0.23682108431E+03  0.00000000000E+00 0.  1.
         21    1    1    2  502  501  0.17138566945E+02 -0.35091863872E+02  0.31871050414E+02  0.50407670462E+02  0.00000000000E+00 0.  1.
<scales pt_clust_4="550.00000" pt_clust_5="550.00000" pt_clust_6="39.05342"></scales>
<mgrwt>
<rscale>  0 0.30000000E+03</rscale>
<asrwt>  1 0.39053417E+02</asrwt>
<pdfrwt beam="1">  1        1 0.90553187E+00 0.30000000E+03</pdfrwt>
<pdfrwt beam="2">0</pdfrwt>
<totfact> 0.88494735E-05</totfact>
</mgrwt>
<clustering>
<clus scale="   39.053">  1  6  2 -1</clus>
<clus scale="  468.442">  4  5 -1 -1</clus>
<clus scale="  300.000">  1  4  2 -1</clus>
</clustering>
</event>
<event>
 6    1  0.9462926E-012  0.3000000E+03  0.7818608E-02  0.1093470E+00
          1   -1    0    0  502    0  0.00000000000E+00  0.00000000000E+00  0.23484674665E+03  0.23484674665E+03  0.00000000000E+00 0.  1.
         13   -1    0    0    0    0 -0.00000000000E+00 -0.00000000000E+00 -0.27500000000E+03  0.27500000000E+03  0.00000000000E+00 0.  1.
    9000005    2    1    2  501    0  0.36261338237E+02 -0.43474112256E+00 -0.66511123361E+02  0.46501583140E+03  0.45880379278E+03 0.  0.
         13    1    3    3    0    0 -0.49228167817E+02  0.21913521053E+03 -0.34170388493E+02  0.22718113577E+03  0.00000000000E+00 0.  1.
          1    1    3    3  501    0  0.85489506054E+02 -0.21956995165E+03 -0.32340734867E+02  0.23783469563E+03  0.00000000000E+00 0.  1.
         21    1    1    2  502  501 -0.36261338237E+02  0.43474112256E+00  0.26357870013E+02  0.44830915251E+02  0.00000000000E+00 0. -1.
<scales pt_clust_4="550.00000" pt_clust_5="550.00000" pt_clust_6="36.26394"></scales>
<mgrwt>
<rscale>  0 0.30000000E+03</rscale>
<asrwt>  1 0.36263944E+02</asrwt>
<pdfrwt beam="1">  1        1 0.85398817E+00 0.30000000E+03</pdfrwt>
<pdfrwt beam="2">0</pdfrwt>
<totfact> 0.37030433E-04</totfact>
</mgrwt>
<clustering>
<clus scale="   36.264">  1  6  2 -1</clus>
<clus scale="  458.804">  4  5 -1 -1</clus>
<clus scale="  300.000">  1  4  2 -1</clus>
</clustering>
</event>
<event>
 6    1  0.9462926E-012  0.3000000E+03  0.7818608E-02  0.1093470E+00
          1   -1    0    0  502    0  0.00000000000E+00  0.00000000000E+00  0.22954684070E+03  0.22954684070E+03  0.00000000000E+00 0.  1.
         13   -1    0    0    0    0 -0.00000000000E+00 -0.00000000000E+00 -0.27500000000E+03  0.27500000000E+03  0.00000000000E+00 0.  1.
    9000005    2    1    2  501    0 -0.30470466548E+02  0.20246741129E+01 -0.61450127166E+02  0.47007291406E+03  0.46503750146E+03 0.  0.
         13    1    3    3    0    0 -0.16321933228E+03 -0.15007084313E+03  0.65987116210E+02  0.23133548776E+03  0.00000000000E+00 0.  1.
          1    1    3    3  501    0  0.13274886573E+03  0.15209551725E+03 -0.12743724338E+03  0.23873742631E+03  0.00000000000E+00 0.  1.
         21    1    1    2  502  501  0.30470466548E+02 -0.20246741129E+01  0.15996967864E+02  0.34473926637E+02  0.00000000000E+00 0.  1.
<scales pt_clust_4="550.00000" pt_clust_5="550.00000" pt_clust_6="30.53766"></scales>
<mgrwt>
<rscale>  0 0.30000000E+03</rscale>
<asrwt>  1 0.30537659E+02</asrwt>
<pdfrwt beam="1">  1        1 0.83471578E+00 0.30000000E+03</pdfrwt>
<pdfrwt beam="2">0</pdfrwt>
<totfact> 0.55781284E-04</totfact>
</mgrwt>
<clustering>
<clus scale="   30.538">  1  6  2 -1</clus>
<clus scale="  465.038">  4  5 -1 -1</clus>
<clus scale="  300.000">  1  4  2 -1</clus>
</clustering>
</event>
<event>
 6    1  0.9462926E-012  0.3000000E+03  0.7818608E-02  0.1093470E+00
          1   -1    0    0  502    0  0.00000000000E+00  0.00000000000E+00  0.22222621034E+03  0.22222621034E+03  0.00000000000E+00 0.  1.
         13   -1    0    0    0    0 -0.00000000000E+00 -0.00000000000E+00 -0.27500000000E+03  0.27500000000E+03  0.00000000000E+00 0.  1.
    9000005    2    1    2  501    0 -0.35904014720E+01 -0.29903124788E+02 -0.64687123843E+02  0.46483770334E+03  0.45932839951E+03 0.  0.
         13    1    3    3    0    0 -0.21528254330E+03  0.70603920654E+01 -0.11493769471E+03  0.24414564557E+03  0.00000000000E+00 0.  1.
          1    1    3    3  501    0  0.21169214182E+03 -0.36963516853E+02  0.50250570871E+02  0.22069205777E+03  0.00000000000E+00 0.  1.
         21    1    1    2  502  501  0.35904014720E+01  0.29903124788E+02  0.11913334186E+02  0.32388507009E+02  0.00000000000E+00 0.  1.
<scales pt_clust_4="550.00000" pt_clust_5="550.00000" pt_clust_6="30.11790"></scales>
<mgrwt>
<rscale>  0 0.30000000E+03</rscale>
<asrwt>  1 0.30117899E+02</asrwt>
<pdfrwt beam="1">  1        1 0.80809531E+00 0.30000000E+03</pdfrwt>
<pdfrwt beam="2">0</pdfrwt>
<totfact> 0.92840882E-04</totfact>
</mgrwt>
<clustering>
<clus scale="   30.118">  1  6  2 -1</clus>
<clus scale="  459.328">  4  5 -1 -1</clus>
<clus scale="  300.000">  1  4  2 -1</clus>
</clustering>
</event>
<event>
 6    1  0.9462926E-012  0.3000000E+03  0.7818608E-02  0.1093470E+00
          1   -1    0    0  502    0  0.00000000000E+00  0.00000000000E+00  0.23468005234E+03  0.23468005234E+03  0.00000000000E+00 0.  1.
         13   -1    0    0    0    0 -0.00000000000E+00 -0.00000000000E+00 -0.27500000000E+03  0.27500000000E+03  0.00000000000E+00 0.  1.
    9000005    2    1    2  501    0  0.25489179477E+02  0.18999320072E+02 -0.54644693699E+02  0.47481071362E+03  0.47058314758E+03 0.  0.
         13    1    3    3    0    0  0.12672932935E+03 -0.68591813180E+02  0.16407669952E+03  0.21837198327E+03  0.00000000000E+00 0.  1.
          3    1    3    3  501    0 -0.10124014988E+03  0.87591133251E+02 -0.21872139322E+03  0.25643873035E+03  0.00000000000E+00 0.  1.
         21    1    1    2  502  501 -0.25489179477E+02 -0.18999320072E+02  0.14324746042E+02  0.34869338720E+02  0.00000000000E+00 0.  1.
<scales pt_clust_4="550.00000" pt_clust_5="550.00000" pt_clust_6="31.79107"></scales>
<mgrwt>
<rscale>  0 0.30000000E+03</rscale>
<asrwt>  1 0.31791075E+02</asrwt>
<pdfrwt beam="1">  1        1 0.85338201E+00 0.30000000E+03</pdfrwt>
<pdfrwt beam="2">0</pdfrwt>
<totfact> 0.38476033E-04</totfact>
</mgrwt>
<clustering>
<clus scale="   31.791">  1  6  2 -1</clus>
<clus scale="  470.583">  4  5 -1 -1</clus>
<clus scale="  300.000">  1  4  2 -1</clus>
</clustering>
</event>
<event>
 6    1  0.9462926E-012  0.3000000E+03  0.7818608E-02  0.1093470E+00
          1   -1    0    0  502    0  0.00000000000E+00  0.00000000000E+00  0.22300007594E+03  0.22300007594E+03  0.00000000000E+00 0.  1.
         13   -1    0    0    0    0 -0.00000000000E+00 -0.00000000000E+00 -0.27500000000E+03  0.27500000000E+03  0.00000000000E+00 0.  1.
    9000005    2    1    2  501    0 -0.33118446504E+02  0.34666161313E+01 -0.39422395131E+02  0.46240452621E+03  0.45951601898E+03 0.  0.
         13    1    3    3    0    0 -0.10931258553E+02 -0.22780039597E+03 -0.10785389151E+02  0.22831740502E+03  0.00000000000E+00 0.  1.
          1    1    3    3  501    0 -0.22187187952E+02  0.23126701210E+03 -0.28637005979E+02  0.23408712119E+03  0.00000000000E+00 0.  1.
         21    1    1    2  502  501  0.33118446504E+02 -0.34666161313E+01 -0.12577528932E+02  0.35595549726E+02  0.00000000000E+00 0.  1.
<scales pt_clust_4="550.00000" pt_clust_5="550.00000" pt_clust_6="33.29940"></scales>
<mgrwt>
<rscale>  0 0.30000000E+03</rscale>
<asrwt>  1 0.33299400E+02</asrwt>
<pdfrwt beam="1">  1        1 0.81090937E+00 0.30000000E+03</pdfrwt>
<pdfrwt beam="2">0</pdfrwt>
<totfact> 0.86605059E-04</totfact>
</mgrwt>
<clustering>
<clus scale="   33.299">  1  6  2 -1</clus>
<clus scale="  459.516">  4  5 -1 -1</clus>
<clus scale="  300.000">  1  4  2 -1</clus>
</clustering>
</event>
<event>
 6    1  0.9462926E-012  0.3000000E+03  0.7818608E-02  0.1093470E+00
          1   -1    0    0  502    0  0.00000000000E+00  0.00000000000E+00  0.22742681212E+03  0.22742681212E+03  0.00000000000E+00 0.  1.
         13   -1    0    0    0    0 -0.00000000000E+00 -0.00000000000E+00 -0.27500000000E+03  0.27500000000E+03  0.00000000000E+00 0.  1.
    9000005    2    1    2  501    0  0.33610886535E+02  0.23066859019E+02 -0.46550155600E+02  0.46164914331E+03  0.45748359845E+03 0.  0.
         13    1    3    3    0    0  0.10342573443E+03 -0.18244693845E+03 -0.10823503677E+03  0.23600548950E+03  0.00000000000E+00 0.  1.
          3    1    3    3  501    0 -0.69814847896E+02  0.20551379747E+03  0.61684881166E+02  0.22564365380E+03  0.00000000000E+00 0.  1.
         21    1    1    2  502  501 -0.33610886535E+02 -0.23066859019E+02 -0.10230322802E+01  0.40777668812E+02  0.00000000000E+00 0. -1.
<scales pt_clust_4="550.00000" pt_clust_5="550.00000" pt_clust_6="40.76483"></scales>
<mgrwt>
<rscale>  0 0.30000000E+03</rscale>
<asrwt>  1 0.40764834E+02</asrwt>
<pdfrwt beam="1">  1        1 0.82700659E+00 0.30000000E+03</pdfrwt>
<pdfrwt beam="2">0</pdfrwt>
<totfact> 0.60955637E-04</totfact>
</mgrwt>
<clustering>
<clus scale="   40.765">  1  6  2 -1</clus>
<clus scale="  457.484">  4  5 -1 -1</clus>
<clus scale="  300.000">  1  4  2 -1</clus>
</clustering>
</event>
<event>
 6    1  0.9462926E-012  0.3000000E+03  0.7818608E-02  0.1093470E+00
          1   -1    0    0  502    0  0.00000000000E+00  0.00000000000E+00  0.23740127785E+03  0.23740127785E+03  0.00000000000E+00 0.  1.
         13   -1    0    0    0    0 -0.00000000000E+00 -0.00000000000E+00 -0.27500000000E+03  0.27500000000E+03  0.00000000000E+00 0.  1.
    9000005    2    1    2  501    0  0.39021817266E+01 -0.38641367053E+02 -0.34439423955E+02  0.47343509463E+03  0.47058084601E+03 0.  0.
         13    1    3    3    0    0  0.48152973712E+02  0.17099543735E+03  0.11552908533E+03  0.21190827740E+03  0.00000000000E+00 0.  1.
          3    1    3    3  501    0 -0.44250791986E+02 -0.20963680440E+03 -0.14996850929E+03  0.26152681723E+03  0.00000000000E+00 0.  1.
         21    1    1    2  502  501 -0.39021817266E+01  0.38641367053E+02 -0.31592981916E+01  0.38966183223E+02  0.00000000000E+00 0. -1.
<scales pt_clust_4="550.00000" pt_clust_5="550.00000" pt_clust_6="38.83792"></scales>
<mgrwt>
<rscale>  0 0.30000000E+03</rscale>
<asrwt>  1 0.38837917E+02</asrwt>
<pdfrwt beam="1">  1        1 0.86327737E+00 0.30000000E+03</pdfrwt>
<pdfrwt beam="2">0</pdfrwt>
<totfact> 0.29251374E-04</totfact>
</mgrwt>
<clustering>
<clus scale="   38.838">  1  6  2 -1</clus>
<clus scale="  470.581">  4  5 -1 -1</clus>
<clus scale="  300.000">  1  4  2 -1</clus>
</clustering>
</event>
<event>
 6    1  0.9462926E-012  0.3000000E+03  0.7818608E-02  0.1093470E+00
          1   -1    0    0  502    0  0.00000000000E+00  0.00000000000E+00  0.23739602746E+03  0.23739602746E+03  0.00000000000E+00 0.  1.
         13   -1    0    0    0    0 -0.00000000000E+00 -0.00000000000E+00 -0.27500000000E+03  0.27500000000E+03  0.00000000000E+00 0.  1.
    9000005    2    1    2  501    0 -0.35917130885E+02  0.98446043362E+01 -0.44434696905E+01  0.46253045342E+03  0.46100728778E+03 0.  0.
         13    1    3    3    0    0 -0.75928219699E+02  0.13425622299E+03 -0.18422513167E+03  0.24026803179E+03  0.00000000000E+00 0.  1.
          3    1    3    3  501    0  0.40011088814E+02 -0.12441161866E+03  0.17978166198E+03  0.22226242163E+03  0.00000000000E+00 0.  1.
         21    1    1    2  502  501  0.35917130885E+02 -0.98446043362E+01 -0.33160502849E+02  0.49865574044E+02  0.00000000000E+00 0.  1.
<scales pt_clust_4="550.00000" pt_clust_5="550.00000" pt_clust_6="37.24188"></scales>
<mgrwt>
<rscale>  0 0.30000000E+03</rscale>
<asrwt>  1 0.37241884E+02</asrwt>
<pdfrwt beam="1">  1        1 0.86325828E+00 0.30000000E+03</pdfrwt>
<pdfrwt beam="2">0</pdfrwt>
<totfact> 0.29492371E-04</totfact>
</mgrwt>
<clustering>
<clus scale="   37.242">  1  6  2 -1</clus>
<clus scale="  461.007">  4  5 -1 -1</clus>
<clus scale="  300.000">  1  4  2 -1</clus>
</clustering>
</event>
<event>
 6    1  0.9462926E-012  0.3000000E+03  0.7818608E-02  0.1093470E+00
          1   -1    0    0  502    0  0.00000000000E+00  0.00000000000E+00  0.24062329908E+03  0.24062329908E+03  0.00000000000E+00 0.  1.
         13   -1    0    0    0    0 -0.00000000000E+00 -0.00000000000E+00 -0.27500000000E+03  0.27500000000E+03  0.00000000000E+00 0.  1.
    9000005    2    1    2  501    0 -0.17356261650E+02 -0.26186571807E+02 -0.72205170826E+02  0.46645044583E+03  0.45975586495E+03 0.  0.
         13    1    3    3    0    0  0.77377763488E+02  0.14451191523E+03  0.11160625204E+03  0.19831028067E+03  0.00000000000E+00 0.  1.
          3    1    3    3  501    0 -0.94734025138E+02 -0.17069848704E+03 -0.18381142287E+03  0.26814016516E+03  0.00000000000E+00 0.  1.
         21    1    1    2  502  501  0.17356261650E+02  0.26186571807E+02  0.37828469909E+02  0.49172853254E+02  0.00000000000E+00 0. -1.
<scales pt_clust_4="550.00000" pt_clust_5="550.00000" pt_clust_6="31.41618"></scales>
<mgrwt>
<rscale>  0 0.30000000E+03</rscale>
<asrwt>  1 0.31416180E+02</asrwt>
<pdfrwt beam="1">  1        1 0.87499381E+00 0.30000000E+03</pdfrwt>
<pdfrwt beam="2">0</pdfrwt>
<totfact> 0.22959937E-04</totfact>
</mgrwt>
<clustering>
<clus scale="   31.416">  1  6  2 -1</clus>
<clus scale="  459.756">  4  5 -1 -1</clus>
<clus scale="  300.000">  1  4  2 -1</clus>
</clustering>
</event>
<event>
 6    1  0.9462926E-012  0.3000000E+03  0.7818608E-02  0.1093470E+00
          1   -1    0    0  502    0  0.00000000000E+00  0.00000000000E+00  0.22626556211E+03  0.22626556211E+03  0.00000000000E+00 0.  1.
         13   -1    0    0    0    0 -0.00000000000E+00 -0.00000000000E+00 -0.27500000000E+03  0.27500000000E+03  0.00000000000E+00 0.  1.
    9000005    2    1    2  501    0 -0.22991961587E+02 -0.19283466073E+02 -0.57734230147E+02  0.46993700290E+03  0.46541063912E+03 0.  0.
         13    1    3    3    0    0  0.21287826238E+02 -0.16803643670E+03 -0.19812452470E+03  0.26065828759E+03  0.00000000000E+00 0.  1.
          3    1    3    3  501    0 -0.44279787826E+02  0.14875297062E+03  0.14039029455E+03  0.20927871531E+03  0.00000000000E+00 0.  1.
         21    1    1    2  502  501  0.22991961587E+02  0.19283466073E+02  0.89997922620E+01  0.31328559210E+02  0.00000000000E+00 0.  1.
<scales pt_clust_4="550.00000" pt_clust_5="550.00000" pt_clust_6="30.00804"></scales>
<mgrwt>
<rscale>  0 0.30000000E+03</rscale>
<asrwt>  1 0.30008038E+02</asrwt>
<pdfrwt beam="1">  1        1 0.82278386E+00 0.30000000E+03</pdfrwt>
<pdfrwt beam="2">0</pdfrwt>
<totfact> 0.70387969E-04</totfact>
</mgrwt>
<clustering>
<clus scale="   30.008">  1  6  2 -1</clus>
<clus scale="  465.411">  4  5 -1 -1</clus>
<clus scale="  300.000">  1  4  2 -1</clus>
</clustering>
</event>
<event>
 6    1  0.9462926E-012  0.3000000E+03  0.7818608E-02  0.1093470E+00
          1   -1    0    0  502    0  0.00000000000E+00  0.00000000000E+00  0.23695981870E+03  0.23695981870E+03  0.00000000000E+00 0.  1.
         13   -1    0    0    0    0 -0.00000000000E+00 -0.00000000000E+00 -0.27500000000E+03  0.27500000000E+03  0.00000000000E+00 0.  1.
    9000005    2    1    2  501    0 -0.19489196854E+02  0.42409670351E+02 -0.53001463781E+02  0.46294707641E+03  0.45752861272E+03 0.  0.
         13    1    3    3    0    0  0.25509744508E+02  0.92988136824E+02 -0.24290181660E+03  0.26134045451E+03  0.00000000000E+00 0.  1.
          3    1    3    3  501    0 -0.44998941362E+02 -0.50578466474E+02  0.18990035282E+03  0.20160662190E+03  0.00000000000E+00 0.  1.
         21    1    1    2  502  501  0.19489196854E+02 -0.42409670351E+02  0.14961282478E+02  0.49012742289E+02  0.00000000000E+00 0.  1.
<scales pt_clust_4="550.00000" pt_clust_5="550.00000" pt_clust_6="46.67343"></scales>
<mgrwt>
<rscale>  0 0.30000000E+03</rscale>
<asrwt>  1 0.46673429E+02</asrwt>
<pdfrwt beam="1">  1        1 0.86167207E+00 0.30000000E+03</pdfrwt>
<pdfrwt beam="2">0</pdfrwt>
<totfact> 0.29451119E-04</totfact>
</mgrwt>
<clustering>
<clus scale="   46.673">  1  6  2 -1</clus>
<clus scale="  457.529">  4  5 -1 -1</clus>
<clus scale="  300.000">  1  4  2 -1</clus>
</clustering>
</event>
<event>
 6    1  0.9462926E-012  0.3000000E+03  0.7818608E-02  0.1093470E+00
          1   -1    0    0  502    0  0.00000000000E+00  0.00000000000E+00  0.22819211221E+03  0.22819211221E+03  0.00000000000E+00 0.  1.
         13   -1    0    0    0    0 -0.00000000000E+00 -0.00000000000E+00 -0.27500000000E+03  0.27500000000E+03  0.00000000000E+00 0.  1.
    9000005    2    1    2  501    0 -0.15662666742E+02 -0.27790392792E+02 -0.59275824713E+02  0.46894193685E+03  0.46408543575E+03 0.  0.
         13    1    3    3    0    0 -0.22559792181E+03 -0.41821454252E+02 -0.10704483222E+03  0.25318383136E+03  0.00000000000E+00 0.  1.
          1    1    3    3  501    0  0.20993525507E+03  0.14031061459E+02  0.47769007504E+02  0.21575810549E+03  0.00000000000E+00 0.  1.
         21    1    1    2  502  501  0.15662666742E+02  0.27790392792E+02  0.12467936920E+02  0.34250175358E+02  0.00000000000E+00 0. -1.
<scales pt_clust_4="550.00000" pt_clust_5="550.00000" pt_clust_6="31.90024"></scales>
<mgrwt>
<rscale>  0 0.30000000E+03</rscale>
<asrwt>  1 0.31900236E+02</asrwt>
<pdfrwt beam="1">  1        1 0.82978950E+00 0.30000000E+03</pdfrwt>
<pdfrwt beam="2">0</pdfrwt>
<totfact> 0.60385979E-04</totfact>
</mgrwt>
<clustering>
<clus scale="   31.900">  1  6  2 -1</clus>
<clus scale="  464.085">  4  5 -1 -1</clus>
<clus scale="  300.000">  1  4  2 -1</clus>
</clustering>
</event>
<event>
 6    1  0.9462926E-012  0.3000000E+03  0.7818608E-02  0.1093470E+00
          1   -1    0    0  502    0  0.00000000000E+00  0.00000000000E+00  0.22825625995E+03  0.22825625995E+03  0.00000000000E+00 0.  1.
         13   -1    0    0    0    0 -0.00000000000E+00 -0.00000000000E+00 -0.27500000000E+03  0.27500000000E+03  0.00000000000E+00 0.  1.
    9000005    2    1    2  501    0  0.17884315665E+02 -0.26684678287E+02 -0.33453721266E+02  0.46849212036E+03  0.46619072767E+03 0.  0.
         13    1    3    3    0    0  0.44783155496E+02 -0.23439686667E+03 -0.84076856352E+02  0.25301450530E+03  0.00000000000E+00 0.  1.
          1    1    3    3  501    0 -0.26898839831E+02  0.20771218838E+03  0.50623135086E+02  0.21547761506E+03  0.00000000000E+00 0.  1.
         21    1    1    2  502  501 -0.17884315665E+02  0.26684678287E+02 -0.13290018786E+02  0.34764139590E+02  0.00000000000E+00 0. -1.
<scales pt_clust_4="550.00000" pt_clust_5="550.00000" pt_clust_6="32.12354"></scales>
<mgrwt>
<rscale>  0 0.30000000E+03</rscale>
<asrwt>  1 0.32123540E+02</asrwt>
<pdfrwt beam="1">  1        1 0.83002276E+00 0.30000000E+03</pdfrwt>
<pdfrwt beam="2">0</pdfrwt>
<totfact> 0.60038356E-04</totfact>
</mgrwt>
<clustering>
<clus scale="   32.124">  1  6  2 -1</clus>
<clus scale="  466.191">  4  5 -1 -1</clus>
<clus scale="  300.000">  1  4  2 -1</clus>
</clustering>
</event>
<event>
 6    1  0.9462926E-012  0.3000000E+03  0.7818608E-02  0.1093470E+00
          1   -1    0    0  502    0  0.00000000000E+00  0.00000000000E+00  0.24935443336E+03  0.24935443336E+03  0.00000000000E+00 0.  1.
         13   -1    0    0    0    0 -0.00000000000E+00 -0.00000000000E+00 -0.27500000000E+03  0.27500000000E+03  0.00000000000E+00 0.  1.
    9000005    2    1    2  501    0  0.21845993661E+02  0.29658109974E+02 -0.38549896799E+02  0.48532402646E+03  0.48238621994E+03 0.  0.
         13    1    3    3    0    0  0.20268393865E+03 -0.90441848046E+02  0.82482194470E+02  0.23677799575E+03  0.00000000000E+00 0.  1.
          1    1    3    3  501    0 -0.18083794499E+03  0.12009995802E+03 -0.12103209127E+03  0.24854603071E+03  0.00000000000E+00 0.  1.
         21    1    1    2  502  501 -0.21845993661E+02 -0.29658109974E+02  0.12904330160E+02  0.39030406905E+02  0.00000000000E+00 0.  1.
<scales pt_clust_4="550.00000" pt_clust_5="550.00000" pt_clust_6="36.83546"></scales>
<mgrwt>
<rscale>  0 0.30000000E+03</rscale>
<asrwt>  1 0.36835457E+02</asrwt>
<pdfrwt beam="1">  1        1 0.90674339E+00 0.30000000E+03</pdfrwt>
<pdfrwt beam="2">0</pdfrwt>
<totfact> 0.84503399E-05</totfact>
</mgrwt>
<clustering>
<clus scale="   36.835">  1  6  2 -1</clus>
<clus scale="  482.386">  4  5 -1 -1</clus>
<clus scale="  300.000">  1  4  2 -1</clus>
</clustering>
</event>
<event>
 6    1  0.9462926E-012  0.3000000E+03  0.7818608E-02  0.1093470E+00
          1   -1    0    0  502    0  0.00000000000E+00  0.00000000000E+00  0.23844498036E+03  0.23844498036E+03  0.00000000000E+00 0.  1.
         13   -1    0    0    0    0 -0.00000000000E+00 -0.00000000000E+00 -0.27500000000E+03  0.27500000000E+03  0.00000000000E+00 0.  1.
    9000005    2    1    2  501    0 -0.27967021246E+02  0.16376475308E+02 -0.65509761302E+02  0.46998557073E+03  0.46426777257E+03 0.  0.
         13    1    3    3    0    0 -0.14144013431E+03  0.13025523311E+03  0.11832663523E+03  0.22577185376E+03  0.00000000000E+00 0.  1.
          3    1    3    3  501    0  0.11347311307E+03 -0.11387875780E+03 -0.18383639653E+03  0.24421371697E+03  0.00000000000E+00 0.  1.
         21    1    1    2  502  501  0.27967021246E+02 -0.16376475308E+02  0.28954741660E+02  0.43459409631E+02  0.00000000000E+00 0.  1.
<scales pt_clust_4="550.00000" pt_clust_5="550.00000" pt_clust_6="32.40900"></scales>
<mgrwt>
<rscale>  0 0.30000000E+03</rscale>
<asrwt>  1 0.32408999E+02</asrwt>
<pdfrwt beam="1">  1        1 0.86707266E+00 0.30000000E+03</pdfrwt>
<pdfrwt beam="2">0</pdfrwt>
<totfact> 0.27550141E-04</totfact>
</mgrwt>
<clustering>
<clus scale="   32.409">  1  6  2 -1</clus>
<clus scale="  464.268">  4  5 -1 -1</clus>
<clus scale="  300.000">  1  4  2 -1</clus>
</clustering>
</event>
<event>
 6    1  0.9462926E-012  0.3000000E+03  0.7818608E-02  0.1093470E+00
          1   -1    0    0  502    0  0.00000000000E+00  0.00000000000E+00  0.26347183067E+03  0.26347183067E+03  0.00000000000E+00 0.  1.
         13   -1    0    0    0    0 -0.00000000000E+00 -0.00000000000E+00 -0.27500000000E+03  0.27500000000E+03  0.00000000000E+00 0.  1.
    9000005    2    1    2  501    0 -0.35317196718E+02  0.64254743385E+02 -0.19840704735E+02  0.46468108141E+03  0.45843088620E+03 0.  0.
         13    1    3    3    0    0  0.18621962611E+02  0.10868065966E+03 -0.22357981414E+03  0.24929138888E+03  0.00000000000E+00 0.  1.
          1    1    3    3  501    0 -0.53939159329E+02 -0.44425916279E+02  0.20373910941E+03  0.21538969253E+03  0.00000000000E+00 0.  1.
         21    1    1    2  502  501  0.35317196718E+02 -0.64254743385E+02  0.83125354062E+01  0.73790749260E+02  0.00000000000E+00 0.  1.
<scales pt_clust_4="550.00000" pt_clust_5="550.00000" pt_clust_6="73.32105"></scales>
<mgrwt>
<rscale>  0 0.30000000E+03</rscale>
<asrwt>  1 0.73321050E+02</asrwt>
<pdfrwt beam="1">  1        1 0.95807938E+00 0.30000000E+03</pdfrwt>
<pdfrwt beam="2">0</pdfrwt>
<totfact> 0.73290669E-06</totfact>
</mgrwt>
<clustering>
<clus scale="   73.321">  1  6  2 -1</clus>
<clus scale="  458.431">  4  5 -1 -1</clus>
<clus scale="  300.000">  1  4  2 -1</clus>
</clustering>
</event>
<event>
 6    1  0.9462926E-012  0.3000000E+03  0.7818608E-02  0.1093470E+00
          1   -1    0    0  502    0  0.00000000000E+00  0.00000000000E+00  0.22899852593E+03  0.22899852593E+03  0.00000000000E+00 0.  1.
         13   -1    0    0    0    0 -0.00000000000E+00 -0.00000000000E+00 -0.27500000000E+03  0.27500000000E+03  0.00000000000E+00 0.  1.
    9000005    2    1    2  501    0  0.11060746541E+02 -0.34632197882E+02 -0.37297289158E+02  0.46661548058E+03  0.46369946053E+03 0.  0.
         13    1    3    3    0    0  0.10838090706E+02 -0.21433722370E+03  0.10355450879E+03  0.23828857708E+03  0.00000000000E+00 0.  1.
          1    1    3    3  501    0  0.22265583499E+00  0.17970502582E+03 -0.14085179795E+03  0.22832690351E+03  0.00000000000E+00 0.  1.
         21    1    1    2  502  501 -0.11060746541E+02  0.34632197882E+02 -0.87041849146E+01  0.37383045345E+02  0.00000000000E+00 0. -1.
<scales pt_clust_4="550.00000" pt_clust_5="550.00000" pt_clust_6="36.35561"></scales>
<mgrwt>
<rscale>  0 0.30000000E+03</rscale>
<asrwt>  1 0.36355613E+02</asrwt>
<pdfrwt beam="1">  1        1 0.83272191E+00 0.30000000E+03</pdfrwt>
<pdfrwt beam="2">0</pdfrwt>
<totfact> 0.55850514E-04</totfact>
</mgrwt>
<clustering>
<clus scale="   36.356">  1  6  2 -1</clus>
<clus scale="  463.699">  4  5 -1 -1</clus>
<clus scale="  300.000">  1  4  2 -1</clus>
</clustering>
</event>
<event>
 6    1  0.9462926E-012  0.3000000E+03  0.7818608E-02  0.1093470E+00
          1   -1    0    0  502    0  0.00000000000E+00  0.00000000000E+00  0.24866848175E+03  0.24866848175E+03  0.00000000000E+00 0.  1.
         13   -1    0    0    0    0 -0.00000000000E+00 -0.00000000000E+00 -0.27500000000E+03  0.27500000000E+03  0.00000000000E+00 0.  1.
    9000005    2    1    2  501    0  0.45868962611E+02  0.19995818487E+02 -0.23346486050E+02  0.47354159371E+03  0.47031137353E+03 0.  0.
         13    1    3    3    0    0  0.15479863872E+03 -0.83383558287E+02 -0.18339713383E+03  0.25406681216E+03  0.00000000000E+00 0.  1.
          1    1    3    3  501    0 -0.10892967611E+03  0.10337937677E+03  0.16005064778E+03  0.21947478155E+03  0.00000000000E+00 0.  1.
         21    1    1    2  502  501 -0.45868962611E+02 -0.19995818487E+02 -0.29850321988E+01  0.50126888046E+02  0.00000000000E+00 0.  1.
<scales pt_clust_4="550.00000" pt_clust_5="550.00000" pt_clust_6="50.03796"></scales>
<mgrwt>
<rscale>  0 0.30000000E+03</rscale>
<asrwt>  1 0.50037956E+02</asrwt>
<pdfrwt beam="1">  1        1 0.90424902E+00 0.30000000E+03</pdfrwt>
<pdfrwt beam="2">0</pdfrwt>
<totfact> 0.89469090E-05</totfact>
</mgrwt>
<clustering>
<clus scale="   50.038">  1  6  2 -1</clus>
<clus scale="  470.311">  4  5 -1 -1</clus>
<clus scale="  300.000">  1  4  2 -1</clus>
</clustering>
</event>
<event>
 6    1  0.9462926E-012  0.3000000E+03  0.7818608E-02  0.1093470E+00
          1   -1    0    0  502    0  0.00000000000E+00  0.00000000000E+00  0.23896030663E+03  0.23896030663E+03  0.00000000000E+00 0.  1.
         13   -1    0    0    0    0 -0.00000000000E+00 -0.00000000000E+00 -0.27500000000E+03  0.27500000000E+03  0.00000000000E+00 0.  1.
    9000005    2    1    2  501    0  0.39780300945E+02 -0.29496310713E+00 -0.48122963627E+02  0.47238429472E+03  0.46823983483E+03 0.  0.
         13    1    3    3    0    0 -0.52568407394E+02  0.11294798615E+03 -0.21628827555E+03  0.24960229000E+03  0.00000000000E+00 0.  1.
          3    1    3    3  501    0  0.92348708339E+02 -0.11324294926E+03  0.16816531193E+03  0.22278200472E+03  0.00000000000E+00 0.  1.
         21    1    1    2  502  501 -0.39780300945E+02  0.29496310713E+00  0.12083270259E+02  0.41576011914E+02  0.00000000000E+00 0.  1.
<scales pt_clust_4="550.00000" pt_clust_5="550.00000" pt_clust_6="39.78139"></scales>
<mgrwt>
<rscale>  0 0.30000000E+03</rscale>
<asrwt>  1 0.39781394E+02</asrwt>
<pdfrwt beam="1">  1        1 0.86894657E+00 0.30000000E+03</pdfrwt>
<pdfrwt beam="2">0</pdfrwt>
<totfact> 0.25355773E-04</totfact>
</mgrwt>
<clustering>
<clus scale="   39.781">  1  6  2 -1</clus>
<clus scale="  468.240">  4  5 -1 -1</clus>
<clus scale="  300.000">  1  4  2 -1</clus>
</clustering>
</event>
<event>
 6    1  0.9462926E-012  0.3000000E+03  0.7818608E-02  0.1093470E+00
          1   -1    0    0  502    0  0.00000000000E+00  0.00000000000E+00  0.25637881818E+03  0.25637881818E+03  0.00000000000E+00 0.  1.
         13   -1    0    0    0    0 -0.00000000000E+00 -0.00000000000E+00 -0.27500000000E+03  0.27500000000E+03  0.00000000000E+00 0.  1.
    9000005    2    1    2  501    0 -0.36620059541E+02 -0.12331965693E+02 -0.30569540235E+02  0.49093293573E+03  0.48845423988E+03 0.  0.
         13    1    3    3    0    0  0.20791354138E+03 -0.98796226002E+02 -0.42620348695E+01  0.23023227381E+03  0.00000000000E+00 0.  1.
          3    1    3    3  501    0 -0.24453360092E+03  0.86464260310E+02 -0.26307505366E+02  0.26070066192E+03  0.00000000000E+00 0.  1.
         21    1    1    2  502  501  0.36620059541E+02  0.12331965693E+02  0.11948358419E+02  0.40445882454E+02  0.00000000000E+00 0. -1.
<scales pt_clust_4="550.00000" pt_clust_5="550.00000" pt_clust_6="38.64073"></scales>
<mgrwt>
<rscale>  0 0.30000000E+03</rscale>
<asrwt>  1 0.38640732E+02</asrwt>
<pdfrwt beam="1">  1        1 0.93228661E+00 0.30000000E+03</pdfrwt>
<pdfrwt beam="2">0</pdfrwt>
<totfact> 0.23915413E-05</totfact>
</mgrwt>
<clustering>
<clus scale="   38.641">  1  6  2 -1</clus>
<clus scale="  488.454">  4  5 -1 -1</clus>
<clus scale="  300.000">  1  4  2 -1</clus>
</clustering>
</event>
<event>
 6    1  0.9462926E-012  0.3000000E+03  0.7818608E-02  0.1093470E+00
          1   -1    0    0  502    0  0.00000000000E+00  0.00000000000E+00  0.23116779208E+03  0.23116779208E+03  0.00000000000E+00 0.  1.
         13   -1    0    0    0    0 -0.00000000000E+00 -0.00000000000E+00 -0.27500000000E+03  0.27500000000E+03  0.00000000000E+00 0.  1.
    9000005    2    1    2  501    0  0.82576817161E+01 -0.33254773454E+02 -0.56447620851E+02  0.46965453547E+03  0.46498922517E+03 0.  0.
         13    1    3    3    0    0  0.21369194584E+03 -0.11499687352E+02  0.72713666125E+02  0.22601718468E+03  0.00000000000E+00 0.  1.
          3    1    3    3  501    0 -0.20543426413E+03 -0.21755086102E+02 -0.12916128698E+03  0.24363735080E+03  0.00000000000E+00 0.  1.
         21    1    1    2  502  501 -0.82576817161E+01  0.33254773454E+02  0.12615412933E+02  0.36513256610E+02  0.00000000000E+00 0.  1.
<scales pt_clust_4="550.00000" pt_clust_5="550.00000" pt_clust_6="34.26469"></scales>
<mgrwt>
<rscale>  0 0.30000000E+03</rscale>
<asrwt>  1 0.34264694E+02</asrwt>
<pdfrwt beam="1">  1        1 0.84061015E+00 0.30000000E+03</pdfrwt>
<pdfrwt beam="2">0</pdfrwt>
<totfact> 0.49362170E-04</totfact>
</mgrwt>
<clustering>
<clus scale="   34.265">  1  6  2 -1</clus>
<clus scale="  464.989">  4  5 -1 -1</clus>
<clus scale="  300.000">  1  4  2 -1</clus>
</clustering>
</event>
<event>
 6    1  0.9462926E-012  0.3000000E+03  0.7818608E-02  0.1093470E+00
          1   -1    0    0  502    0  0.00000000000E+00  0.00000000000E+00  0.23951653032E+03  0.23951653032E+03  0.00000000000E+00 0.  1.
         13   -1    0    0    0    0 -0.00000000000E+00 -0.00000000000E+00 -0.27500000000E+03  0.27500000000E+03  0.00000000000E+00 0.  1.
    9000005    2    1    2  501    0 -0.10284238340E+02 -0.32506659036E+02 -0.68107997147E+02  0.46732746133E+03  0.46107896113E+03 0.  0.
         13    1    3    3    0    0  0.12215519225E+02  0.18152873460E+03 -0.15126354839E+03  0.23660634283E+03  0.00000000000E+00 0.  1.
          3    1    3    3  501    0 -0.22499757565E+02 -0.21403539364E+03  0.83155551242E+02  0.23072111850E+03  0.00000000000E+00 0.  1.
         21    1    1    2  502  501  0.10284238340E+02  0.32506659036E+02  0.32624527465E+02  0.47189068991E+02  0.00000000000E+00 0. -1.
<scales pt_clust_4="550.00000" pt_clust_5="550.00000" pt_clust_6="34.09470"></scales>
<mgrwt>
<rscale>  0 0.30000000E+03</rscale>
<asrwt>  1 0.34094698E+02</asrwt>
<pdfrwt beam="1">  1        1 0.87096920E+00 0.30000000E+03</pdfrwt>
<pdfrwt beam="2">0</pdfrwt>
<totfact> 0.24876380E-04</totfact>
</mgrwt>
<clustering>
<clus scale="   34.095">  1  6  2 -1</clus>
<clus scale="  461.079">  4  5 -1 -1</clus>
<clus scale="  300.000">  1  4  2 -1</clus>
</clustering>
</event>
<event>
 6    1  0.9462926E-012  0.3000000E+03  0.7818608E-02  0.1093470E+00
          1   -1    0    0  502    0  0.00000000000E+00  0.00000000000E+00  0.25145826828E+03  0.25145826828E+03  0.00000000000E+00 0.  1.
         13   -1    0    0    0    0 -0.00000000000E+00 -0.00000000000E+00 -0.27500000000E+03  0.27500000000E+03  0.00000000000E+00 0.  1.
    9000005    2    1    2  501    0  0.65107643027E+01  0.47644068551E+02 -0.93396263844E+01  0.47631799389E+03  0.47379241801E+03 0.  0.
         13    1    3    3    0    0 -0.20134656981E+03  0.14203994069E+03  0.14233461622E+02  0.24681648518E+03  0.00000000000E+00 0.  1.
          3    1    3    3  501    0  0.20785733411E+03 -0.94395872144E+02 -0.23573088006E+02  0.22950150871E+03  0.00000000000E+00 0.  1.
         21    1    1    2  502  501 -0.65107643027E+01 -0.47644068551E+02 -0.14202105334E+02  0.50140274389E+02  0.00000000000E+00 0. -1.
<scales pt_clust_4="550.00000" pt_clust_5="550.00000" pt_clust_6="48.08690"></scales>
<mgrwt>
<rscale>  0 0.30000000E+03</rscale>
<asrwt>  1 0.48086897E+02</asrwt>
<pdfrwt beam="1">  1        1 0.91439370E+00 0.30000000E+03</pdfrwt>
<pdfrwt beam="2">0</pdfrwt>
<totfact> 0.52814473E-05</totfact>
</mgrwt>
<clustering>
<clus scale="   48.087">  1  6  2 -1</clus>
<clus scale="  473.792">  4  5 -1 -1</clus>
<clus scale="  300.000">  1  4  2 -1</clus>
</clustering>
</event>
<event>
 6    1  0.9462926E-012  0.3000000E+03  0.7818608E-02  0.1093470E+00
          1   -1    0    0  502    0  0.00000000000E+00  0.00000000000E+00  0.23735437745E+03  0.23735437745E+03  0.00000000000E+00 0.  1.
         13   -1    0    0    0    0 -0.00000000000E+00 -0.00000000000E+00 -0.27500000000E+03  0.27500000000E+03  0.00000000000E+00 0.  1.
    9000005    2    1    2  501    0 -0.42766506895E+02 -0.36983930872E+01 -0.52407188295E+02  0.46696102940E+03  0.46202103564E+03 0.  0.
         13    1    3    3    0    0  0.20201543417E+03  0.53507464510E+02 -0.52940319336E+02  0.21558284211E+03  0.00000000000E+00 0.  1.
          1    1    3    3  501    0 -0.24478194107E+03 -0.57205857597E+02  0.53313104061E+00  0.25137818729E+03  0.00000000000E+00 0.  1.
         21    1    1    2  502  501  0.42766506895E+02  0.36983930872E+01  0.14761565743E+02  0.45393348043E+02  0.00000000000E+00 0.  1.
<scales pt_clust_4="550.00000" pt_clust_5="550.00000" pt_clust_6="42.92613"></scales>
<mgrwt>
<rscale>  0 0.30000000E+03</rscale>
<asrwt>  1 0.42926125E+02</asrwt>
<pdfrwt beam="1">  1        1 0.86310683E+00 0.30000000E+03</pdfrwt>
<pdfrwt beam="2">0</pdfrwt>
<totfact> 0.28846407E-04</totfact>
</mgrwt>
<clustering>
<clus scale="   42.926">  1  6  2 -1</clus>
<clus scale="  462.021">  4  5 -1 -1</clus>
<clus scale="  300.000">  1  4  2 -1</clus>
</clustering>
</event>
<event>
 6    1  0.9462926E-012  0.3000000E+03  0.7818608E-02  0.1093470E+00
          1   -1    0    0  502    0  0.00000000000E+00  0.00000000000E+00  0.24999525354E+03  0.24999525354E+03  0.00000000000E+00 0.  1.
         13   -1    0    0    0    0 -0.00000000000E+00 -0.00000000000E+00 -0.27500000000E+03  0.27500000000E+03  0.00000000000E+00 0.  1.
    9000005    2    1    2  501    0  0.14840379117E+02  0.34543881196E+02 -0.45206995541E+02  0.48231449150E+03  0.47871711865E+03 0.  0.
         13    1    3    3    0    0 -0.22375105955E+03 -0.42634413876E+02 -0.41482471631E+02  0.23152327173E+03  0.00000000000E+00 0.  1.
          1    1    3    3  501    0  0.23859143867E+03  0.77178295072E+02 -0.37245239100E+01  0.25079121977E+03  0.00000000000E+00 0.  1.
         21    1    1    2  502  501 -0.14840379117E+02 -0.34543881196E+02  0.20202249081E+02  0.42680762040E+02  0.00000000000E+00 0.  1.
<scales pt_clust_4="550.00000" pt_clust_5="550.00000" pt_clust_6="37.59676"></scales>
<mgrwt>
<rscale>  0 0.30000000E+03</rscale>
<asrwt>  1 0.37596763E+02</asrwt>
<pdfrwt beam="1">  1        1 0.90907365E+00 0.30000000E+03</pdfrwt>
<pdfrwt beam="2">0</pdfrwt>
<totfact> 0.74629167E-05</totfact>
</mgrwt>
<clustering>
<clus scale="   37.597">  1  6  2 -1</clus>
<clus scale="  478.717">  4  5 -1 -1</clus>
<clus scale="  300.000">  1  4  2 -1</clus>
</clustering>
</event>
<event>
 6    1  0.9462926E-012  0.3000000E+03  0.7818608E-02  0.1093470E+00
          1   -1    0    0  502    0  0.00000000000E+00  0.00000000000E+00  0.24078662926E+03  0.24078662926E+03  0.00000000000E+00 0.  1.
         13   -1    0    0    0    0 -0.00000000000E+00 -0.00000000000E+00 -0.27500000000E+03  0.27500000000E+03  0.00000000000E+00 0.  1.
    9000005    2    1    2  501    0 -0.23846494392E+01 -0.30344833146E+02 -0.49146714335E+02  0.48188234926E+03  0.47840224032E+03 0.  0.
         13    1    3    3    0    0 -0.21384289097E+02 -0.19136358032E+03 -0.18748292169E+03  0.26875109975E+03  0.00000000000E+00 0.  1.
          1    1    3    3  501    0  0.18999639658E+02  0.16101874717E+03  0.13833620736E+03  0.21313124950E+03  0.00000000000E+00 0.  1.
         21    1    1    2  502  501  0.23846494392E+01  0.30344833146E+02  0.14933343595E+02  0.33904280003E+02  0.00000000000E+00 0.  1.
<scales pt_clust_4="550.00000" pt_clust_5="550.00000" pt_clust_6="30.43839"></scales>
<mgrwt>
<rscale>  0 0.30000000E+03</rscale>
<asrwt>  1 0.30438388E+02</asrwt>
<pdfrwt beam="1">  1        1 0.87558774E+00 0.30000000E+03</pdfrwt>
<pdfrwt beam="2">0</pdfrwt>
<totfact> 0.22765643E-04</totfact>
</mgrwt>
<clustering>
<clus scale="   30.438">  1  6  2 -1</clus>
<clus scale="  478.402">  4  5 -1 -1</clus>
<clus scale="  300.000">  1  4  2 -1</clus>
</clustering>
</event>
<event>
 6    1  0.9462926E-012  0.3000000E+03  0.7818608E-02  0.1093470E+00
          1   -1    0    0  502    0  0.00000000000E+00  0.00000000000E+00  0.24459457234E+03  0.24459457234E+03  0.00000000000E+00 0.  1.
         13   -1    0    0    0    0 -0.00000000000E+00 -0.00000000000E+00 -0.27500000000E+03  0.27500000000E+03  0.00000000000E+00 0.  1.
    9000005    2    1    2  501    0  0.34231125412E+02  0.86654008971E+01 -0.49775093939E+01  0.47608091763E+03  0.47474351539E+03 0.  0.
         13    1    3    3    0    0 -0.96796382438E+02 -0.15198067922E+03  0.13568252912E+03  0.22556022526E+03  0.00000000000E+00 0.  1.
          1    1    3    3  501    0  0.13102750785E+03  0.16064608012E+03 -0.14066003852E+03  0.25052069237E+03  0.00000000000E+00 0.  1.
         21    1    1    2  502  501 -0.34231125412E+02 -0.86654008971E+01 -0.25427918262E+02  0.43513654717E+02  0.00000000000E+00 0.  1.
<scales pt_clust_4="550.00000" pt_clust_5="550.00000" pt_clust_6="35.31091"></scales>
<mgrwt>
<rscale>  0 0.30000000E+03</rscale>
<asrwt>  1 0.35310910E+02</asrwt>
<pdfrwt beam="1">  1        1 0.88943481E+00 0.30000000E+03</pdfrwt>
<pdfrwt beam="2">0</pdfrwt>
<totfact> 0.14726053E-04</totfact>
</mgrwt>
<clustering>
<clus scale="   35.311">  1  6  2 -1</clus>
<clus scale="  474.744">  4  5 -1 -1</clus>
<clus scale="  300.000">  1  4  2 -1</clus>
</clustering>
</event>
<event>
 6    1  0.9462926E-012  0.3000000E+03  0.7818608E-02  0.1093470E+00
          1   -1    0    0  502    0  0.00000000000E+00  0.00000000000E+00  0.23236704592E+03  0.23236704592E+03  0.00000000000E+00 0.  1.
         13   -1    0    0    0    0 -0.00000000000E+00 -0.00000000000E+00 -0.27500000000E+03  0.27500000000E+03  0.00000000000E+00 0.  1.
    9000005    2    1    2  501    0 -0.13211790129E+01 -0.31882449638E+02 -0.63671896359E+02  0.46914567492E+03  0.46370822486E+03 0.  0.
         13    1    3    3    0    0  0.12461840474E+03 -0.19477158064E+03 -0.11309064738E+03  0.25740087402E+03  0.00000000000E+00 0.  1.
          3    1    3    3  501    0 -0.12593958375E+03  0.16288913100E+03  0.49418751021E+02  0.21174480089E+03  0.00000000000E+00 0.  1.
         21    1    1    2  502  501  0.13211790129E+01  0.31882449638E+02  0.21038942277E+02  0.38221370999E+02  0.00000000000E+00 0.  1.
<scales pt_clust_4="550.00000" pt_clust_5="550.00000" pt_clust_6="31.90981"></scales>
<mgrwt>
<rscale>  0 0.30000000E+03</rscale>
<asrwt>  1 0.31909812E+02</asrwt>
<pdfrwt beam="1">  1        1 0.84497108E+00 0.30000000E+03</pdfrwt>
<pdfrwt beam="2">0</pdfrwt>
<totfact> 0.46003935E-04</totfact>
</mgrwt>
<clustering>
<clus scale="   31.910">  1  6  2 -1</clus>
<clus scale="  463.708">  4  5 -1 -1</clus>
<clus scale="  300.000">  1  4  2 -1</clus>
</clustering>
</event>
<event>
 6    1  0.9462926E-012  0.3000000E+03  0.7818608E-02  0.1093470E+00
          1   -1    0    0  502    0  0.00000000000E+00  0.00000000000E+00  0.24120679457E+03  0.24120679457E+03  0.00000000000E+00 0.  1.
         13   -1    0    0    0    0 -0.00000000000E+00 -0.00000000000E+00 -0.27500000000E+03  0.27500000000E+03  0.00000000000E+00 0.  1.
    9000005    2    1    2  501    0  0.92294848386E+01 -0.37454810251E+02 -0.60482370240E+02  0.46929882382E+03  0.46378359472E+03 0.  0.
         13    1    3    3    0    0  0.93183878178E+02  0.95105665445E+02  0.15398054137E+03  0.20356406822E+03  0.00000000000E+00 0.  1.
          1    1    3    3  501    0 -0.83954393339E+02 -0.13256047570E+03 -0.21446291161E+03  0.26573475560E+03  0.00000000000E+00 0.  1.
         21    1    1    2  502  501 -0.92294848386E+01  0.37454810251E+02  0.26689164811E+02  0.46907970747E+02  0.00000000000E+00 0. -1.
<scales pt_clust_4="550.00000" pt_clust_5="550.00000" pt_clust_6="38.57520"></scales>
<mgrwt>
<rscale>  0 0.30000000E+03</rscale>
<asrwt>  1 0.38575202E+02</asrwt>
<pdfrwt beam="1">  1        1 0.87711562E+00 0.30000000E+03</pdfrwt>
<pdfrwt beam="2">0</pdfrwt>
<totfact> 0.20954544E-04</totfact>
</mgrwt>
<clustering>
<clus scale="   38.575">  1  6  2 -1</clus>
<clus scale="  463.784">  4  5 -1 -1</clus>
<clus scale="  300.000">  1  4  2 -1</clus>
</clustering>
</event>
<event>
 6    1  0.9462926E-012  0.3000000E+03  0.7818608E-02  0.1093470E+00
          1   -1    0    0  502    0  0.00000000000E+00  0.00000000000E+00  0.23161286816E+03  0.23161286816E+03  0.00000000000E+00 0.  1.
         13   -1    0    0    0    0 -0.00000000000E+00 -0.00000000000E+00 -0.27500000000E+03  0.27500000000E+03  0.00000000000E+00 0.  1.
    9000005    2    1    2  501    0 -0.29942270828E+02 -0.16808307981E+02 -0.47737261992E+02  0.47200098534E+03  0.46832363295E+03 0.  0.
         13    1    3    3    0    0  0.90235971671E+02 -0.18500381607E+03  0.88891166396E+02  0.22421102115E+03  0.00000000000E+00 0.  1.
          3    1    3    3  501    0 -0.12017824250E+03  0.16819550809E+03 -0.13662842839E+03  0.24778996419E+03  0.00000000000E+00 0.  1.
         21    1    1    2  502  501  0.29942270828E+02  0.16808307981E+02  0.43501301485E+01  0.34611882813E+02  0.00000000000E+00 0.  1.
<scales pt_clust_4="550.00000" pt_clust_5="550.00000" pt_clust_6="34.33743"></scales>
<mgrwt>
<rscale>  0 0.30000000E+03</rscale>
<asrwt>  1 0.34337426E+02</asrwt>
<pdfrwt beam="1">  1        1 0.84222861E+00 0.30000000E+03</pdfrwt>
<pdfrwt beam="2">0</pdfrwt>
<totfact> 0.47879266E-04</totfact>
</mgrwt>
<clustering>
<clus scale="   34.337">  1  6  2 -1</clus>
<clus scale="  468.324">  4  5 -1 -1</clus>
<clus scale="  300.000">  1  4  2 -1</clus>
</clustering>
</event>
<event>
 6    1  0.9462926E-012  0.3000000E+03  0.7818608E-02  0.1093470E+00
          1   -1    0    0  502    0  0.00000000000E+00  0.00000000000E+00  0.23866535819E+03  0.23866535819E+03  0.00000000000E+00 0.  1.
         13   -1    0    0    0    0 -0.00000000000E+00 -0.00000000000E+00 -0.27500000000E+03  0.27500000000E+03  0.00000000000E+00 0.  1.
    9000005    2    1    2  501    0 -0.36073855118E+02  0.20119097723E+02 -0.26072512124E+02  0.47110466715E+03  0.46856560950E+03 0.  0.
         13    1    3    3    0    0  0.81243921129E+02  0.20907588869E+03 -0.86854044118E+02  0.24053466887E+03  0.00000000000E+00 0.  1.
          1    1    3    3  501    0 -0.11731777625E+03 -0.18895679096E+03  0.60781531994E+02  0.23056999828E+03  0.00000000000E+00 0.  1.
         21    1    1    2  502  501  0.36073855118E+02 -0.20119097723E+02 -0.10262129683E+02  0.42560691041E+02  0.00000000000E+00 0.  1.
<scales pt_clust_4="550.00000" pt_clust_5="550.00000" pt_clust_6="41.30500"></scales>
<mgrwt>
<rscale>  0 0.30000000E+03</rscale>
<asrwt>  1 0.41304998E+02</asrwt>
<pdfrwt beam="1">  1        1 0.86787403E+00 0.30000000E+03</pdfrwt>
<pdfrwt beam="2">0</pdfrwt>
<totfact> 0.25834670E-04</totfact>
</mgrwt>
<clustering>
<clus scale="   41.305">  1  6  2 -1</clus>
<clus scale="  468.566">  4  5 -1 -1</clus>
<clus scale="  300.000">  1  4  2 -1</clus>
</clustering>
</event>
<event>
 6    1  0.9462926E-012  0.3000000E+03  0.7818608E-02  0.1093470E+00
          1   -1    0    0  502    0  0.00000000000E+00  0.00000000000E+00  0.23851454553E+03  0.23851454553E+03  0.00000000000E+00 0.  1.
         13   -1    0    0    0    0 -0.00000000000E+00 -0.00000000000E+00 -0.27500000000E+03  0.27500000000E+03  0.00000000000E+00 0.  1.
    9000005    2    1    2  501    0  0.18402703997E+02  0.29535553431E+02 -0.70945799729E+02  0.46453981913E+03  0.45776951474E+03 0.  0.
         13    1    3    3    0    0 -0.17989648649E+02  0.28336092930E+02 -0.26499082248E+03  0.26710802612E+03  0.00000000000E+00 0.  1.
          3    1    3    3  501    0  0.36392352646E+02  0.11994605004E+01  0.19404502275E+03  0.19743179301E+03  0.00000000000E+00 0.  1.
         21    1    1    2  502  501 -0.18402703997E+02 -0.29535553431E+02  0.34460345263E+02  0.48974726405E+02  0.00000000000E+00 0.  1.
<scales pt_clust_4="550.00000" pt_clust_5="550.00000" pt_clust_6="34.79955"></scales>
<mgrwt>
<rscale>  0 0.30000000E+03</rscale>
<asrwt>  1 0.34799546E+02</asrwt>
<pdfrwt beam="1">  1        1 0.86732562E+00 0.30000000E+03</pdfrwt>
<pdfrwt beam="2">0</pdfrwt>
<totfact> 0.27017495E-04</totfact>
</mgrwt>
<clustering>
<clus scale="   34.800">  1  6  2 -1</clus>
<clus scale="  457.770">  4  5 -1 -1</clus>
<clus scale="  300.000">  1  4  2 -1</clus>
</clustering>
</event>
<event>
 6    1  0.9462926E-012  0.3000000E+03  0.7818608E-02  0.1093470E+00
          1   -1    0    0  502    0  0.00000000000E+00  0.00000000000E+00  0.24359393846E+03  0.24359393846E+03  0.00000000000E+00 0.  1.
         13   -1    0    0    0    0 -0.00000000000E+00 -0.00000000000E+00 -0.27500000000E+03  0.27500000000E+03  0.00000000000E+00 0.  1.
    9000005    2    1    2  501    0 -0.35367703581E+02  0.35862676810E+02 -0.27053063943E+02  0.46803748849E+03  0.46453225542E+03 0.  0.
         13    1    3    3    0    0  0.24893402893E+02  0.61459510678E+02 -0.23805164532E+03  0.24711442451E+03  0.00000000000E+00 0.  1.
          3    1    3    3  501    0 -0.60261106475E+02 -0.25596833868E+02  0.21099858138E+03  0.22092306399E+03  0.00000000000E+00 0.  1.
         21    1    1    2  502  501  0.35367703581E+02 -0.35862676810E+02 -0.43529976011E+01  0.50556449961E+02  0.00000000000E+00 0.  1.
<scales pt_clust_4="550.00000" pt_clust_5="550.00000" pt_clust_6="50.36873"></scales>
<mgrwt>
<rscale>  0 0.30000000E+03</rscale>
<asrwt>  1 0.50368726E+02</asrwt>
<pdfrwt beam="1">  1        1 0.88579614E+00 0.30000000E+03</pdfrwt>
<pdfrwt beam="2">0</pdfrwt>
<totfact> 0.15493639E-04</totfact>
</mgrwt>
<clustering>
<clus scale="   50.369">  1  6  2 -1</clus>
<clus scale="  464.532">  4  5 -1 -1</clus>
<clus scale="  300.000">  1  4  2 -1</clus>
</clustering>
</event>
<event>
 6    1  0.9462926E-012  0.3000000E+03  0.7818608E-02  0.1093470E+00
          1   -1    0    0  502    0  0.00000000000E+00  0.00000000000E+00  0.22096352858E+03  0.22096352858E+03  0.00000000000E+00 0.  1.
         13   -1    0    0    0    0 -0.00000000000E+00 -0.00000000000E+00 -0.27500000000E+03  0.27500000000E+03  0.00000000000E+00 0.  1.
    9000005    2    1    2  501    0  0.13020947532E+02 -0.27825787166E+02 -0.66291477182E+02  0.46288778714E+03  0.45708502932E+03 0.  0.
         13    1    3    3    0    0 -0.95243888138E+00  0.15565167344E+03  0.12338216993E+03  0.19862404296E+03  0.00000000000E+00 0.  1.
          1    1    3    3  501    0  0.13973386414E+02 -0.18347746060E+03 -0.18967364712E+03  0.26426374418E+03  0.00000000000E+00 0.  1.
         21    1    1    2  502  501 -0.13020947532E+02  0.27825787166E+02  0.12255005766E+02  0.33075741449E+02  0.00000000000E+00 0.  1.
<scales pt_clust_4="550.00000" pt_clust_5="550.00000" pt_clust_6="30.72165"></scales>
<mgrwt>
<rscale>  0 0.30000000E+03</rscale>
<asrwt>  1 0.30721646E+02</asrwt>
<pdfrwt beam="1">  1        1 0.80350374E+00 0.30000000E+03</pdfrwt>
<pdfrwt beam="2">0</pdfrwt>
<totfact> 0.10022491E-03</totfact>
</mgrwt>
<clustering>
<clus scale="   30.722">  1  6  2 -1</clus>
<clus scale="  457.085">  4  5 -1 -1</clus>
<clus scale="  300.000">  1  4  2 -1</clus>
</clustering>
</event>
<event>
 6    1  0.9462926E-012  0.3000000E+03  0.7818608E-02  0.1093470E+00
          1   -1    0    0  502    0  0.00000000000E+00  0.00000000000E+00  0.23047038042E+03  0.23047038042E+03  0.00000000000E+00 0.  1.
         13   -1    0    0    0    0 -0.00000000000E+00 -0.00000000000E+00 -0.27500000000E+03  0.27500000000E+03  0.00000000000E+00 0.  1.
    9000005    2    1    2  501    0  0.59404790595E+01  0.37846747220E+02 -0.45271329813E+02  0.46715307753E+03  0.46337332571E+03 0.  0.
         13    1    3    3    0    0  0.15307798339E+03 -0.79698660649E+02  0.12513540412E+03  0.21317508033E+03  0.00000000000E+00 0.  1.
          1    1    3    3  501    0 -0.14713750433E+03  0.11754540787E+03 -0.17040673394E+03  0.25397799720E+03  0.00000000000E+00 0.  1.
         21    1    1    2  502  501 -0.59404790595E+01 -0.37846747220E+02  0.74171023003E+00  0.38317302888E+02  0.00000000000E+00 0. -1.
<scales pt_clust_4="550.00000" pt_clust_5="550.00000" pt_clust_6="38.31012"></scales>
<mgrwt>
<rscale>  0 0.30000000E+03</rscale>
<asrwt>  1 0.38310124E+02</asrwt>
<pdfrwt beam="1">  1        1 0.83807411E+00 0.30000000E+03</pdfrwt>
<pdfrwt beam="2">0</pdfrwt>
<totfact> 0.50528461E-04</totfact>
</mgrwt>
<clustering>
<clus scale="   38.310">  1  6  2 -1</clus>
<clus scale="  463.373">  4  5 -1 -1</clus>
<clus scale="  300.000">  1  4  2 -1</clus>
</clustering>
</event>
<event>
 6    1  0.9462926E-012  0.3000000E+03  0.7818608E-02  0.1093470E+00
          1   -1    0    0  502    0  0.00000000000E+00  0.00000000000E+00  0.22668794649E+03  0.22668794649E+03  0.00000000000E+00 0.  1.
         13   -1    0    0    0    0 -0.00000000000E+00 -0.00000000000E+00 -0.27500000000E+03  0.27500000000E+03  0.00000000000E+00 0.  1.
    9000005    2    1    2  501    0  0.30290532080E+02 -0.98420080968E+00 -0.58646954201E+02  0.46966771605E+03  0.46500517554E+03 0.  0.
         13    1    3    3    0    0  0.19101430885E+03  0.10964941552E+03  0.75558931386E+02  0.23284890513E+03  0.00000000000E+00 0.  1.
          3    1    3    3  501    0 -0.16072377677E+03 -0.11063361633E+03 -0.13420588559E+03  0.23681881092E+03  0.00000000000E+00 0.  1.
         21    1    1    2  502  501 -0.30290532080E+02  0.98420080968E+00  0.10334900690E+02  0.32020230436E+02  0.00000000000E+00 0.  1.
<scales pt_clust_4="550.00000" pt_clust_5="550.00000" pt_clust_6="30.30652"></scales>
<mgrwt>
<rscale>  0 0.30000000E+03</rscale>
<asrwt>  1 0.30306517E+02</asrwt>
<pdfrwt beam="1">  1        1 0.82431981E+00 0.30000000E+03</pdfrwt>
<pdfrwt beam="2">0</pdfrwt>
<totfact> 0.68070562E-04</totfact>
</mgrwt>
<clustering>
<clus scale="   30.307">  1  6  2 -1</clus>
<clus scale="  465.005">  4  5 -1 -1</clus>
<clus scale="  300.000">  1  4  2 -1</clus>
</clustering>
</event>
<event>
 6    1  0.9462926E-012  0.3000000E+03  0.7818608E-02  0.1093470E+00
          1   -1    0    0  502    0  0.00000000000E+00  0.00000000000E+00  0.22266804721E+03  0.22266804721E+03  0.00000000000E+00 0.  1.
         13   -1    0    0    0    0 -0.00000000000E+00 -0.00000000000E+00 -0.27500000000E+03  0.27500000000E+03  0.00000000000E+00 0.  1.
    9000005    2    1    2  501    0  0.16037703659E+02  0.28348601196E+02 -0.62889028219E+02  0.46342913703E+03  0.45798546271E+03 0.  0.
         13    1    3    3    0    0 -0.21941423354E+02 -0.16295782863E+03 -0.17363937800E+03  0.23913869106E+03  0.00000000000E+00 0.  1.
          1    1    3    3  501    0  0.37979127014E+02  0.19130642982E+03  0.11075034978E+03  0.22429044597E+03  0.00000000000E+00 0.  1.
         21    1    1    2  502  501 -0.16037703659E+02 -0.28348601196E+02  0.10557075425E+02  0.34238910175E+02  0.00000000000E+00 0. -1.
<scales pt_clust_4="550.00000" pt_clust_5="550.00000" pt_clust_6="32.57071"></scales>
<mgrwt>
<rscale>  0 0.30000000E+03</rscale>
<asrwt>  1 0.32570710E+02</asrwt>
<pdfrwt beam="1">  1        1 0.80970199E+00 0.30000000E+03</pdfrwt>
<pdfrwt beam="2">0</pdfrwt>
<totfact> 0.88877701E-04</totfact>
</mgrwt>
<clustering>
<clus scale="   32.571">  1  6  2 -1</clus>
<clus scale="  457.985">  4  5 -1 -1</clus>
<clus scale="  300.000">  1  4  2 -1</clus>
</clustering>
</event>
<event>
 6    1  0.9462926E-012  0.3000000E+03  0.7818608E-02  0.1093470E+00
          1   -1    0    0  502    0  0.00000000000E+00  0.00000000000E+00  0.24499149086E+03  0.24499149086E+03  0.00000000000E+00 0.  1.
         13   -1    0    0    0    0 -0.00000000000E+00 -0.00000000000E+00 -0.27500000000E+03  0.27500000000E+03  0.00000000000E+00 0.  1.
    9000005    2    1    2  501    0  0.28432498965E+02 -0.24932662069E+02 -0.37302677059E+02  0.48147851225E+03  0.47853946902E+03 0.  0.
         13    1    3    3    0    0 -0.14118739395E+03 -0.36385641125E+02 -0.19910657276E+03  0.24678173029E+03  0.00000000000E+00 0.  1.
          1    1    3    3  501    0  0.16961989291E+03  0.11452979056E+02  0.16180389570E+03  0.23469678196E+03  0.00000000000E+00 0.  1.
         21    1    1    2  502  501 -0.28432498965E+02  0.24932662069E+02  0.72941679141E+01  0.38512978602E+02  0.00000000000E+00 0. -1.
<scales pt_clust_4="550.00000" pt_clust_5="550.00000" pt_clust_6="37.81593"></scales>
<mgrwt>
<rscale>  0 0.30000000E+03</rscale>
<asrwt>  1 0.37815931E+02</asrwt>
<pdfrwt beam="1">  1        1 0.89087815E+00 0.30000000E+03</pdfrwt>
<pdfrwt beam="2">0</pdfrwt>
<totfact> 0.13914514E-04</totfact>
</mgrwt>
<clustering>
<clus scale="   37.816">  1  6  2 -1</clus>
<clus scale="  478.539">  4  5 -1 -1</clus>
<clus scale="  300.000">  1  4  2 -1</clus>
</clustering>
</event>
<event>
 6    1  0.9462926E-012  0.3000000E+03  0.7818608E-02  0.1093470E+00
          1   -1    0    0  502    0  0.00000000000E+00  0.00000000000E+00  0.26599456299E+03  0.26599456299E+03  0.00000000000E+00 0.  1.
         13   -1    0    0    0    0 -0.00000000000E+00 -0.00000000000E+00 -0.27500000000E+03  0.27500000000E+03  0.00000000000E+00 0.  1.
    9000005    2    1    2  501    0 -0.44141081599E+02 -0.28241259264E+02 -0.14985607887E+02  0.48825211089E+03  0.48520052714E+03 0.  0.
         13    1    3    3    0    0 -0.26375044779E+03 -0.43294365421E+02  0.40008941589E+01  0.26731013438E+03  0.00000000000E+00 0.  1.
          1    1    3    3  501    0  0.21960936619E+03  0.15053106157E+02 -0.18986502046E+02  0.22094197651E+03  0.00000000000E+00 0.  1.
         21    1    1    2  502  501  0.44141081599E+02  0.28241259264E+02  0.59801708777E+01  0.52742452098E+02  0.00000000000E+00 0.  1.
<scales pt_clust_4="550.00000" pt_clust_5="550.00000" pt_clust_6="52.40233"></scales>
<mgrwt>
<rscale>  0 0.30000000E+03</rscale>
<asrwt>  1 0.52402326E+02</asrwt>
<pdfrwt beam="1">  1        1 0.96725296E+00 0.30000000E+03</pdfrwt>
<pdfrwt beam="2">0</pdfrwt>
<totfact> 0.50625815E-06</totfact>
</mgrwt>
<clustering>
<clus scale="   52.402">  1  6  2 -1</clus>
<clus scale="  485.201">  4  5 -1 -1</clus>
<clus scale="  300.000">  1  4  2 -1</clus>
</clustering>
</event>
<event>
 6    1  0.9462926E-012  0.3000000E+03  0.7818608E-02  0.1093470E+00
          1   -1    0    0  502    0  0.00000000000E+00  0.00000000000E+00  0.22185366384E+03  0.22185366384E+03  0.00000000000E+00 0.  1.
         13   -1    0    0    0    0 -0.00000000000E+00 -0.00000000000E+00 -0.27500000000E+03  0.27500000000E+03  0.00000000000E+00 0.  1.
    9000005    2    1    2  501    0  0.32984687285E+02  0.46187772729E-01 -0.41170001183E+02  0.46176200773E+03  0.45873869584E+03 0.  0.
         13    1    3    3    0    0  0.21645341648E+03  0.11325531084E+03 -0.18644986951E+02  0.24500302544E+03  0.00000000000E+00 0.  1.
          3    1    3    3  501    0 -0.18346872919E+03 -0.11320912307E+03 -0.22525014232E+02  0.21675898229E+03  0.00000000000E+00 0.  1.
         21    1    1    2  502  501 -0.32984687285E+02 -0.46187772729E-01 -0.11976334980E+02  0.35091656104E+02  0.00000000000E+00 0.  1.
<scales pt_clust_4="550.00000" pt_clust_5="550.00000" pt_clust_6="32.98474"></scales>
<mgrwt>
<rscale>  0 0.30000000E+03</rscale>
<asrwt>  1 0.32984736E+02</asrwt>
<pdfrwt beam="1">  1        1 0.80674060E+00 0.30000000E+03</pdfrwt>
<pdfrwt beam="2">0</pdfrwt>
<totfact> 0.93459814E-04</totfact>
</mgrwt>
<clustering>
<clus scale="   32.985">  1  6  2 -1</clus>
<clus scale="  458.739">  4  5 -1 -1</clus>
<clus scale="  300.000">  1  4  2 -1</clus>
</clustering>
</event>
<event>
 6    1  0.9462926E-012  0.3000000E+03  0.7818608E-02  0.1093470E+00
          1   -1    0    0  502    0  0.00000000000E+00  0.00000000000E+00  0.22320213958E+03  0.22320213958E+03  0.00000000000E+00 0.  1.
         13   -1    0    0    0    0 -0.00000000000E+00 -0.00000000000E+00 -0.27500000000E+03  0.27500000000E+03  0.00000000000E+00 0.  1.
    9000005    2    1    2  501    0 -0.25535017012E+02 -0.24732321536E+02 -0.37820609881E+02  0.46000412451E+03  0.45706637506E+03 0.  0.
         13    1    3    3    0    0 -0.97663939551E+02 -0.87515830889E+02  0.17965930432E+03  0.22242916035E+03  0.00000000000E+00 0.  1.
          3    1    3    3  501    0  0.72128922538E+02  0.62783509352E+02 -0.21747991420E+03  0.23757496416E+03  0.00000000000E+00 0.  1.
         21    1    1    2  502  501  0.25535017012E+02  0.24732321536E+02 -0.13977250541E+02  0.38198015067E+02  0.00000000000E+00 0.  1.
<scales pt_clust_4="550.00000" pt_clust_5="550.00000" pt_clust_6="35.54893"></scales>
<mgrwt>
<rscale>  0 0.30000000E+03</rscale>
<asrwt>  1 0.35548925E+02</asrwt>
<pdfrwt beam="1">  1        1 0.81164414E+00 0.30000000E+03</pdfrwt>
<pdfrwt beam="2">0</pdfrwt>
<totfact> 0.84419302E-04</totfact>
</mgrwt>
<clustering>
<clus scale="   35.549">  1  6  2 -1</clus>
<clus scale="  457.066">  4  5 -1 -1</clus>
<clus scale="  300.000">  1  4  2 -1</clus>
</clustering>
</event>
<event>
 6    1  0.9462926E-012  0.3000000E+03  0.7818608E-02  0.1093470E+00
          1   -1    0    0  502    0  0.00000000000E+00  0.00000000000E+00  0.23151848667E+03  0.23151848667E+03  0.00000000000E+00 0.  1.
         13   -1    0    0    0    0 -0.00000000000E+00 -0.00000000000E+00 -0.27500000000E+03  0.27500000000E+03  0.00000000000E+00 0.  1.
    9000005    2    1    2  501    0  0.22345673239E+02  0.21082309027E+02 -0.53864543757E+02  0.47409010116E+03  0.47001727848E+03 0.  0.
         13    1    3    3    0    0 -0.13390936592E+03  0.19141607459E+03  0.11466285123E+02  0.23388738228E+03  0.00000000000E+00 0.  1.
          1    1    3    3  501    0  0.15625503916E+03 -0.17033376556E+03 -0.65330828881E+02  0.24020271888E+03  0.00000000000E+00 0.  1.
         21    1    1    2  502  501 -0.22345673239E+02 -0.21082309027E+02  0.10383030432E+02  0.32428385519E+02  0.00000000000E+00 0.  1.
<scales pt_clust_4="550.00000" pt_clust_5="550.00000" pt_clust_6="30.72121"></scales>
<mgrwt>
<rscale>  0 0.30000000E+03</rscale>
<asrwt>  1 0.30721212E+02</asrwt>
<pdfrwt beam="1">  1        1 0.84188541E+00 0.30000000E+03</pdfrwt>
<pdfrwt beam="2">0</pdfrwt>
<totfact> 0.49221347E-04</totfact>
</mgrwt>
<clustering>
<clus scale="   30.721">  1  6  2 -1</clus>
<clus scale="  470.017">  4  5 -1 -1</clus>
<clus scale="  300.000">  1  4  2 -1</clus>
</clustering>
</event>
<event>
 6    1  0.9462926E-012  0.3000000E+03  0.7818608E-02  0.1093470E+00
          1   -1    0    0  502    0  0.00000000000E+00  0.00000000000E+00  0.24573938828E+03  0.24573938828E+03  0.00000000000E+00 0.  1.
         13   -1    0    0    0    0 -0.00000000000E+00 -0.00000000000E+00 -0.27500000000E+03  0.27500000000E+03  0.00000000000E+00 0.  1.
    9000005    2    1    2  501    0  0.31554542445E+02  0.64272983455E+01 -0.46290520814E+02  0.48431114214E+03  0.48101712108E+03 0.  0.
         13    1    3    3    0    0  0.21512954040E+03  0.45913957004E+02 -0.15335962142E+03  0.26815664094E+03  0.00000000000E+00 0.  1.
          3    1    3    3  501    0 -0.18357499795E+03 -0.39486658659E+02  0.10706910061E+03  0.21615450120E+03  0.00000000000E+00 0.  1.
         21    1    1    2  502  501 -0.31554542445E+02 -0.64272983455E+01  0.17029909092E+02  0.36428246137E+02  0.00000000000E+00 0. -1.
<scales pt_clust_4="550.00000" pt_clust_5="550.00000" pt_clust_6="32.20247"></scales>
<mgrwt>
<rscale>  0 0.30000000E+03</rscale>
<asrwt>  1 0.32202474E+02</asrwt>
<pdfrwt beam="1">  1        1 0.89359778E+00 0.30000000E+03</pdfrwt>
<pdfrwt beam="2">0</pdfrwt>
<totfact> 0.13287708E-04</totfact>
</mgrwt>
<clustering>
<clus scale="   32.202">  1  6  2 -1</clus>
<clus scale="  481.017">  4  5 -1 -1</clus>
<clus scale="  300.000">  1  4  2 -1</clus>
</clustering>
</event>
<event>
 6    1  0.9462926E-012  0.3000000E+03  0.7818608E-02  0.1093470E+00
          1   -1    0    0  502    0  0.00000000000E+00  0.00000000000E+00  0.22321292753E+03  0.22321292753E+03  0.00000000000E+00 0.  1.
         13   -1    0    0    0    0 -0.00000000000E+00 -0.00000000000E+00 -0.27500000000E+03  0.27500000000E+03  0.00000000000E+00 0.  1.
    9000005    2    1    2  501    0  0.18742838531E+02  0.26563143491E+02 -0.58859646262E+02  0.46494258205E+03  0.46005461856E+03 0.  0.
         13    1    3    3    0    0  0.14419535927E+03 -0.14620949003E+03  0.68321560329E+02  0.21641938965E+03  0.00000000000E+00 0.  1.
          3    1    3    3  501    0 -0.12545252074E+03  0.17277263352E+03 -0.12718120659E+03  0.24852319240E+03  0.00000000000E+00 0.  1.
         21    1    1    2  502  501 -0.18742838531E+02 -0.26563143491E+02  0.70725737933E+01  0.33270345480E+02  0.00000000000E+00 0. -1.
<scales pt_clust_4="550.00000" pt_clust_5="550.00000" pt_clust_6="32.50992"></scales>
<mgrwt>
<rscale>  0 0.30000000E+03</rscale>
<asrwt>  1 0.32509915E+02</asrwt>
<pdfrwt beam="1">  1        1 0.81168337E+00 0.30000000E+03</pdfrwt>
<pdfrwt beam="2">0</pdfrwt>
<totfact> 0.85788721E-04</totfact>
</mgrwt>
<clustering>
<clus scale="   32.510">  1  6  2 -1</clus>
<clus scale="  460.055">  4  5 -1 -1</clus>
<clus scale="  300.000">  1  4  2 -1</clus>
</clustering>
</event>
<event>
 6    1  0.9462926E-012  0.3000000E+03  0.7818608E-02  0.1093470E+00
          1   -1    0    0  502    0  0.00000000000E+00  0.00000000000E+00  0.22252130681E+03  0.22252130681E+03  0.00000000000E+00 0.  1.
         13   -1    0    0    0    0 -0.00000000000E+00 -0.00000000000E+00 -0.27500000000E+03  0.27500000000E+03  0.00000000000E+00 0.  1.
    9000005    2    1    2  501    0  0.32200589045E+02 -0.10684447618E+02 -0.55820188036E+02  0.46343023843E+03  0.45880350603E+03 0.  0.
         13    1    3    3    0    0  0.22198080526E+03 -0.54034375958E+02  0.60914544347E+02  0.23644401748E+03  0.00000000000E+00 0.  1.
          1    1    3    3  501    0 -0.18978021622E+03  0.43349928340E+02 -0.11673473238E+03  0.22698622095E+03  0.00000000000E+00 0.  1.
         21    1    1    2  502  501 -0.32200589045E+02  0.10684447618E+02  0.33414948497E+01  0.34091068384E+02  0.00000000000E+00 0.  1.
<scales pt_clust_4="550.00000" pt_clust_5="550.00000" pt_clust_6="33.92691"></scales>
<mgrwt>
<rscale>  0 0.30000000E+03</rscale>
<asrwt>  1 0.33926912E+02</asrwt>
<pdfrwt beam="1">  1        1 0.80916839E+00 0.30000000E+03</pdfrwt>
<pdfrwt beam="2">0</pdfrwt>
<totfact> 0.89042012E-04</totfact>
</mgrwt>
<clustering>
<clus scale="   33.927">  1  6  2 -1</clus>
<clus scale="  458.804">  4  5 -1 -1</clus>
<clus scale="  300.000">  1  4  2 -1</clus>
</clustering>
</event>
<event>
 6    1  0.9462926E-012  0.3000000E+03  0.7818608E-02  0.1093470E+00
          1   -1    0    0  502    0  0.00000000000E+00  0.00000000000E+00  0.24003318700E+03  0.24003318700E+03  0.00000000000E+00 0.  1.
         13   -1    0    0    0    0 -0.00000000000E+00 -0.00000000000E+00 -0.27500000000E+03  0.27500000000E+03  0.00000000000E+00 0.  1.
    9000005    2    1    2  501    0 -0.24553876284E+02  0.17314986201E+02 -0.44358195799E+02  0.48355462829E+03  0.48057749367E+03 0.  0.
         13    1    3    3    0    0 -0.70974437681E+02  0.22583730506E+03 -0.10863994935E+03  0.26046592436E+03  0.00000000000E+00 0.  1.
          1    1    3    3  501    0  0.46420561396E+02 -0.20852231886E+03  0.64281753547E+02  0.22308870393E+03  0.00000000000E+00 0.  1.
         21    1    1    2  502  501  0.24553876284E+02 -0.17314986201E+02  0.93913828041E+01  0.31478558714E+02  0.00000000000E+00 0. -1.
<scales pt_clust_4="550.00000" pt_clust_5="550.00000" pt_clust_6="30.04499"></scales>
<mgrwt>
<rscale>  0 0.30000000E+03</rscale>
<asrwt>  1 0.30044993E+02</asrwt>
<pdfrwt beam="1">  1        1 0.87284795E+00 0.30000000E+03</pdfrwt>
<pdfrwt beam="2">0</pdfrwt>
<totfact> 0.24379193E-04</totfact>
</mgrwt>
<clustering>
<clus scale="   30.045">  1  6  2 -1</clus>
<clus scale="  480.577">  4  5 -1 -1</clus>
<clus scale="  300.000">  1  4  2 -1</clus>
</clustering>
</event>
<event>
 6    1  0.9462926E-012  0.3000000E+03  0.7818608E-02  0.1093470E+00
          1   -1    0    0  502    0  0.00000000000E+00  0.00000000000E+00  0.22643897762E+03  0.22643897762E+03  0.00000000000E+00 0.  1.
         13   -1    0    0    0    0 -0.00000000000E+00 -0.00000000000E+00 -0.27500000000E+03  0.27500000000E+03  0.00000000000E+00 0.  1.
    9000005    2    1    2  501    0 -0.34123250006E+02  0.12046116750E+01 -0.24785513227E+02  0.45983222197E+03  0.45789245835E+03 0.  0.
         13    1    3    3    0    0 -0.18195125134E+03 -0.51927319446E+02  0.13755575012E+03  0.23393223112E+03  0.00000000000E+00 0.  1.
          1    1    3    3  501    0  0.14782800133E+03  0.53131931121E+02 -0.16234126334E+03  0.22589999085E+03  0.00000000000E+00 0.  1.
         21    1    1    2  502  501  0.34123250006E+02 -0.12046116750E+01 -0.23775509151E+02  0.41606755650E+02  0.00000000000E+00 0. -1.
<scales pt_clust_4="550.00000" pt_clust_5="550.00000" pt_clust_6="34.14452"></scales>
<mgrwt>
<rscale>  0 0.30000000E+03</rscale>
<asrwt>  1 0.34144523E+02</asrwt>
<pdfrwt beam="1">  1        1 0.82341446E+00 0.30000000E+03</pdfrwt>
<pdfrwt beam="2">0</pdfrwt>
<totfact> 0.67796519E-04</totfact>
</mgrwt>
<clustering>
<clus scale="   34.145">  1  6  2 -1</clus>
<clus scale="  457.892">  4  5 -1 -1</clus>
<clus scale="  300.000">  1  4  2 -1</clus>
</clustering>
</event>
<event>
 6    1  0.9462926E-012  0.3000000E+03  0.7818608E-02  0.1093470E+00
          1   -1    0    0  502    0  0.00000000000E+00  0.00000000000E+00  0.22630597982E+03  0.22630597982E+03  0.00000000000E+00 0.  1.
         13   -1    0    0    0    0 -0.00000000000E+00 -0.00000000000E+00 -0.27500000000E+03  0.27500000000E+03  0.00000000000E+00 0.  1.
    9000005    2    1    2  501    0  0.31709497178E+02  0.88378454710E+01 -0.69208308281E+02  0.46251892347E+03  0.45612538288E+03 0.  0.
         13    1    3    3    0    0  0.15266606482E+03  0.16816485012E+02  0.14830766803E+03  0.21350617301E+03  0.00000000000E+00 0.  1.
          3    1    3    3  501    0 -0.12095656764E+03 -0.79786395414E+01 -0.21751597631E+03  0.24901275047E+03  0.00000000000E+00 0.  1.
         21    1    1    2  502  501 -0.31709497178E+02 -0.88378454710E+01  0.20514288101E+02  0.38787056348E+02  0.00000000000E+00 0. -1.
<scales pt_clust_4="550.00000" pt_clust_5="550.00000" pt_clust_6="32.91808"></scales>
<mgrwt>
<rscale>  0 0.30000000E+03</rscale>
<asrwt>  1 0.32918076E+02</asrwt>
<pdfrwt beam="1">  1        1 0.82293084E+00 0.30000000E+03</pdfrwt>
<pdfrwt beam="2">0</pdfrwt>
<totfact> 0.68947059E-04</totfact>
</mgrwt>
<clustering>
<clus scale="   32.918">  1  6  2 -1</clus>
<clus scale="  456.125">  4  5 -1 -1</clus>
<clus scale="  300.000">  1  4  2 -1</clus>
</clustering>
</event>
<event>
 6    1  0.9462926E-012  0.3000000E+03  0.7818608E-02  0.1093470E+00
          1   -1    0    0  502    0  0.00000000000E+00  0.00000000000E+00  0.23183821281E+03  0.23183821281E+03  0.00000000000E+00 0.  1.
         13   -1    0    0    0    0 -0.00000000000E+00 -0.00000000000E+00 -0.27500000000E+03  0.27500000000E+03  0.00000000000E+00 0.  1.
    9000005    2    1    2  501    0  0.79185110001E+01 -0.33534890377E+02 -0.56792823547E+02  0.46978289145E+03  0.46506262869E+03 0.  0.
         13    1    3    3    0    0  0.12854820341E+03 -0.19116107864E+03  0.61872566251E+02  0.23852759388E+03  0.00000000000E+00 0.  1.
          1    1    3    3  501    0 -0.12062969241E+03  0.15762618827E+03 -0.11866538980E+03  0.23125529757E+03  0.00000000000E+00 0.  1.
         21    1    1    2  502  501 -0.79185110001E+01  0.33534890377E+02  0.13631036357E+02  0.37055321362E+02  0.00000000000E+00 0.  1.
<scales pt_clust_4="550.00000" pt_clust_5="550.00000" pt_clust_6="34.45710"></scales>
<mgrwt>
<rscale>  0 0.30000000E+03</rscale>
<asrwt>  1 0.34457099E+02</asrwt>
<pdfrwt beam="1">  1        1 0.84304805E+00 0.30000000E+03</pdfrwt>
<pdfrwt beam="2">0</pdfrwt>
<totfact> 0.47098412E-04</totfact>
</mgrwt>
<clustering>
<clus scale="   34.457">  1  6  2 -1</clus>
<clus scale="  465.063">  4  5 -1 -1</clus>
<clus scale="  300.000">  1  4  2 -1</clus>
</clustering>
</event>
<event>
 6    1  0.9462926E-012  0.3000000E+03  0.7818608E-02  0.1093470E+00
          1   -1    0    0  502    0  0.00000000000E+00  0.00000000000E+00  0.23477254944E+03  0.23477254944E+03  0.00000000000E+00 0.  1.
         13   -1    0    0    0    0 -0.00000000000E+00 -0.00000000000E+00 -0.27500000000E+03  0.27500000000E+03  0.00000000000E+00 0.  1.
    9000005    2    1    2  501    0  0.24466726564E+02  0.22167187717E+02 -0.53966182177E+02  0.47401282815E+03  0.46977208039E+03 0.  0.
         13    1    3    3    0    0 -0.98280399813E+02 -0.14204975967E+03  0.11569018029E+03  0.20789754454E+03  0.00000000000E+00 0.  1.
          3    1    3    3  501    0  0.12274712638E+03  0.16421694739E+03 -0.16965636247E+03  0.26611528361E+03  0.00000000000E+00 0.  1.
         21    1    1    2  502  501 -0.24466726564E+02 -0.22167187717E+02  0.13738731613E+02  0.35759721285E+02  0.00000000000E+00 0. -1.
<scales pt_clust_4="550.00000" pt_clust_5="550.00000" pt_clust_6="33.01522"></scales>
<mgrwt>
<rscale>  0 0.30000000E+03</rscale>
<asrwt>  1 0.33015223E+02</asrwt>
<pdfrwt beam="1">  1        1 0.85371836E+00 0.30000000E+03</pdfrwt>
<pdfrwt beam="2">0</pdfrwt>
<totfact> 0.37915592E-04</totfact>
</mgrwt>
<clustering>
<clus scale="   33.015">  1  6  2 -1</clus>
<clus scale="  469.772">  4  5 -1 -1</clus>
<clus scale="  300.000">  1  4  2 -1</clus>
</clustering>
</event>
<event>
 6    1  0.9462926E-012  0.3000000E+03  0.7818608E-02  0.1093470E+00
          1   -1    0    0  502    0  0.00000000000E+00  0.00000000000E+00  0.23155766423E+03  0.23155766423E+03  0.00000000000E+00 0.  1.
         13   -1    0    0    0    0 -0.00000000000E+00 -0.00000000000E+00 -0.27500000000E+03  0.27500000000E+03  0.00000000000E+00 0.  1.
    9000005    2    1    2  501    0 -0.33526447421E+02 -0.11005800500E+01 -0.67034628780E+02  0.46554754057E+03  0.45947321698E+03 0.  0.
         13    1    3    3    0    0  0.40807872189E+02  0.42414416520E+02 -0.25345005521E+03  0.26019453424E+03  0.00000000000E+00 0.  1.
          1    1    3    3  501    0 -0.74334319610E+02 -0.43514996570E+02  0.18641542643E+03  0.20535300633E+03  0.00000000000E+00 0.  1.
         21    1    1    2  502  501  0.33526447421E+02  0.11005800500E+01  0.23592293014E+02  0.41010123662E+02  0.00000000000E+00 0.  1.
<scales pt_clust_4="550.00000" pt_clust_5="550.00000" pt_clust_6="33.54451"></scales>
<mgrwt>
<rscale>  0 0.30000000E+03</rscale>
<asrwt>  1 0.33544507E+02</asrwt>
<pdfrwt beam="1">  1        1 0.84202787E+00 0.30000000E+03</pdfrwt>
<pdfrwt beam="2">0</pdfrwt>
<totfact> 0.48274620E-04</totfact>
</mgrwt>
<clustering>
<clus scale="   33.545">  1  6  2 -1</clus>
<clus scale="  459.473">  4  5 -1 -1</clus>
<clus scale="  300.000">  1  4  2 -1</clus>
</clustering>
</event>
<event>
 6    1  0.9462926E-012  0.3000000E+03  0.7818608E-02  0.1093470E+00
          1   -1    0    0  502    0  0.00000000000E+00  0.00000000000E+00  0.23040403874E+03  0.23040403874E+03  0.00000000000E+00 0.  1.
         13   -1    0    0    0    0 -0.00000000000E+00 -0.00000000000E+00 -0.27500000000E+03  0.27500000000E+03  0.00000000000E+00 0.  1.
    9000005    2    1    2  501    0  0.30158832764E+02 -0.11716575197E+02 -0.58292896595E+02  0.47026944943E+03  0.46551955915E+03 0.  0.
         13    1    3    3    0    0 -0.84028665925E+02  0.18970283084E+03  0.51865732106E+02  0.21386452463E+03  0.00000000000E+00 0.  1.
          1    1    3    3  501    0  0.11418749869E+03 -0.20141940604E+03 -0.11015862870E+03  0.25640492480E+03  0.00000000000E+00 0.  1.
         21    1    1    2  502  501 -0.30158832764E+02  0.11716575197E+02  0.13696935332E+02  0.35134589304E+02  0.00000000000E+00 0.  1.
<scales pt_clust_4="550.00000" pt_clust_5="550.00000" pt_clust_6="32.35480"></scales>
<mgrwt>
<rscale>  0 0.30000000E+03</rscale>
<asrwt>  1 0.32354804E+02</asrwt>
<pdfrwt beam="1">  1        1 0.83783287E+00 0.30000000E+03</pdfrwt>
<pdfrwt beam="2">0</pdfrwt>
<totfact> 0.52361936E-04</totfact>
</mgrwt>
<clustering>
<clus scale="   32.355">  1  6  2 -1</clus>
<clus scale="  465.520">  4  5 -1 -1</clus>
<clus scale="  300.000">  1  4  2 -1</clus>
</clustering>
</event>
<event>
 6    1  0.9462926E-012  0.3000000E+03  0.7818608E-02  0.1093470E+00
          1   -1    0    0  502    0  0.00000000000E+00  0.00000000000E+00  0.22315549900E+03  0.22315549900E+03  0.00000000000E+00 0.  1.
         13   -1    0    0    0    0 -0.00000000000E+00 -0.00000000000E+00 -0.27500000000E+03  0.27500000000E+03  0.00000000000E+00 0.  1.
    9000005    2    1    2  501    0  0.18814901276E+02  0.29079519563E+02 -0.59083222996E+02  0.46277163171E+03  0.45767579891E+03 0.  0.
         13    1    3    3    0    0 -0.55683142189E+02 -0.87443662221E+02 -0.22442583559E+03  0.24721238252E+03  0.00000000000E+00 0.  1.
          1    1    3    3  501    0  0.74498043465E+02  0.11652318178E+03  0.16534261260E+03  0.21555924920E+03  0.00000000000E+00 0.  1.
         21    1    1    2  502  501 -0.18814901276E+02 -0.29079519563E+02  0.72387219942E+01  0.35383867287E+02  0.00000000000E+00 0.  1.
<scales pt_clust_4="550.00000" pt_clust_5="550.00000" pt_clust_6="34.63552"></scales>
<mgrwt>
<rscale>  0 0.30000000E+03</rscale>
<asrwt>  1 0.34635516E+02</asrwt>
<pdfrwt beam="1">  1        1 0.81147454E+00 0.30000000E+03</pdfrwt>
<pdfrwt beam="2">0</pdfrwt>
<totfact> 0.85092377E-04</totfact>
</mgrwt>
<clustering>
<clus scale="   34.636">  1  6  2 -1</clus>
<clus scale="  457.676">  4  5 -1 -1</clus>
<clus scale="  300.000">  1  4  2 -1</clus>
</clustering>
</event>
<event>
 6    1  0.9462926E-012  0.3000000E+03  0.7818608E-02  0.1093470E+00
          1   -1    0    0  502    0  0.00000000000E+00  0.00000000000E+00  0.23403605724E+03  0.23403605724E+03  0.00000000000E+00 0.  1.
         13   -1    0    0    0    0 -0.00000000000E+00 -0.00000000000E+00 -0.27500000000E+03  0.27500000000E+03  0.00000000000E+00 0.  1.
    9000005    2    1    2  501    0  0.13088640541E+02  0.43894869755E+02 -0.48063093217E+02  0.46268446569E+03  0.45789603815E+03 0.  0.
         13    1    3    3    0    0 -0.20094516757E+03 -0.75753848418E+02 -0.29653055384E+02  0.21678770632E+03  0.00000000000E+00 0.  1.
          1    1    3    3  501    0  0.21403380811E+03  0.11964871817E+03 -0.18410037833E+02  0.24589675937E+03  0.00000000000E+00 0.  1.
         21    1    1    2  502  501 -0.13088640541E+02 -0.43894869755E+02  0.70991504533E+01  0.46351591549E+02  0.00000000000E+00 0.  1.
<scales pt_clust_4="550.00000" pt_clust_5="550.00000" pt_clust_6="45.80472"></scales>
<mgrwt>
<rscale>  0 0.30000000E+03</rscale>
<asrwt>  1 0.45804717E+02</asrwt>
<pdfrwt beam="1">  1        1 0.85104021E+00 0.30000000E+03</pdfrwt>
<pdfrwt beam="2">0</pdfrwt>
<totfact> 0.37882727E-04</totfact>
</mgrwt>
<clustering>
<clus scale="   45.805">  1  6  2 -1</clus>
<clus scale="  457.896">  4  5 -1 -1</clus>
<clus scale="  300.000">  1  4  2 -1</clus>
</clustering>
</event>
<event>
 6    1  0.9462926E-012  0.3000000E+03  0.7818608E-02  0.1093470E+00
          1   -1    0    0  502    0  0.00000000000E+00  0.00000000000E+00  0.22889464253E+03  0.22889464253E+03  0.00000000000E+00 0.  1.
         13   -1    0    0    0    0 -0.00000000000E+00 -0.00000000000E+00 -0.27500000000E+03  0.27500000000E+03  0.00000000000E+00 0.  1.
    9000005    2    1    2  501    0 -0.15902457594E+02  0.27078245013E+02 -0.42988299018E+02  0.47233778014E+03  0.46932809972E+03 0.  0.
         13    1    3    3    0    0 -0.11638488075E+03 -0.10182665679E+03 -0.19517507742E+03  0.24901288992E+03  0.00000000000E+00 0.  1.
          1    1    3    3  501    0  0.10048242316E+03  0.12890490180E+03  0.15218677840E+03  0.22332489022E+03  0.00000000000E+00 0.  1.
         21    1    1    2  502  501  0.15902457594E+02 -0.27078245013E+02 -0.31170584513E+01  0.31556862390E+02  0.00000000000E+00 0.  1.
<scales pt_clust_4="550.00000" pt_clust_5="550.00000" pt_clust_6="31.40256"></scales>
<mgrwt>
<rscale>  0 0.30000000E+03</rscale>
<asrwt>  1 0.31402556E+02</asrwt>
<pdfrwt beam="1">  1        1 0.83234415E+00 0.30000000E+03</pdfrwt>
<pdfrwt beam="2">0</pdfrwt>
<totfact> 0.57794163E-04</totfact>
</mgrwt>
<clustering>
<clus scale="   31.403">  1  6  2 -1</clus>
<clus scale="  469.328">  4  5 -1 -1</clus>
<clus scale="  300.000">  1  4  2 -1</clus>
</clustering>
</event>
<event>
 6    1  0.9462926E-012  0.3000000E+03  0.7818608E-02  0.1093470E+00
          1   -1    0    0  502    0  0.00000000000E+00  0.00000000000E+00  0.23205702258E+03  0.23205702258E+03  0.00000000000E+00 0.  1.
         13   -1    0    0    0    0 -0.00000000000E+00 -0.00000000000E+00 -0.27500000000E+03  0.27500000000E+03  0.00000000000E+00 0.  1.
    9000005    2    1    2  501    0 -0.16563927096E+02 -0.25642612469E+02 -0.67795422868E+02  0.46769268212E+03  0.46174486277E+03 0.  0.
         13    1    3    3    0    0  0.20788597008E+02 -0.43267104893E+02  0.19543398803E+03  0.20124276834E+03  0.00000000000E+00 0.  1.
          3    1    3    3  501    0 -0.37352524104E+02  0.17624492424E+02 -0.26322941090E+03  0.26644991378E+03  0.00000000000E+00 0.  1.
         21    1    1    2  502  501  0.16563927096E+02  0.25642612469E+02  0.24852445444E+02  0.39364340457E+02  0.00000000000E+00 0. -1.
<scales pt_clust_4="550.00000" pt_clust_5="550.00000" pt_clust_6="30.52716"></scales>
<mgrwt>
<rscale>  0 0.30000000E+03</rscale>
<asrwt>  1 0.30527156E+02</asrwt>
<pdfrwt beam="1">  1        1 0.84384372E+00 0.30000000E+03</pdfrwt>
<pdfrwt beam="2">0</pdfrwt>
<totfact> 0.47448465E-04</totfact>
</mgrwt>
<clustering>
<clus scale="   30.527">  1  6  2 -1</clus>
<clus scale="  461.745">  4  5 -1 -1</clus>
<clus scale="  300.000">  1  4  2 -1</clus>
</clustering>
</event>
<event>
 6    1  0.9462926E-012  0.3000000E+03  0.7818608E-02  0.1093470E+00
          1   -1    0    0  502    0  0.00000000000E+00  0.00000000000E+00  0.23472923049E+03  0.23472923049E+03  0.00000000000E+00 0.  1.
         13   -1    0    0    0    0 -0.00000000000E+00 -0.00000000000E+00 -0.27500000000E+03  0.27500000000E+03  0.00000000000E+00 0.  1.
    9000005    2    1    2  501    0 -0.14449342501E+02  0.30749848154E+02 -0.44253944805E+02  0.47552101005E+03  0.47223668082E+03 0.  0.
         13    1    3    3    0    0  0.19953000217E+03  0.12934322384E+03 -0.18113022625E+02  0.23847426047E+03  0.00000000000E+00 0.  1.
          3    1    3    3  501    0 -0.21397934467E+03 -0.98593375689E+02 -0.26140922180E+02  0.23704674958E+03  0.00000000000E+00 0.  1.
         21    1    1    2  502  501  0.14449342501E+02 -0.30749848154E+02  0.39831752958E+01  0.34208220440E+02  0.00000000000E+00 0.  1.
<scales pt_clust_4="550.00000" pt_clust_5="550.00000" pt_clust_6="33.97553"></scales>
<mgrwt>
<rscale>  0 0.30000000E+03</rscale>
<asrwt>  1 0.33975530E+02</asrwt>
<pdfrwt beam="1">  1        1 0.85356084E+00 0.30000000E+03</pdfrwt>
<pdfrwt beam="2">0</pdfrwt>
<totfact> 0.37844028E-04</totfact>
</mgrwt>
<clustering>
<clus scale="   33.976">  1  6  2 -1</clus>
<clus scale="  472.237">  4  5 -1 -1</clus>
<clus scale="  300.000">  1  4  2 -1</clus>
</clustering>
</event>
<event>
 6    1  0.9462926E-012  0.3000000E+03  0.7818608E-02  0.1093470E+00
          1   -1    0    0  502    0  0.00000000000E+00  0.00000000000E+00  0.22778279808E+03  0.22778279808E+03  0.00000000000E+00 0.  1.
         13   -1    0    0    0    0 -0.00000000000E+00 -0.00000000000E+00 -0.27500000000E+03  0.27500000000E+03  0.00000000000E+00 0.  1.
    9000005    2    1    2  501    0 -0.20265882578E+02  0.33206347817E+02 -0.54278115735E+02  0.46324516997E+03  0.45840659477E+03 0.  0.
         13    1    3    3    0    0 -0.31448278221E+02 -0.20331205737E+03  0.37828772529E+02  0.20917887778E+03  0.00000000000E+00 0.  1.
          1    1    3    3  501    0  0.11182395642E+02  0.23651840519E+03 -0.92106888264E+02  0.25406629220E+03  0.00000000000E+00 0.  1.
         21    1    1    2  502  501  0.20265882578E+02 -0.33206347817E+02  0.70609138100E+01  0.39537628101E+02  0.00000000000E+00 0. -1.
<scales pt_clust_4="550.00000" pt_clust_5="550.00000" pt_clust_6="38.90202"></scales>
<mgrwt>
<rscale>  0 0.30000000E+03</rscale>
<asrwt>  1 0.38902025E+02</asrwt>
<pdfrwt beam="1">  1        1 0.82830108E+00 0.30000000E+03</pdfrwt>
<pdfrwt beam="2">0</pdfrwt>
<totfact> 0.59903130E-04</totfact>
</mgrwt>
<clustering>
<clus scale="   38.902">  1  6  2 -1</clus>
<clus scale="  458.407">  4  5 -1 -1</clus>
<clus scale="  300.000">  1  4  2 -1</clus>
</clustering>
</event>
<event>
 6    1  0.9462926E-012  0.3000000E+03  0.7818608E-02  0.1093470E+00
          1   -1    0    0  502    0  0.00000000000E+00  0.00000000000E+00  0.24699173219E+03  0.24699173219E+03  0.00000000000E+00 0.  1.
         13   -1    0    0    0    0 -0.00000000000E+00 -0.00000000000E+00 -0.27500000000E+03  0.27500000000E+03  0.00000000000E+00 0.  1.
    9000005    2    1    2  501    0  0.16032250566E+02 -0.29651516576E+02 -0.70339725781E+02  0.46787890721E+03  0.46133149610E+03 0.  0.
         13    1    3    3    0    0 -0.12305391143E+03 -0.19531191271E+03 -0.96091764424E+02  0.25004526701E+03  0.00000000000E+00 0.  1.
          3    1    3    3  501    0  0.13908616200E+03  0.16566039613E+03  0.25752038643E+02  0.21783364020E+03  0.00000000000E+00 0.  1.
         21    1    1    2  502  501 -0.16032250566E+02  0.29651516576E+02  0.42331457966E+02  0.54112824977E+02  0.00000000000E+00 0.  1.
<scales pt_clust_4="550.00000" pt_clust_5="550.00000" pt_clust_6="33.70824"></scales>
<mgrwt>
<rscale>  0 0.30000000E+03</rscale>
<asrwt>  1 0.33708241E+02</asrwt>
<pdfrwt beam="1">  1        1 0.89815175E+00 0.30000000E+03</pdfrwt>
<pdfrwt beam="2">0</pdfrwt>
<totfact> 0.11704280E-04</totfact>
</mgrwt>
<clustering>
<clus scale="   33.708">  1  6  2 -1</clus>
<clus scale="  461.331">  4  5 -1 -1</clus>
<clus scale="  300.000">  1  4  2 -1</clus>
</clustering>
</event>
<event>
 6    1  0.9462926E-012  0.3000000E+03  0.7818608E-02  0.1093470E+00
          1   -1    0    0  502    0  0.00000000000E+00  0.00000000000E+00  0.21806999274E+03  0.21806999274E+03  0.00000000000E+00 0.  1.
         13   -1    0    0    0    0 -0.00000000000E+00 -0.00000000000E+00 -0.27500000000E+03  0.27500000000E+03  0.00000000000E+00 0.  1.
    9000005    2    1    2  501    0 -0.22310299499E+02 -0.22582900353E+02 -0.57341090191E+02  0.46132245990E+03  0.45664283038E+03 0.  0.
         13    1    3    3    0    0  0.12331980700E+03  0.10856484693E+03  0.11483609633E+03  0.20045306136E+03  0.00000000000E+00 0.  1.
          1    1    3    3  501    0 -0.14563010650E+03 -0.13114774728E+03 -0.17217718652E+03  0.26086939854E+03  0.00000000000E+00 0.  1.
         21    1    1    2  502  501  0.22310299499E+02  0.22582900353E+02  0.41108293111E+00  0.31747532837E+02  0.00000000000E+00 0.  1.
<scales pt_clust_4="550.00000" pt_clust_5="550.00000" pt_clust_6="31.74487"></scales>
<mgrwt>
<rscale>  0 0.30000000E+03</rscale>
<asrwt>  1 0.31744871E+02</asrwt>
<pdfrwt beam="1">  1        1 0.79298179E+00 0.30000000E+03</pdfrwt>
<pdfrwt beam="2">0</pdfrwt>
<totfact> 0.11902911E-03</totfact>
</mgrwt>
<clustering>
<clus scale="   31.745">  1  6  2 -1</clus>
<clus scale="  456.643">  4  5 -1 -1</clus>
<clus scale="  300.000">  1  4  2 -1</clus>
</clustering>
</event>
<event>
 6    1  0.9462926E-012  0.3000000E+03  0.7818608E-02  0.1093470E+00
          1   -1    0    0  502    0  0.00000000000E+00  0.00000000000E+00  0.23539335379E+03  0.23539335379E+03  0.00000000000E+00 0.  1.
         13   -1    0    0    0    0 -0.00000000000E+00 -0.00000000000E+00 -0.27500000000E+03  0.27500000000E+03  0.00000000000E+00 0.  1.
    9000005    2    1    2  501    0  0.13080238557E+02 -0.30610979483E+02 -0.47918350705E+02  0.47608287234E+03  0.47249402991E+03 0.  0.
         13    1    3    3    0    0  0.16664276663E+03  0.19558978324E+02  0.14689294541E+03  0.22300202402E+03  0.00000000000E+00 0.  1.
          1    1    3    3  501    0 -0.15356252807E+03 -0.50169957807E+02 -0.19481129612E+03  0.25308084833E+03  0.00000000000E+00 0.  1.
         21    1    1    2  502  501 -0.13080238557E+02  0.30610979483E+02  0.83117044983E+01  0.34310481449E+02  0.00000000000E+00 0. -1.
<scales pt_clust_4="550.00000" pt_clust_5="550.00000" pt_clust_6="33.28851"></scales>
<mgrwt>
<rscale>  0 0.30000000E+03</rscale>
<asrwt>  1 0.33288507E+02</asrwt>
<pdfrwt beam="1">  1        1 0.85597583E+00 0.30000000E+03</pdfrwt>
<pdfrwt beam="2">0</pdfrwt>
<totfact> 0.35960538E-04</totfact>
</mgrwt>
<clustering>
<clus scale="   33.289">  1  6  2 -1</clus>
<clus scale="  472.494">  4  5 -1 -1</clus>
<clus scale="  300.000">  1  4  2 -1</clus>
</clustering>
</event>
<event>
 6    1  0.9462926E-012  0.3000000E+03  0.7818608E-02  0.1093470E+00
          1   -1    0    0  502    0  0.00000000000E+00  0.00000000000E+00  0.23643796893E+03  0.23643796893E+03  0.00000000000E+00 0.  1.
         13   -1    0    0    0    0 -0.00000000000E+00 -0.00000000000E+00 -0.27500000000E+03  0.27500000000E+03  0.00000000000E+00 0.  1.
    9000005    2    1    2  501    0 -0.22659094649E+02  0.19796397126E+02 -0.66155671494E+02  0.47061223071E+03  0.46496662989E+03 0.  0.
         13    1    3    3    0    0  0.12550278305E+03  0.19542309759E+03 -0.28265893731E+01  0.23226950990E+03  0.00000000000E+00 0.  1.
          1    1    3    3  501    0 -0.14816187770E+03 -0.17562670046E+03 -0.63329082121E+02  0.23834272080E+03  0.00000000000E+00 0.  1.
         21    1    1    2  502  501  0.22659094649E+02 -0.19796397126E+02  0.27593640428E+02  0.40825738224E+02  0.00000000000E+00 0.  1.
<scales pt_clust_4="550.00000" pt_clust_5="550.00000" pt_clust_6="30.08873"></scales>
<mgrwt>
<rscale>  0 0.30000000E+03</rscale>
<asrwt>  1 0.30088734E+02</asrwt>
<pdfrwt beam="1">  1        1 0.85977443E+00 0.30000000E+03</pdfrwt>
<pdfrwt beam="2">0</pdfrwt>
<totfact> 0.33472472E-04</totfact>
</mgrwt>
<clustering>
<clus scale="   30.089">  1  6  2 -1</clus>
<clus scale="  464.967">  4  5 -1 -1</clus>
<clus scale="  300.000">  1  4  2 -1</clus>
</clustering>
</event>
<event>
 6    1  0.9462926E-012  0.3000000E+03  0.7818608E-02  0.1093470E+00
          1   -1    0    0  502    0  0.00000000000E+00  0.00000000000E+00  0.24015401017E+03  0.24015401017E+03  0.00000000000E+00 0.  1.
         13   -1    0    0    0    0 -0.00000000000E+00 -0.00000000000E+00 -0.27500000000E+03  0.27500000000E+03  0.00000000000E+00 0.  1.
    9000005    2    1    2  501    0 -0.26891120419E+02  0.22918315852E+02 -0.41131945605E+02  0.47926675897E+03  0.47618946623E+03 0.  0.
         13    1    3    3    0    0  0.11475046523E+03  0.21210969165E+03 -0.20533774602E+02  0.24203269710E+03  0.00000000000E+00 0.  1.
          1    1    3    3  501    0 -0.14164158565E+03 -0.18919137580E+03 -0.20598171003E+02  0.23723406187E+03  0.00000000000E+00 0.  1.
         21    1    1    2  502  501  0.26891120419E+02 -0.22918315852E+02  0.62859557774E+01  0.35887251204E+02  0.00000000000E+00 0. -1.
<scales pt_clust_4="550.00000" pt_clust_5="550.00000" pt_clust_6="35.33244"></scales>
<mgrwt>
<rscale>  0 0.30000000E+03</rscale>
<asrwt>  1 0.35332443E+02</asrwt>
<pdfrwt beam="1">  1        1 0.87328731E+00 0.30000000E+03</pdfrwt>
<pdfrwt beam="2">0</pdfrwt>
<totfact> 0.23396363E-04</totfact>
</mgrwt>
<clustering>
<clus scale="   35.332">  1  6  2 -1</clus>
<clus scale="  476.189">  4  5 -1 -1</clus>
<clus scale="  300.000">  1  4  2 -1</clus>
</clustering>
</event>
<event>
 6    1  0.9462926E-012  0.3000000E+03  0.7818608E-02  0.1093470E+00
          1   -1    0    0  502    0  0.00000000000E+00  0.00000000000E+00  0.23747659894E+03  0.23747659894E+03  0.00000000000E+00 0.  1.
         13   -1    0    0    0    0 -0.00000000000E+00 -0.00000000000E+00 -0.27500000000E+03  0.27500000000E+03  0.00000000000E+00 0.  1.
    9000005    2    1    2  501    0 -0.34055130416E+02  0.73265853068E+01 -0.63419961306E+02  0.46907080909E+03  0.46345647227E+03 0.  0.
         13    1    3    3    0    0 -0.24433278332E+03  0.50898856490E+02 -0.44271544494E+02  0.25347420431E+03  0.00000000000E+00 0.  1.
          1    1    3    3  501    0  0.21027765290E+03 -0.43572271183E+02 -0.19148416812E+02  0.21559660478E+03  0.00000000000E+00 0.  1.
         21    1    1    2  502  501  0.34055130416E+02 -0.73265853068E+01  0.25896560242E+02  0.43405789848E+02  0.00000000000E+00 0. -1.
<scales pt_clust_4="550.00000" pt_clust_5="550.00000" pt_clust_6="34.83433"></scales>
<mgrwt>
<rscale>  0 0.30000000E+03</rscale>
<asrwt>  1 0.34834333E+02</asrwt>
<pdfrwt beam="1">  1        1 0.86355127E+00 0.30000000E+03</pdfrwt>
<pdfrwt beam="2">0</pdfrwt>
<totfact> 0.29644234E-04</totfact>
</mgrwt>
<clustering>
<clus scale="   34.834">  1  6  2 -1</clus>
<clus scale="  463.456">  4  5 -1 -1</clus>
<clus scale="  300.000">  1  4  2 -1</clus>
</clustering>
</event>
<event>
 6    1  0.9462926E-012  0.3000000E+03  0.7818608E-02  0.1093470E+00
          1   -1    0    0  502    0  0.00000000000E+00  0.00000000000E+00  0.22063285118E+03  0.22063285118E+03  0.00000000000E+00 0.  1.
         13   -1    0    0    0    0 -0.00000000000E+00 -0.00000000000E+00 -0.27500000000E+03  0.27500000000E+03  0.00000000000E+00 0.  1.
    9000005    2    1    2  501    0  0.32435283262E+02  0.38255971215E+01 -0.59754611149E+02  0.46253137774E+03  0.45749096061E+03 0.  0.
         13    1    3    3    0    0  0.22449022054E+02  0.17887543690E+03  0.11591940230E+03  0.21433079188E+03  0.00000000000E+00 0.  1.
          1    1    3    3  501    0  0.99862612077E+01 -0.17504983978E+03 -0.17567401345E+03  0.24820058586E+03  0.00000000000E+00 0.  1.
         21    1    1    2  502  501 -0.32435283262E+02 -0.38255971215E+01  0.53874623248E+01  0.33101473440E+02  0.00000000000E+00 0.  1.
<scales pt_clust_4="550.00000" pt_clust_5="550.00000" pt_clust_6="32.66011"></scales>
<mgrwt>
<rscale>  0 0.30000000E+03</rscale>
<asrwt>  1 0.32660110E+02</asrwt>
<pdfrwt beam="1">  1        1 0.80230128E+00 0.30000000E+03</pdfrwt>
<pdfrwt beam="2">0</pdfrwt>
<totfact> 0.10109863E-03</totfact>
</mgrwt>
<clustering>
<clus scale="   32.660">  1  6  2 -1</clus>
<clus scale="  457.491">  4  5 -1 -1</clus>
<clus scale="  300.000">  1  4  2 -1</clus>
</clustering>
</event>
<event>
 6    1  0.9462926E-012  0.3000000E+03  0.7818608E-02  0.1093470E+00
          1   -1    0    0  502    0  0.00000000000E+00  0.00000000000E+00  0.23565610763E+03  0.23565610763E+03  0.00000000000E+00 0.  1.
         13   -1    0    0    0    0 -0.00000000000E+00 -0.00000000000E+00 -0.27500000000E+03  0.27500000000E+03  0.00000000000E+00 0.  1.
    9000005    2    1    2  501    0  0.39013535497E+02  0.66227572605E+01 -0.58695708357E+02  0.46660602650E+03  0.46120503133E+03 0.  0.
         13    1    3    3    0    0 -0.16370046335E+03 -0.67195372500E+02 -0.15035459975E+03  0.23220586869E+03  0.00000000000E+00 0.  1.
          3    1    3    3  501    0  0.20271399885E+03  0.73818129760E+02  0.91658891392E+02  0.23440015781E+03  0.00000000000E+00 0.  1.
         21    1    1    2  502  501 -0.39013535497E+02 -0.66227572605E+01  0.19351815989E+02  0.44050081132E+02  0.00000000000E+00 0.  1.
<scales pt_clust_4="550.00000" pt_clust_5="550.00000" pt_clust_6="39.57167"></scales>
<mgrwt>
<rscale>  0 0.30000000E+03</rscale>
<asrwt>  1 0.39571667E+02</asrwt>
<pdfrwt beam="1">  1        1 0.85693130E+00 0.30000000E+03</pdfrwt>
<pdfrwt beam="2">0</pdfrwt>
<totfact> 0.34051976E-04</totfact>
</mgrwt>
<clustering>
<clus scale="   39.572">  1  6  2 -1</clus>
<clus scale="  461.205">  4  5 -1 -1</clus>
<clus scale="  300.000">  1  4  2 -1</clus>
</clustering>
</event>
<event>
 6    1  0.9462926E-012  0.3000000E+03  0.7818608E-02  0.1093470E+00
          1   -1    0    0  502    0  0.00000000000E+00  0.00000000000E+00  0.25287838114E+03  0.25287838114E+03  0.00000000000E+00 0.  1.
         13   -1    0    0    0    0 -0.00000000000E+00 -0.00000000000E+00 -0.27500000000E+03  0.27500000000E+03  0.00000000000E+00 0.  1.
    9000005    2    1    2  501    0 -0.18843975171E+02 -0.33899524437E+02 -0.62755616461E+02  0.47170547915E+03  0.46590076036E+03 0.  0.
         13    1    3    3    0    0 -0.23278499139E+02 -0.24431767544E+03 -0.85784151545E+02  0.25998449129E+03  0.00000000000E+00 0.  1.
          3    1    3    3  501    0  0.44345239680E+01  0.21041815100E+03  0.23028535084E+02  0.21172098786E+03  0.00000000000E+00 0.  1.
         21    1    1    2  502  501  0.18843975171E+02  0.33899524437E+02  0.40633997606E+02  0.56172901996E+02  0.00000000000E+00 0. -1.
<scales pt_clust_4="550.00000" pt_clust_5="550.00000" pt_clust_6="38.78496"></scales>
<mgrwt>
<rscale>  0 0.30000000E+03</rscale>
<asrwt>  1 0.38784960E+02</asrwt>
<pdfrwt beam="1">  1        1 0.91955775E+00 0.30000000E+03</pdfrwt>
<pdfrwt beam="2">0</pdfrwt>
<totfact> 0.41931843E-05</totfact>
</mgrwt>
<clustering>
<clus scale="   38.785">  1  6  2 -1</clus>
<clus scale="  465.901">  4  5 -1 -1</clus>
<clus scale="  300.000">  1  4  2 -1</clus>
</clustering>
</event>
<event>
 6    1  0.9462926E-012  0.3000000E+03  0.7818608E-02  0.1093470E+00
          1   -1    0    0  502    0  0.00000000000E+00  0.00000000000E+00  0.23934068251E+03  0.23934068251E+03  0.00000000000E+00 0.  1.
         13   -1    0    0    0    0 -0.00000000000E+00 -0.00000000000E+00 -0.27500000000E+03  0.27500000000E+03  0.00000000000E+00 0.  1.
    9000005    2    1    2  501    0 -0.19411433779E+02 -0.32522461245E+02 -0.52391985294E+02  0.47293420453E+03  0.46849474644E+03 0.  0.
         13    1    3    3    0    0 -0.71879967313E+02  0.31594892577E+02 -0.24819830261E+03  0.26032165557E+03  0.00000000000E+00 0.  1.
          3    1    3    3  501    0  0.52468533534E+02 -0.64117353823E+02  0.19580631732E+03  0.21261254896E+03  0.00000000000E+00 0.  1.
         21    1    1    2  502  501  0.19411433779E+02  0.32522461245E+02  0.16732667800E+02  0.41406477977E+02  0.00000000000E+00 0.  1.
<scales pt_clust_4="550.00000" pt_clust_5="550.00000" pt_clust_6="37.87498"></scales>
<mgrwt>
<rscale>  0 0.30000000E+03</rscale>
<asrwt>  1 0.37874982E+02</asrwt>
<pdfrwt beam="1">  1        1 0.87032975E+00 0.30000000E+03</pdfrwt>
<pdfrwt beam="2">0</pdfrwt>
<totfact> 0.24763600E-04</totfact>
</mgrwt>
<clustering>
<clus scale="   37.875">  1  6  2 -1</clus>
<clus scale="  468.495">  4  5 -1 -1</clus>
<clus scale="  300.000">  1  4  2 -1</clus>
</clustering>
</event>
<event>
 6    1  0.9462926E-012  0.3000000E+03  0.7818608E-02  0.1093470E+00
          1   -1    0    0  502    0  0.00000000000E+00  0.00000000000E+00  0.25502816137E+03  0.25502816137E+03  0.00000000000E+00 0.  1.
         13   -1    0    0    0    0 -0.00000000000E+00 -0.00000000000E+00 -0.27500000000E+03  0.27500000000E+03  0.00000000000E+00 0.  1.
    9000005    2    1    2  501    0 -0.20055488853E+02  0.28435809354E+02 -0.22442287184E+02  0.49514376654E+03  0.49340943992E+03 0.  0.
         13    1    3    3    0    0 -0.98643448711E+02  0.22724116139E+03  0.76934724489E+02  0.25939935859E+03  0.00000000000E+00 0.  1.
          1    1    3    3  501    0  0.78587959858E+02 -0.19880535204E+03 -0.99377011673E+02  0.23574440795E+03  0.00000000000E+00 0.  1.
         21    1    1    2  502  501  0.20055488853E+02 -0.28435809354E+02  0.24704485589E+01  0.34884394833E+02  0.00000000000E+00 0.  1.
<scales pt_clust_4="550.00000" pt_clust_5="550.00000" pt_clust_6="34.79681"></scales>
<mgrwt>
<rscale>  0 0.30000000E+03</rscale>
<asrwt>  1 0.34796809E+02</asrwt>
<pdfrwt beam="1">  1        1 0.92737513E+00 0.30000000E+03</pdfrwt>
<pdfrwt beam="2">0</pdfrwt>
<totfact> 0.29334829E-05</totfact>
</mgrwt>
<clustering>
<clus scale="   34.797">  1  6  2 -1</clus>
<clus scale="  493.409">  4  5 -1 -1</clus>
<clus scale="  300.000">  1  4  2 -1</clus>
</clustering>
</event>
<event>
 6    1  0.9462926E-012  0.3000000E+03  0.7818608E-02  0.1093470E+00
          1   -1    0    0  502    0  0.00000000000E+00  0.00000000000E+00  0.23597295553E+03  0.23597295553E+03  0.00000000000E+00 0.  1.
         13   -1    0    0    0    0 -0.00000000000E+00 -0.00000000000E+00 -0.27500000000E+03  0.27500000000E+03  0.00000000000E+00 0.  1.
    9000005    2    1    2  501    0 -0.57203079658E+01 -0.45109138573E+02 -0.53617309217E+02  0.46321908520E+03  0.45785319562E+03 0.  0.
         13    1    3    3    0    0  0.19613434003E+03 -0.12357251034E+03 -0.79590446987E+02  0.24509892677E+03  0.00000000000E+00 0.  1.
          3    1    3    3  501    0 -0.20185464800E+03  0.78463371764E+02  0.25973137770E+02  0.21812015843E+03  0.00000000000E+00 0.  1.
         21    1    1    2  502  501  0.57203079658E+01  0.45109138573E+02  0.14590264743E+02  0.47753870328E+02  0.00000000000E+00 0. -1.
<scales pt_clust_4="550.00000" pt_clust_5="550.00000" pt_clust_6="45.47039"></scales>
<mgrwt>
<rscale>  0 0.30000000E+03</rscale>
<asrwt>  1 0.45470389E+02</asrwt>
<pdfrwt beam="1">  1        1 0.85808347E+00 0.30000000E+03</pdfrwt>
<pdfrwt beam="2">0</pdfrwt>
<totfact> 0.32308260E-04</totfact>
</mgrwt>
<clustering>
<clus scale="   45.470">  1  6  2 -1</clus>
<clus scale="  457.853">  4  5 -1 -1</clus>
<clus scale="  300.000">  1  4  2 -1</clus>
</clustering>
</event>
<event>
 6    1  0.9462926E-012  0.3000000E+03  0.7818608E-02  0.1093470E+00
          1   -1    0    0  502    0  0.00000000000E+00  0.00000000000E+00  0.24356145680E+03  0.24356145680E+03  0.00000000000E+00 0.  1.
         13   -1    0    0    0    0 -0.00000000000E+00 -0.00000000000E+00 -0.27500000000E+03  0.27500000000E+03  0.00000000000E+00 0.  1.
    9000005    2    1    2  501    0  0.30125999138E+02 -0.37848713254E+02 -0.46643717865E+02  0.46785348647E+03  0.46300231907E+03 0.  0.
         13    1    3    3    0    0  0.19428693674E+03  0.52330722011E+02 -0.15271695867E+03  0.25260322191E+03  0.00000000000E+00 0.  1.
          1    1    3    3  501    0 -0.16416093760E+03 -0.90179435264E+02  0.10607324080E+03  0.21525026456E+03  0.00000000000E+00 0.  1.
         21    1    1    2  502  501 -0.30125999138E+02  0.37848713254E+02  0.15205174666E+02  0.50707970337E+02  0.00000000000E+00 0.  1.
<scales pt_clust_4="550.00000" pt_clust_5="550.00000" pt_clust_6="48.37459"></scales>
<mgrwt>
<rscale>  0 0.30000000E+03</rscale>
<asrwt>  1 0.48374590E+02</asrwt>
<pdfrwt beam="1">  1        1 0.88567802E+00 0.30000000E+03</pdfrwt>
<pdfrwt beam="2">0</pdfrwt>
<totfact> 0.15662564E-04</totfact>
</mgrwt>
<clustering>
<clus scale="   48.375">  1  6  2 -1</clus>
<clus scale="  463.002">  4  5 -1 -1</clus>
<clus scale="  300.000">  1  4  2 -1</clus>
</clustering>
</event>
<event>
 6    1  0.9462926E-012  0.3000000E+03  0.7818608E-02  0.1093470E+00
          1   -1    0    0  502    0  0.00000000000E+00  0.00000000000E+00  0.22963997339E+03  0.22963997339E+03  0.00000000000E+00 0.  1.
         13   -1    0    0    0    0 -0.00000000000E+00 -0.00000000000E+00 -0.27500000000E+03  0.27500000000E+03  0.00000000000E+00 0.  1.
    9000005    2    1    2  501    0  0.15531028516E+01  0.42099158130E+02 -0.45354519263E+02  0.46251217647E+03  0.45835109874E+03 0.  0.
         13    1    3    3    0    0 -0.87110982383E+02  0.21491986209E+03  0.62716683536E+02  0.24023374611E+03  0.00000000000E+00 0.  1.
          1    1    3    3  501    0  0.88664085234E+02 -0.17282070396E+03 -0.10807120280E+03  0.22227843036E+03  0.00000000000E+00 0.  1.
         21    1    1    2  502  501 -0.15531028516E+01 -0.42099158130E+02 -0.55073419329E-02  0.42127796929E+02  0.00000000000E+00 0. -1.
<scales pt_clust_4="550.00000" pt_clust_5="550.00000" pt_clust_6="42.12780"></scales>
<mgrwt>
<rscale>  0 0.30000000E+03</rscale>
<asrwt>  1 0.42127797E+02</asrwt>
<pdfrwt beam="1">  1        1 0.83505445E+00 0.30000000E+03</pdfrwt>
<pdfrwt beam="2">0</pdfrwt>
<totfact> 0.52238487E-04</totfact>
</mgrwt>
<clustering>
<clus scale="   42.128">  1  6  2 -1</clus>
<clus scale="  458.351">  4  5 -1 -1</clus>
<clus scale="  300.000">  1  4  2 -1</clus>
</clustering>
</event>
<event>
 6    1  0.9462926E-012  0.3000000E+03  0.7818608E-02  0.1093470E+00
          1   -1    0    0  502    0  0.00000000000E+00  0.00000000000E+00  0.24216156583E+03  0.24216156583E+03  0.00000000000E+00 0.  1.
         13   -1    0    0    0    0 -0.00000000000E+00 -0.00000000000E+00 -0.27500000000E+03  0.27500000000E+03  0.00000000000E+00 0.  1.
    9000005    2    1    2  501    0  0.22399414838E+02  0.22148878254E+02 -0.35460954983E+02  0.48555169065E+03  0.48322940554E+03 0.  0.
         13    1    3    3    0    0  0.17703854932E+03  0.16582165083E+03  0.65949686403E+02  0.25137388282E+03  0.00000000000E+00 0.  1.
          3    1    3    3  501    0 -0.15463913448E+03 -0.14367277258E+03 -0.10141064139E+03  0.23417780783E+03  0.00000000000E+00 0.  1.
         21    1    1    2  502  501 -0.22399414838E+02 -0.22148878254E+02  0.26225208083E+01  0.31609875172E+02  0.00000000000E+00 0. -1.
<scales pt_clust_4="550.00000" pt_clust_5="550.00000" pt_clust_6="31.50090"></scales>
<mgrwt>
<rscale>  0 0.30000000E+03</rscale>
<asrwt>  1 0.31500898E+02</asrwt>
<pdfrwt beam="1">  1        1 0.88058751E+00 0.30000000E+03</pdfrwt>
<pdfrwt beam="2">0</pdfrwt>
<totfact> 0.19798429E-04</totfact>
</mgrwt>
<clustering>
<clus scale="   31.501">  1  6  2 -1</clus>
<clus scale="  483.229">  4  5 -1 -1</clus>
<clus scale="  300.000">  1  4  2 -1</clus>
</clustering>
</event>
<event>
 6    1  0.9462926E-012  0.3000000E+03  0.7818608E-02  0.1093470E+00
          1   -1    0    0  502    0  0.00000000000E+00  0.00000000000E+00  0.22934833031E+03  0.22934833031E+03  0.00000000000E+00 0.  1.
         13   -1    0    0    0    0 -0.00000000000E+00 -0.00000000000E+00 -0.27500000000E+03  0.27500000000E+03  0.00000000000E+00 0.  1.
    9000005    2    1    2  501    0 -0.13867415555E+02  0.31893305668E+02 -0.61437564817E+02  0.46615562622E+03  0.46077869453E+03 0.  0.
         13    1    3    3    0    0 -0.17397634962E+03 -0.10778577982E+03 -0.13051629891E+03  0.24273452338E+03  0.00000000000E+00 0.  1.
          3    1    3    3  501    0  0.16010893407E+03  0.13967908549E+03  0.69078734093E+02  0.22342110284E+03  0.00000000000E+00 0.  1.
         21    1    1    2  502  501  0.13867415555E+02 -0.31893305668E+02  0.15785895131E+02  0.38192704090E+02  0.00000000000E+00 0. -1.
<scales pt_clust_4="550.00000" pt_clust_5="550.00000" pt_clust_6="34.77770"></scales>
<mgrwt>
<rscale>  0 0.30000000E+03</rscale>
<asrwt>  1 0.34777696E+02</asrwt>
<pdfrwt beam="1">  1        1 0.83399393E+00 0.30000000E+03</pdfrwt>
<pdfrwt beam="2">0</pdfrwt>
<totfact> 0.55092973E-04</totfact>
</mgrwt>
<clustering>
<clus scale="   34.778">  1  6  2 -1</clus>
<clus scale="  460.779">  4  5 -1 -1</clus>
<clus scale="  300.000">  1  4  2 -1</clus>
</clustering>
</event>
<event>
 6    1  0.9462926E-012  0.3000000E+03  0.7818608E-02  0.1093470E+00
          1   -1    0    0  502    0  0.00000000000E+00  0.00000000000E+00  0.24558252705E+03  0.24558252705E+03  0.00000000000E+00 0.  1.
         13   -1    0    0    0    0 -0.00000000000E+00 -0.00000000000E+00 -0.27500000000E+03  0.27500000000E+03  0.00000000000E+00 0.  1.
    9000005    2    1    2  501    0 -0.49279943687E+00  0.32473112173E+02 -0.37567865762E+02  0.48709857913E+03  0.48456055905E+03 0.  0.
         13    1    3    3    0    0  0.12756684319E+02 -0.16285301843E+03  0.14572971417E+03  0.21890862979E+03  0.00000000000E+00 0.  1.
          1    1    3    3  501    0 -0.13249483756E+02  0.19532613060E+03 -0.18329757993E+03  0.26818994933E+03  0.00000000000E+00 0.  1.
         21    1    1    2  502  501  0.49279943687E+00 -0.32473112173E+02  0.81503928099E+01  0.33483947922E+02  0.00000000000E+00 0. -1.
<scales pt_clust_4="550.00000" pt_clust_5="550.00000" pt_clust_6="32.47685"></scales>
<mgrwt>
<rscale>  0 0.30000000E+03</rscale>
<asrwt>  1 0.32476851E+02</asrwt>
<pdfrwt beam="1">  1        1 0.89302737E+00 0.30000000E+03</pdfrwt>
<pdfrwt beam="2">0</pdfrwt>
<totfact> 0.13471178E-04</totfact>
</mgrwt>
<clustering>
<clus scale="   32.477">  1  6  2 -1</clus>
<clus scale="  484.561">  4  5 -1 -1</clus>
<clus scale="  300.000">  1  4  2 -1</clus>
</clustering>
</event>
<event>
 6    1  0.9462926E-012  0.3000000E+03  0.7818608E-02  0.1093470E+00
          1   -1    0    0  502    0  0.00000000000E+00  0.00000000000E+00  0.24238242068E+03  0.24238242068E+03  0.00000000000E+00 0.  1.
         13   -1    0    0    0    0 -0.00000000000E+00 -0.00000000000E+00 -0.27500000000E+03  0.27500000000E+03  0.00000000000E+00 0.  1.
    9000005    2    1    2  501    0 -0.19074708933E+02 -0.31162600674E+02 -0.26061013245E+02  0.48026179621E+03  0.47816029142E+03 0.  0.
         13    1    3    3    0    0 -0.11688863150E+03 -0.18203853002E+03  0.12108751490E+03  0.24791765740E+03  0.00000000000E+00 0.  1.
          3    1    3    3  501    0  0.97813922566E+02  0.15087592935E+03 -0.14714852815E+03  0.23234413881E+03  0.00000000000E+00 0.  1.
         21    1    1    2  502  501  0.19074708933E+02  0.31162600674E+02 -0.65565660795E+01  0.37120624461E+02  0.00000000000E+00 0.  1.
<scales pt_clust_4="550.00000" pt_clust_5="550.00000" pt_clust_6="36.53702"></scales>
<mgrwt>
<rscale>  0 0.30000000E+03</rscale>
<asrwt>  1 0.36537016E+02</asrwt>
<pdfrwt beam="1">  1        1 0.88139062E+00 0.30000000E+03</pdfrwt>
<pdfrwt beam="2">0</pdfrwt>
<totfact> 0.18807077E-04</totfact>
</mgrwt>
<clustering>
<clus scale="   36.537">  1  6  2 -1</clus>
<clus scale="  478.160">  4  5 -1 -1</clus>
<clus scale="  300.000">  1  4  2 -1</clus>
</clustering>
</event>
<event>
 6    1  0.9462926E-012  0.3000000E+03  0.7818608E-02  0.1093470E+00
          1   -1    0    0  502    0  0.00000000000E+00  0.00000000000E+00  0.22272921095E+03  0.22272921095E+03  0.00000000000E+00 0.  1.
         13   -1    0    0    0    0 -0.00000000000E+00 -0.00000000000E+00 -0.27500000000E+03  0.27500000000E+03  0.00000000000E+00 0.  1.
    9000005    2    1    2  501    0  0.44373824994E+01 -0.30871787410E+02 -0.41948622742E+02  0.46487643727E+03  0.46192819502E+03 0.  0.
         13    1    3    3    0    0  0.15832533316E+03 -0.22523343012E+01  0.14937561438E+03  0.21768109312E+03  0.00000000000E+00 0.  1.
          3    1    3    3  501    0 -0.15388795067E+03 -0.28619453109E+02 -0.19132423713E+03  0.24719534415E+03  0.00000000000E+00 0.  1.
         21    1    1    2  502  501 -0.44373824994E+01  0.30871787410E+02 -0.10322166305E+02  0.32852773682E+02  0.00000000000E+00 0.  1.
<scales pt_clust_4="550.00000" pt_clust_5="550.00000" pt_clust_6="31.18908"></scales>
<mgrwt>
<rscale>  0 0.30000000E+03</rscale>
<asrwt>  1 0.31189078E+02</asrwt>
<pdfrwt beam="1">  1        1 0.80992440E+00 0.30000000E+03</pdfrwt>
<pdfrwt beam="2">0</pdfrwt>
<totfact> 0.89257305E-04</totfact>
</mgrwt>
<clustering>
<clus scale="   31.189">  1  6  2 -1</clus>
<clus scale="  461.928">  4  5 -1 -1</clus>
<clus scale="  300.000">  1  4  2 -1</clus>
</clustering>
</event>
<event>
 6    1  0.9462926E-012  0.3000000E+03  0.7818608E-02  0.1093470E+00
          1   -1    0    0  502    0  0.00000000000E+00  0.00000000000E+00  0.24467765414E+03  0.24467765414E+03  0.00000000000E+00 0.  1.
         13   -1    0    0    0    0 -0.00000000000E+00 -0.00000000000E+00 -0.27500000000E+03  0.27500000000E+03  0.00000000000E+00 0.  1.
    9000005    2    1    2  501    0  0.54310324792E+02  0.21093635473E+02 -0.20840953604E+02  0.46064842718E+03  0.45647352090E+03 0.  0.
         13    1    3    3    0    0  0.20039592304E+03  0.15796117307E+03 -0.44681424153E+02  0.25904958567E+03  0.00000000000E+00 0.  1.
          1    1    3    3  501    0 -0.14608559825E+03 -0.13686753759E+03  0.23840470550E+02  0.20159884151E+03  0.00000000000E+00 0.  1.
         21    1    1    2  502  501 -0.54310324792E+02 -0.21093635473E+02 -0.94813922566E+01  0.59029226961E+02  0.00000000000E+00 0.  1.
<scales pt_clust_4="550.00000" pt_clust_5="550.00000" pt_clust_6="58.26282"></scales>
<mgrwt>
<rscale>  0 0.30000000E+03</rscale>
<asrwt>  1 0.58262820E+02</asrwt>
<pdfrwt beam="1">  1        1 0.88973692E+00 0.30000000E+03</pdfrwt>
<pdfrwt beam="2">0</pdfrwt>
<totfact> 0.13341514E-04</totfact>
</mgrwt>
<clustering>
<clus scale="   58.263">  1  6  2 -1</clus>
<clus scale="  456.474">  4  5 -1 -1</clus>
<clus scale="  300.000">  1  4  2 -1</clus>
</clustering>
</event>
<event>
 6    1  0.9462926E-012  0.3000000E+03  0.7818608E-02  0.1093470E+00
          1   -1    0    0  502    0  0.00000000000E+00  0.00000000000E+00  0.24746844256E+03  0.24746844256E+03  0.00000000000E+00 0.  1.
         13   -1    0    0    0    0 -0.00000000000E+00 -0.00000000000E+00 -0.27500000000E+03  0.27500000000E+03  0.00000000000E+00 0.  1.
    9000005    2    1    2  501    0 -0.39862376085E+02 -0.25165969028E+02 -0.37210395758E+02  0.47434344973E+03  0.47052604574E+03 0.  0.
         13    1    3    3    0    0 -0.27164808604E+02  0.89731831338E+02 -0.23066091636E+03  0.24898631833E+03  0.00000000000E+00 0.  1.
          3    1    3    3  501    0 -0.12697567481E+02 -0.11489780037E+03  0.19345052060E+03  0.22535713139E+03  0.00000000000E+00 0.  1.
         21    1    1    2  502  501  0.39862376085E+02  0.25165969028E+02  0.96788383203E+01  0.48124992836E+02  0.00000000000E+00 0.  1.
<scales pt_clust_4="550.00000" pt_clust_5="550.00000" pt_clust_6="47.14165"></scales>
<mgrwt>
<rscale>  0 0.30000000E+03</rscale>
<asrwt>  1 0.47141649E+02</asrwt>
<pdfrwt beam="1">  1        1 0.89988525E+00 0.30000000E+03</pdfrwt>
<pdfrwt beam="2">0</pdfrwt>
<totfact> 0.10496113E-04</totfact>
</mgrwt>
<clustering>
<clus scale="   47.142">  1  6  2 -1</clus>
<clus scale="  470.526">  4  5 -1 -1</clus>
<clus scale="  300.000">  1  4  2 -1</clus>
</clustering>
</event>
<event>
 6    1  0.9462926E-012  0.3000000E+03  0.7818608E-02  0.1093470E+00
          1   -1    0    0  502    0  0.00000000000E+00  0.00000000000E+00  0.25431646528E+03  0.25431646528E+03  0.00000000000E+00 0.  1.
         13   -1    0    0    0    0 -0.00000000000E+00 -0.00000000000E+00 -0.27500000000E+03  0.27500000000E+03  0.00000000000E+00 0.  1.
    9000005    2    1    2  501    0  0.15736597268E+02  0.39264416265E+02 -0.63016757915E+02  0.46947135968E+03  0.46329570568E+03 0.  0.
         13    1    3    3    0    0 -0.22072804002E+03  0.50376004289E+02 -0.85735652996E+01  0.22656591862E+03  0.00000000000E+00 0.  1.
          1    1    3    3  501    0  0.23646463728E+03 -0.11111588024E+02 -0.54443192615E+02  0.24290544106E+03  0.00000000000E+00 0.  1.
         21    1    1    2  502  501 -0.15736597268E+02 -0.39264416265E+02  0.42333223195E+02  0.59845105600E+02  0.00000000000E+00 0. -1.
<scales pt_clust_4="550.00000" pt_clust_5="550.00000" pt_clust_6="42.30053"></scales>
<mgrwt>
<rscale>  0 0.30000000E+03</rscale>
<asrwt>  1 0.42300530E+02</asrwt>
<pdfrwt beam="1">  1        1 0.92478715E+00 0.30000000E+03</pdfrwt>
<pdfrwt beam="2">0</pdfrwt>
<totfact> 0.31994005E-05</totfact>
</mgrwt>
<clustering>
<clus scale="   42.301">  1  6  2 -1</clus>
<clus scale="  463.296">  4  5 -1 -1</clus>
<clus scale="  300.000">  1  4  2 -1</clus>
</clustering>
</event>
<event>
 6    1  0.9462926E-012  0.3000000E+03  0.7818608E-02  0.1093470E+00
          1   -1    0    0  502    0  0.00000000000E+00  0.00000000000E+00  0.24138532191E+03  0.24138532191E+03  0.00000000000E+00 0.  1.
         13   -1    0    0    0    0 -0.00000000000E+00 -0.00000000000E+00 -0.27500000000E+03  0.27500000000E+03  0.00000000000E+00 0.  1.
    9000005    2    1    2  501    0 -0.12734350183E+02  0.34525332829E+02 -0.40541869520E+02  0.47894005168E+03  0.47580013413E+03 0.  0.
         13    1    3    3    0    0 -0.11879231787E+03  0.14972724893E+03 -0.18492556103E+03  0.26594609788E+03  0.00000000000E+00 0.  1.
          1    1    3    3  501    0  0.10605796768E+03 -0.11520191610E+03  0.14438369151E+03  0.21299395380E+03  0.00000000000E+00 0.  1.
         21    1    1    2  502  501  0.12734350183E+02 -0.34525332829E+02  0.69271914352E+01  0.37445270232E+02  0.00000000000E+00 0. -1.
<scales pt_clust_4="550.00000" pt_clust_5="550.00000" pt_clust_6="36.79894"></scales>
<mgrwt>
<rscale>  0 0.30000000E+03</rscale>
<asrwt>  1 0.36798944E+02</asrwt>
<pdfrwt beam="1">  1        1 0.87776481E+00 0.30000000E+03</pdfrwt>
<pdfrwt beam="2">0</pdfrwt>
<totfact> 0.20784702E-04</totfact>
</mgrwt>
<clustering>
<clus scale="   36.799">  1  6  2 -1</clus>
<clus scale="  475.800">  4  5 -1 -1</clus>
<clus scale="  300.000">  1  4  2 -1</clus>
</clustering>
</event>
<event>
 6    1  0.9462926E-012  0.3000000E+03  0.7818608E-02  0.1093470E+00
          1   -1    0    0  502    0  0.00000000000E+00  0.00000000000E+00  0.23241299184E+03  0.23241299184E+03  0.00000000000E+00 0.  1.
         13   -1    0    0    0    0 -0.00000000000E+00 -0.00000000000E+00 -0.27500000000E+03  0.27500000000E+03  0.00000000000E+00 0.  1.
    9000005    2    1    2  501    0  0.29311818396E+02 -0.11690294934E+02 -0.68480127381E+02  0.46659266215E+03  0.46045992098E+03 0.  0.
         13    1    3    3    0    0  0.48234509768E+01  0.16262479874E+03 -0.19191706413E+03  0.25159938463E+03  0.00000000000E+00 0.  1.
          1    1    3    3  501    0  0.24488367419E+02 -0.17431509367E+03  0.12343693675E+03  0.21499327751E+03  0.00000000000E+00 0.  1.
         21    1    1    2  502  501 -0.29311818396E+02  0.11690294934E+02  0.25893119218E+02  0.40820329692E+02  0.00000000000E+00 0.  1.
<scales pt_clust_4="550.00000" pt_clust_5="550.00000" pt_clust_6="31.55702"></scales>
<mgrwt>
<rscale>  0 0.30000000E+03</rscale>
<asrwt>  1 0.31557023E+02</asrwt>
<pdfrwt beam="1">  1        1 0.84513815E+00 0.30000000E+03</pdfrwt>
<pdfrwt beam="2">0</pdfrwt>
<totfact> 0.45946622E-04</totfact>
</mgrwt>
<clustering>
<clus scale="   31.557">  1  6  2 -1</clus>
<clus scale="  460.460">  4  5 -1 -1</clus>
<clus scale="  300.000">  1  4  2 -1</clus>
</clustering>
</event>
<event>
 6    1  0.9462926E-012  0.3000000E+03  0.7818608E-02  0.1093470E+00
          1   -1    0    0  502    0  0.00000000000E+00  0.00000000000E+00  0.23636767016E+03  0.23636767016E+03  0.00000000000E+00 0.  1.
         13   -1    0    0    0    0 -0.00000000000E+00 -0.00000000000E+00 -0.27500000000E+03  0.27500000000E+03  0.00000000000E+00 0.  1.
    9000005    2    1    2  501    0 -0.22549697153E+02  0.26265144821E+02 -0.71456880235E+02  0.46366234779E+03  0.45681324450E+03 0.  0.
         13    1    3    3    0    0 -0.37064158895E+02 -0.16923387740E+03  0.10273481595E+03  0.20141573807E+03  0.00000000000E+00 0.  1.
          3    1    3    3  501    0  0.14514461742E+02  0.19549902222E+03 -0.17419169618E+03  0.26224660972E+03  0.00000000000E+00 0.  1.
         21    1    1    2  502  501  0.22549697153E+02 -0.26265144821E+02  0.32824550397E+02  0.47705322375E+02  0.00000000000E+00 0. -1.
<scales pt_clust_4="550.00000" pt_clust_5="550.00000" pt_clust_6="34.61714"></scales>
<mgrwt>
<rscale>  0 0.30000000E+03</rscale>
<asrwt>  1 0.34617144E+02</asrwt>
<pdfrwt beam="1">  1        1 0.85951880E+00 0.30000000E+03</pdfrwt>
<pdfrwt beam="2">0</pdfrwt>
<totfact> 0.32797625E-04</totfact>
</mgrwt>
<clustering>
<clus scale="   34.617">  1  6  2 -1</clus>
<clus scale="  456.813">  4  5 -1 -1</clus>
<clus scale="  300.000">  1  4  2 -1</clus>
</clustering>
</event>
<event>
 6    1  0.9462926E-012  0.3000000E+03  0.7818608E-02  0.1093470E+00
          1   -1    0    0  502    0  0.00000000000E+00  0.00000000000E+00  0.23697136637E+03  0.23697136637E+03  0.00000000000E+00 0.  1.
         13   -1    0    0    0    0 -0.00000000000E+00 -0.00000000000E+00 -0.27500000000E+03  0.27500000000E+03  0.00000000000E+00 0.  1.
    9000005    2    1    2  501    0  0.20299338637E+02 -0.24732504020E+02 -0.50320602900E+02  0.47769524621E+03  0.47395867465E+03 0.  0.
         13    1    3    3    0    0  0.54450856807E+02  0.41257461257E+02  0.20274580656E+03  0.21394610535E+03  0.00000000000E+00 0.  1.
          3    1    3    3  501    0 -0.34151518170E+02 -0.65989965277E+02 -0.25306640946E+03  0.26374914087E+03  0.00000000000E+00 0.  1.
         21    1    1    2  502  501 -0.20299338637E+02  0.24732504020E+02  0.12291969266E+02  0.34276120152E+02  0.00000000000E+00 0. -1.
<scales pt_clust_4="550.00000" pt_clust_5="550.00000" pt_clust_6="31.99625"></scales>
<mgrwt>
<rscale>  0 0.30000000E+03</rscale>
<asrwt>  1 0.31996248E+02</asrwt>
<pdfrwt beam="1">  1        1 0.86171406E+00 0.30000000E+03</pdfrwt>
<pdfrwt beam="2">0</pdfrwt>
<totfact> 0.31533482E-04</totfact>
</mgrwt>
<clustering>
<clus scale="   31.996">  1  6  2 -1</clus>
<clus scale="  473.959">  4  5 -1 -1</clus>
<clus scale="  300.000">  1  4  2 -1</clus>
</clustering>
</event>
<event>
 6    1  0.9462926E-012  0.3000000E+03  0.7818608E-02  0.1093470E+00
          1   -1    0    0  502    0  0.00000000000E+00  0.00000000000E+00  0.22489543200E+03  0.22489543200E+03  0.00000000000E+00 0.  1.
         13   -1    0    0    0    0 -0.00000000000E+00 -0.00000000000E+00 -0.27500000000E+03  0.27500000000E+03  0.00000000000E+00 0.  1.
    9000005    2    1    2  501    0 -0.12593608592E+02 -0.31554830355E+02 -0.65118868742E+02  0.46275064067E+03  0.45688442967E+03 0.  0.
         13    1    3    3    0    0 -0.12601019388E+03 -0.36369607144E+02 -0.22870080883E+03  0.26363872486E+03  0.00000000000E+00 0.  1.
          3    1    3    3  501    0  0.11341658529E+03  0.48147767888E+01  0.16358194009E+03  0.19911191581E+03  0.00000000000E+00 0.  1.
         21    1    1    2  502  501  0.12593608592E+02  0.31554830355E+02  0.15014300741E+02  0.37144791329E+02  0.00000000000E+00 0.  1.
<scales pt_clust_4="550.00000" pt_clust_5="550.00000" pt_clust_6="33.97508"></scales>
<mgrwt>
<rscale>  0 0.30000000E+03</rscale>
<asrwt>  1 0.33975083E+02</asrwt>
<pdfrwt beam="1">  1        1 0.81780157E+00 0.30000000E+03</pdfrwt>
<pdfrwt beam="2">0</pdfrwt>
<totfact> 0.75930984E-04</totfact>
</mgrwt>
<clustering>
<clus scale="   33.975">  1  6  2 -1</clus>
<clus scale="  456.884">  4  5 -1 -1</clus>
<clus scale="  300.000">  1  4  2 -1</clus>
</clustering>
</event>
<event>
 6    1  0.9462926E-012  0.3000000E+03  0.7818608E-02  0.1093470E+00
          1   -1    0    0  502    0  0.00000000000E+00  0.00000000000E+00  0.26918695902E+03  0.26918695902E+03  0.00000000000E+00 0.  1.
         13   -1    0    0    0    0 -0.00000000000E+00 -0.00000000000E+00 -0.27500000000E+03  0.27500000000E+03  0.00000000000E+00 0.  1.
    9000005    2    1    2  501    0  0.36215362493E+02 -0.60592443728E+00 -0.27710697343E+02  0.50186170676E+03  0.49978532425E+03 0.  0.
         13    1    3    3    0    0  0.22992865736E+03  0.93079462206E+02  0.80785459958E+02  0.26087787239E+03  0.00000000000E+00 0.  1.
          1    1    3    3  501    0 -0.19371329487E+03 -0.93685386644E+02 -0.10849615730E+03  0.24098383437E+03  0.00000000000E+00 0.  1.
         21    1    1    2  502  501 -0.36215362493E+02  0.60592443728E+00  0.21897656363E+02  0.42325252263E+02  0.00000000000E+00 0. -1.
<scales pt_clust_4="550.00000" pt_clust_5="550.00000" pt_clust_6="36.22043"></scales>
<mgrwt>
<rscale>  0 0.30000000E+03</rscale>
<asrwt>  1 0.36220431E+02</asrwt>
<pdfrwt beam="1">  1        1 0.97886167E+00 0.30000000E+03</pdfrwt>
<pdfrwt beam="2">0</pdfrwt>
<totfact> 0.31423766E-06</totfact>
</mgrwt>
<clustering>
<clus scale="   36.220">  1  6  2 -1</clus>
<clus scale="  499.785">  4  5 -1 -1</clus>
<clus scale="  300.000">  1  4  2 -1</clus>
</clustering>
</event>
<event>
 6    1  0.9462926E-012  0.3000000E+03  0.7818608E-02  0.1093470E+00
          1   -1    0    0  502    0  0.00000000000E+00  0.00000000000E+00  0.24880996012E+03  0.24880996012E+03  0.00000000000E+00 0.  1.
         13   -1    0    0    0    0 -0.00000000000E+00 -0.00000000000E+00 -0.27500000000E+03  0.27500000000E+03  0.00000000000E+00 0.  1.
    9000005    2    1    2  501    0  0.39976327330E+02 -0.76990868878E+01 -0.58923173792E+02  0.47157165290E+03  0.46610138460E+03 0.  0.
         13    1    3    3    0    0 -0.14349318587E+03 -0.12413137260E+03 -0.14402427793E+03  0.23820555134E+03  0.00000000000E+00 0.  1.
          3    1    3    3  501    0  0.18346951320E+03  0.11643228571E+03  0.85101104141E+02  0.23336610156E+03  0.00000000000E+00 0.  1.
         21    1    1    2  502  501 -0.39976327330E+02  0.76990868878E+01  0.32733133915E+02  0.52238307224E+02  0.00000000000E+00 0.  1.
<scales pt_clust_4="550.00000" pt_clust_5="550.00000" pt_clust_6="40.71097"></scales>
<mgrwt>
<rscale>  0 0.30000000E+03</rscale>
<asrwt>  1 0.40710965E+02</asrwt>
<pdfrwt beam="1">  1        1 0.90476349E+00 0.30000000E+03</pdfrwt>
<pdfrwt beam="2">0</pdfrwt>
<totfact> 0.90844967E-05</totfact>
</mgrwt>
<clustering>
<clus scale="   40.711">  1  6  2 -1</clus>
<clus scale="  466.101">  4  5 -1 -1</clus>
<clus scale="  300.000">  1  4  2 -1</clus>
</clustering>
</event>
<event>
 6    1  0.9462926E-012  0.3000000E+03  0.7818608E-02  0.1093470E+00
          1   -1    0    0  502    0  0.00000000000E+00  0.00000000000E+00  0.25305350302E+03  0.25305350302E+03  0.00000000000E+00 0.  1.
         13   -1    0    0    0    0 -0.00000000000E+00 -0.00000000000E+00 -0.27500000000E+03  0.27500000000E+03  0.00000000000E+00 0.  1.
    9000005    2    1    2  501    0  0.74790489335E+01 -0.38917545558E+02 -0.38132974583E+02  0.48524563479E+03  0.48211895918E+03 0.  0.
         13    1    3    3    0    0 -0.14142600936E+02 -0.21836228477E+03 -0.15664899481E+03  0.26911151619E+03  0.00000000000E+00 0.  1.
          3    1    3    3  501    0  0.21621649870E+02  0.17944473921E+03  0.11851602023E+03  0.21613411860E+03  0.00000000000E+00 0.  1.
         21    1    1    2  502  501 -0.74790489335E+01  0.38917545558E+02  0.16186477599E+02  0.42807868228E+02  0.00000000000E+00 0.  1.
<scales pt_clust_4="550.00000" pt_clust_5="550.00000" pt_clust_6="39.62968"></scales>
<mgrwt>
<rscale>  0 0.30000000E+03</rscale>
<asrwt>  1 0.39629680E+02</asrwt>
<pdfrwt beam="1">  1        1 0.92019456E+00 0.30000000E+03</pdfrwt>
<pdfrwt beam="2">0</pdfrwt>
<totfact> 0.40456070E-05</totfact>
</mgrwt>
<clustering>
<clus scale="   39.630">  1  6  2 -1</clus>
<clus scale="  482.119">  4  5 -1 -1</clus>
<clus scale="  300.000">  1  4  2 -1</clus>
</clustering>
</event>
<event>
 6    1  0.9462926E-012  0.3000000E+03  0.7818608E-02  0.1093470E+00
          1   -1    0    0  502    0  0.00000000000E+00  0.00000000000E+00  0.23490428901E+03  0.23490428901E+03  0.00000000000E+00 0.  1.
         13   -1    0    0    0    0 -0.00000000000E+00 -0.00000000000E+00 -0.27500000000E+03  0.27500000000E+03  0.00000000000E+00 0.  1.
    9000005    2    1    2  501    0 -0.32596482485E+02  0.17736329861E+02 -0.32959969707E+02  0.47211504622E+03  0.46949882768E+03 0.  0.
         13    1    3    3    0    0  0.12347230291E+03 -0.14145703426E+03 -0.13061821157E+03  0.22872826524E+03  0.00000000000E+00 0.  1.
          3    1    3    3  501    0 -0.15606878539E+03  0.15919336412E+03  0.97658241858E+02  0.24338678098E+03  0.00000000000E+00 0.  1.
         21    1    1    2  502  501  0.32596482485E+02 -0.17736329861E+02 -0.71357412822E+01  0.37789242794E+02  0.00000000000E+00 0.  1.
<scales pt_clust_4="550.00000" pt_clust_5="550.00000" pt_clust_6="37.10943"></scales>
<mgrwt>
<rscale>  0 0.30000000E+03</rscale>
<asrwt>  1 0.37109425E+02</asrwt>
<pdfrwt beam="1">  1        1 0.85419741E+00 0.30000000E+03</pdfrwt>
<pdfrwt beam="2">0</pdfrwt>
<totfact> 0.36700009E-04</totfact>
</mgrwt>
<clustering>
<clus scale="   37.109">  1  6  2 -1</clus>
<clus scale="  469.499">  4  5 -1 -1</clus>
<clus scale="  300.000">  1  4  2 -1</clus>
</clustering>
</event>
<event>
 6    1  0.9462926E-012  0.3000000E+03  0.7818608E-02  0.1093470E+00
          1   -1    0    0  502    0  0.00000000000E+00  0.00000000000E+00  0.24430929066E+03  0.24430929066E+03  0.00000000000E+00 0.  1.
         13   -1    0    0    0    0 -0.00000000000E+00 -0.00000000000E+00 -0.27500000000E+03  0.27500000000E+03  0.00000000000E+00 0.  1.
    9000005    2    1    2  501    0 -0.33988473621E+02 -0.10630598497E+02  0.15392810547E+02  0.46106912610E+03  0.45943397182E+03 0.  0.
         13    1    3    3    0    0  0.98950008527E+02  0.92266513164E+02  0.18040982417E+03  0.22550369908E+03  0.00000000000E+00 0.  1.
          3    1    3    3  501    0 -0.13293848215E+03 -0.10289711166E+03 -0.16501701363E+03  0.23556542703E+03  0.00000000000E+00 0.  1.
         21    1    1    2  502  501  0.33988473621E+02  0.10630598497E+02 -0.46083519882E+02  0.58240164562E+02  0.00000000000E+00 0.  1.
<scales pt_clust_4="550.00000" pt_clust_5="550.00000" pt_clust_6="35.61218"></scales>
<mgrwt>
<rscale>  0 0.30000000E+03</rscale>
<asrwt>  1 0.35612178E+02</asrwt>
<pdfrwt beam="1">  1        1 0.88839742E+00 0.30000000E+03</pdfrwt>
<pdfrwt beam="2">0</pdfrwt>
<totfact> 0.15187817E-04</totfact>
</mgrwt>
<clustering>
<clus scale="   35.612">  1  6  2 -1</clus>
<clus scale="  459.434">  4  5 -1 -1</clus>
<clus scale="  300.000">  1  4  2 -1</clus>
</clustering>
</event>
<event>
 6    1  0.9462926E-012  0.3000000E+03  0.7818608E-02  0.1093470E+00
          1   -1    0    0  502    0  0.00000000000E+00  0.00000000000E+00  0.22290940644E+03  0.22290940644E+03  0.00000000000E+00 0.  1.
         13   -1    0    0    0    0 -0.00000000000E+00 -0.00000000000E+00 -0.27500000000E+03  0.27500000000E+03  0.00000000000E+00 0.  1.
    9000005    2    1    2  501    0  0.29854546135E+01 -0.32656774698E+02 -0.65986248908E+02  0.46229386053E+03  0.45638366597E+03 0.  0.
         13    1    3    3    0    0 -0.86929212508E+02  0.16192377259E+03 -0.14473841287E+03  0.23393418792E+03  0.00000000000E+00 0.  1.
          1    1    3    3  501    0  0.89914667121E+02 -0.19458054729E+03  0.78752163961E+02  0.22835967261E+03  0.00000000000E+00 0.  1.
         21    1    1    2  502  501 -0.29854546135E+01  0.32656774698E+02  0.13895655345E+02  0.35615545910E+02  0.00000000000E+00 0. -1.
<scales pt_clust_4="550.00000" pt_clust_5="550.00000" pt_clust_6="32.79295"></scales>
<mgrwt>
<rscale>  0 0.30000000E+03</rscale>
<asrwt>  1 0.32792955E+02</asrwt>
<pdfrwt beam="1">  1        1 0.81057966E+00 0.30000000E+03</pdfrwt>
<pdfrwt beam="2">0</pdfrwt>
<totfact> 0.87374341E-04</totfact>
</mgrwt>
<clustering>
<clus scale="   32.793">  1  6  2 -1</clus>
<clus scale="  456.384">  4  5 -1 -1</clus>
<clus scale="  300.000">  1  4  2 -1</clus>
</clustering>
</event>
<event>
 6    1  0.9462926E-012  0.3000000E+03  0.7818608E-02  0.1093470E+00
          1   -1    0    0  502    0  0.00000000000E+00  0.00000000000E+00  0.23257075888E+03  0.23257075888E+03  0.00000000000E+00 0.  1.
         13   -1    0    0    0    0 -0.00000000000E+00 -0.00000000000E+00 -0.27500000000E+03  0.27500000000E+03  0.00000000000E+00 0.  1.
    9000005    2    1    2  501    0 -0.15144037084E+02  0.27179784663E+02 -0.57365661439E+02  0.47305729476E+03  0.46853420629E+03 0.  0.
         13    1    3    3    0    0  0.16577237669E+03  0.16405723406E+03 -0.76339319264E+02  0.24540364420E+03  0.00000000000E+00 0.  1.
          3    1    3    3  501    0 -0.18091641377E+03 -0.13687744940E+03  0.18973657825E+02  0.22765365057E+03  0.00000000000E+00 0.  1.
         21    1    1    2  502  501  0.15144037084E+02 -0.27179784663E+02  0.14936420323E+02  0.34513464120E+02  0.00000000000E+00 0.  1.
<scales pt_clust_4="550.00000" pt_clust_5="550.00000" pt_clust_6="31.11403"></scales>
<mgrwt>
<rscale>  0 0.30000000E+03</rscale>
<asrwt>  1 0.31114025E+02</asrwt>
<pdfrwt beam="1">  1        1 0.84571185E+00 0.30000000E+03</pdfrwt>
<pdfrwt beam="2">0</pdfrwt>
<totfact> 0.45538378E-04</totfact>
</mgrwt>
<clustering>
<clus scale="   31.114">  1  6  2 -1</clus>
<clus scale="  468.534">  4  5 -1 -1</clus>
<clus scale="  300.000">  1  4  2 -1</clus>
</clustering>
</event>
<event>
 6    1  0.9462926E-012  0.3000000E+03  0.7818608E-02  0.1093470E+00
          1   -1    0    0  502    0  0.00000000000E+00  0.00000000000E+00  0.25344796125E+03  0.25344796125E+03  0.00000000000E+00 0.  1.
         13   -1    0    0    0    0 -0.00000000000E+00 -0.00000000000E+00 -0.27500000000E+03  0.27500000000E+03  0.00000000000E+00 0.  1.
    9000005    2    1    2  501    0  0.26905598502E+02  0.15916411195E+02 -0.28886282640E+02  0.49633823516E+03  0.49450984114E+03 0.  0.
         13    1    3    3    0    0  0.19415647875E+03  0.17078660649E+03  0.31603535739E+02  0.26050640427E+03  0.00000000000E+00 0.  1.
          3    1    3    3  501    0 -0.16725088025E+03 -0.15487019530E+03 -0.60489818379E+02  0.23583183089E+03  0.00000000000E+00 0.  1.
         21    1    1    2  502  501 -0.26905598502E+02 -0.15916411195E+02  0.73342438945E+01  0.32109726090E+02  0.00000000000E+00 0. -1.
<scales pt_clust_4="550.00000" pt_clust_5="550.00000" pt_clust_6="31.26089"></scales>
<mgrwt>
<rscale>  0 0.30000000E+03</rscale>
<asrwt>  1 0.31260892E+02</asrwt>
<pdfrwt beam="1">  1        1 0.92162895E+00 0.30000000E+03</pdfrwt>
<pdfrwt beam="2">0</pdfrwt>
<totfact> 0.39398384E-05</totfact>
</mgrwt>
<clustering>
<clus scale="   31.261">  1  6  2 -1</clus>
<clus scale="  494.510">  4  5 -1 -1</clus>
<clus scale="  300.000">  1  4  2 -1</clus>
</clustering>
</event>
<event>
 6    1  0.9462926E-012  0.3000000E+03  0.7818608E-02  0.1093470E+00
          1   -1    0    0  502    0  0.00000000000E+00  0.00000000000E+00  0.24636664863E+03  0.24636664863E+03  0.00000000000E+00 0.  1.
         13   -1    0    0    0    0 -0.00000000000E+00 -0.00000000000E+00 -0.27500000000E+03  0.27500000000E+03  0.00000000000E+00 0.  1.
    9000005    2    1    2  501    0 -0.28231843817E+02  0.10606499739E+02 -0.40073237944E+02  0.48911132586E+03  0.48653313335E+03 0.  0.
         13    1    3    3    0    0 -0.32915957716E+02 -0.59966056308E+02 -0.25438932925E+03  0.26342611681E+03  0.00000000000E+00 0.  1.
          1    1    3    3  501    0  0.46841138984E+01  0.70572556047E+02  0.21431609131E+03  0.22568520905E+03  0.00000000000E+00 0.  1.
         21    1    1    2  502  501  0.28231843817E+02 -0.10606499739E+02  0.11439886572E+02  0.32255322767E+02  0.00000000000E+00 0. -1.
<scales pt_clust_4="550.00000" pt_clust_5="550.00000" pt_clust_6="30.15850"></scales>
<mgrwt>
<rscale>  0 0.30000000E+03</rscale>
<asrwt>  1 0.30158495E+02</asrwt>
<pdfrwt beam="1">  1        1 0.89587872E+00 0.30000000E+03</pdfrwt>
<pdfrwt beam="2">0</pdfrwt>
<totfact> 0.12680528E-04</totfact>
</mgrwt>
<clustering>
<clus scale="   30.158">  1  6  2 -1</clus>
<clus scale="  486.533">  4  5 -1 -1</clus>
<clus scale="  300.000">  1  4  2 -1</clus>
</clustering>
</event>
<event>
 6    1  0.9462926E-012  0.3000000E+03  0.7818608E-02  0.1093470E+00
          1   -1    0    0  502    0  0.00000000000E+00  0.00000000000E+00  0.23143854373E+03  0.23143854373E+03  0.00000000000E+00 0.  1.
         13   -1    0    0    0    0 -0.00000000000E+00 -0.00000000000E+00 -0.27500000000E+03  0.27500000000E+03  0.00000000000E+00 0.  1.
    9000005    2    1    2  501    0 -0.30962005759E+02 -0.12692041637E+02 -0.46836102747E+02  0.47281627386E+03  0.46929934433E+03 0.  0.
         13    1    3    3    0    0  0.51721303662E+02  0.21867714143E+03 -0.26753047291E+02  0.22629739498E+03  0.00000000000E+00 0.  1.
          3    1    3    3  501    0 -0.82683309421E+02 -0.23136918306E+03 -0.20083055455E+02  0.24651887888E+03  0.00000000000E+00 0.  1.
         21    1    1    2  502  501  0.30962005759E+02  0.12692041637E+02  0.32746464758E+01  0.33622269868E+02  0.00000000000E+00 0.  1.
<scales pt_clust_4="550.00000" pt_clust_5="550.00000" pt_clust_6="33.46242"></scales>
<mgrwt>
<rscale>  0 0.30000000E+03</rscale>
<asrwt>  1 0.33462423E+02</asrwt>
<pdfrwt beam="1">  1        1 0.84159470E+00 0.30000000E+03</pdfrwt>
<pdfrwt beam="2">0</pdfrwt>
<totfact> 0.48694116E-04</totfact>
</mgrwt>
<clustering>
<clus scale="   33.462">  1  6  2 -1</clus>
<clus scale="  469.299">  4  5 -1 -1</clus>
<clus scale="  300.000">  1  4  2 -1</clus>
</clustering>
</event>
<event>
 6    1  0.9462926E-012  0.3000000E+03  0.7818608E-02  0.1093470E+00
          1   -1    0    0  502    0  0.00000000000E+00  0.00000000000E+00  0.23594181489E+03  0.23594181489E+03  0.00000000000E+00 0.  1.
         13   -1    0    0    0    0 -0.00000000000E+00 -0.00000000000E+00 -0.27500000000E+03  0.27500000000E+03  0.00000000000E+00 0.  1.
    9000005    2    1    2  501    0  0.26986930627E+02 -0.15218590287E+02 -0.54882533806E+02  0.47615230603E+03  0.47196294993E+03 0.  0.
         13    1    3    3    0    0  0.22639656369E+02 -0.18615349962E+03 -0.18336127841E+03  0.26227283100E+03  0.00000000000E+00 0.  1.
          1    1    3    3  501    0  0.43472742580E+01  0.17093490933E+03  0.12847874461E+03  0.21387947503E+03  0.00000000000E+00 0.  1.
         21    1    1    2  502  501 -0.26986930627E+02  0.15218590287E+02  0.15824348700E+02  0.34789508861E+02  0.00000000000E+00 0.  1.
<scales pt_clust_4="550.00000" pt_clust_5="550.00000" pt_clust_6="30.98225"></scales>
<mgrwt>
<rscale>  0 0.30000000E+03</rscale>
<asrwt>  1 0.30982252E+02</asrwt>
<pdfrwt beam="1">  1        1 0.85797024E+00 0.30000000E+03</pdfrwt>
<pdfrwt beam="2">0</pdfrwt>
<totfact> 0.34775166E-04</totfact>
</mgrwt>
<clustering>
<clus scale="   30.982">  1  6  2 -1</clus>
<clus scale="  471.963">  4  5 -1 -1</clus>
<clus scale="  300.000">  1  4  2 -1</clus>
</clustering>
</event>
<event>
 6    1  0.9462926E-012  0.3000000E+03  0.7818608E-02  0.1093470E+00
          1   -1    0    0  502    0  0.00000000000E+00  0.00000000000E+00  0.21962198544E+03  0.21962198544E+03  0.00000000000E+00 0.  1.
         13   -1    0    0    0    0 -0.00000000000E+00 -0.00000000000E+00 -0.27500000000E+03  0.27500000000E+03  0.00000000000E+00 0.  1.
    9000005    2    1    2  501    0  0.28386633896E+02  0.17662989158E+02 -0.52855430758E+02  0.46109370486E+03  0.45683249220E+03 0.  0.
         13    1    3    3    0    0  0.12743817843E+03 -0.51031759298E+02 -0.21740403890E+03  0.25711718322E+03  0.00000000000E+00 0.  1.
          1    1    3    3  501    0 -0.99051544530E+02  0.68694748456E+02  0.16454860814E+03  0.20397652164E+03  0.00000000000E+00 0.  1.
         21    1    1    2  502  501 -0.28386633896E+02 -0.17662989158E+02 -0.25225837976E+01  0.33528280584E+02  0.00000000000E+00 0.  1.
<scales pt_clust_4="550.00000" pt_clust_5="550.00000" pt_clust_6="33.43325"></scales>
<mgrwt>
<rscale>  0 0.30000000E+03</rscale>
<asrwt>  1 0.33433249E+02</asrwt>
<pdfrwt beam="1">  1        1 0.79862540E+00 0.30000000E+03</pdfrwt>
<pdfrwt beam="2">0</pdfrwt>
<totfact> 0.10702165E-03</totfact>
</mgrwt>
<clustering>
<clus scale="   33.433">  1  6  2 -1</clus>
<clus scale="  456.832">  4  5 -1 -1</clus>
<clus scale="  300.000">  1  4  2 -1</clus>
</clustering>
</event>
<event>
 6    1  0.9462926E-012  0.3000000E+03  0.7818608E-02  0.1093470E+00
          1   -1    0    0  502    0  0.00000000000E+00  0.00000000000E+00  0.23078803833E+03  0.23078803833E+03  0.00000000000E+00 0.  1.
         13   -1    0    0    0    0 -0.00000000000E+00 -0.00000000000E+00 -0.27500000000E+03  0.27500000000E+03  0.00000000000E+00 0.  1.
    9000005    2    1    2  501    0  0.22234529809E+02  0.22255625020E+02 -0.55639160454E+02  0.47231763300E+03  0.46797280167E+03 0.  0.
         13    1    3    3    0    0  0.22870280626E+03  0.97943024168E+02 -0.20659175747E+02  0.24964897580E+03  0.00000000000E+00 0.  1.
          1    1    3    3  501    0 -0.20646827645E+03 -0.75687399148E+02 -0.34979984707E+02  0.22266865720E+03  0.00000000000E+00 0.  1.
         21    1    1    2  502  501 -0.22234529809E+02 -0.22255625020E+02  0.11427198783E+02  0.33470405329E+02  0.00000000000E+00 0.  1.
<scales pt_clust_4="550.00000" pt_clust_5="550.00000" pt_clust_6="31.45929"></scales>
<mgrwt>
<rscale>  0 0.30000000E+03</rscale>
<asrwt>  1 0.31459294E+02</asrwt>
<pdfrwt beam="1">  1        1 0.83922923E+00 0.30000000E+03</pdfrwt>
<pdfrwt beam="2">0</pdfrwt>
<totfact> 0.51403474E-04</totfact>
</mgrwt>
<clustering>
<clus scale="   31.459">  1  6  2 -1</clus>
<clus scale="  467.973">  4  5 -1 -1</clus>
<clus scale="  300.000">  1  4  2 -1</clus>
</clustering>
</event>
<event>
 6    1  0.1365530E-011  0.3000000E+03  0.7818608E-02  0.1093470E+00
          1   -1    0    0  502    0  0.00000000000E+00  0.00000000000E+00  0.21689097981E+03  0.21689097981E+03  0.00000000000E+00 0.  1.
         13   -1    0    0    0    0 -0.00000000000E+00 -0.00000000000E+00 -0.27500000000E+03  0.27500000000E+03  0.00000000000E+00 0.  1.
    9000005    2    1    2  501    0  0.29603138142E+02 -0.50191996120E+01 -0.49628164945E+02  0.46069061028E+03  0.45702444737E+03 0.  0.
         13    1    3    3    0    0 -0.51592198393E+02  0.16646393438E+02 -0.24346164361E+03  0.24942419542E+03  0.00000000000E+00 0.  1.
          1    1    3    3  501    0  0.81195336535E+02 -0.21665593050E+02  0.19383347867E+03  0.21126641487E+03  0.00000000000E+00 0.  1.
         21    1    1    2  502  501 -0.29603138142E+02  0.50191996120E+01 -0.84808552485E+01  0.31200369523E+02  0.00000000000E+00 0.  1.
<scales pt_clust_4="550.00000" pt_clust_5="550.00000" pt_clust_6="30.02564"></scales>
<mgrwt>
<rscale>  0 0.30000000E+03</rscale>
<asrwt>  1 0.30025640E+02</asrwt>
<pdfrwt beam="1">  1        1 0.78869447E+00 0.30000000E+03</pdfrwt>
<pdfrwt beam="2">0</pdfrwt>
<totfact> 0.13002923E-03</totfact>
</mgrwt>
<clustering>
<clus scale="   30.026">  1  6  2 -1</clus>
<clus scale="  457.024">  4  5 -1 -1</clus>
<clus scale="  300.000">  1  4  2 -1</clus>
</clustering>
</event>
<event>
 6    1  0.9462926E-012  0.3000000E+03  0.7818608E-02  0.1093470E+00
          1   -1    0    0  502    0  0.00000000000E+00  0.00000000000E+00  0.24481717975E+03  0.24481717975E+03  0.00000000000E+00 0.  1.
         13   -1    0    0    0    0 -0.00000000000E+00 -0.00000000000E+00 -0.27500000000E+03  0.27500000000E+03  0.00000000000E+00 0.  1.
    9000005    2    1    2  501    0 -0.41567954855E+02 -0.46709691812E+01 -0.47011576972E+02  0.47472926699E+03  0.47054019568E+03 0.  0.
         13    1    3    3    0    0  0.27800399758E+02 -0.21842093835E+03  0.56492069575E+02  0.22731458920E+03  0.00000000000E+00 0.  1.
          1    1    3    3  501    0 -0.69368354614E+02  0.21374996917E+03 -0.10350364655E+03  0.24741467780E+03  0.00000000000E+00 0.  1.
         21    1    1    2  502  501  0.41567954855E+02  0.46709691812E+01  0.16828756723E+02  0.45087912757E+02  0.00000000000E+00 0.  1.
<scales pt_clust_4="550.00000" pt_clust_5="550.00000" pt_clust_6="41.82957"></scales>
<mgrwt>
<rscale>  0 0.30000000E+03</rscale>
<asrwt>  1 0.41829569E+02</asrwt>
<pdfrwt beam="1">  1        1 0.89024429E+00 0.30000000E+03</pdfrwt>
<pdfrwt beam="2">0</pdfrwt>
<totfact> 0.13923669E-04</totfact>
</mgrwt>
<clustering>
<clus scale="   41.830">  1  6  2 -1</clus>
<clus scale="  470.540">  4  5 -1 -1</clus>
<clus scale="  300.000">  1  4  2 -1</clus>
</clustering>
</event>
<event>
 6    1  0.9462926E-012  0.3000000E+03  0.7818608E-02  0.1093470E+00
          1   -1    0    0  502    0  0.00000000000E+00  0.00000000000E+00  0.22606741699E+03  0.22606741699E+03  0.00000000000E+00 0.  1.
         13   -1    0    0    0    0 -0.00000000000E+00 -0.00000000000E+00 -0.27500000000E+03  0.27500000000E+03  0.00000000000E+00 0.  1.
    9000005    2    1    2  501    0 -0.26753333674E+02  0.16523204906E+02 -0.65718810554E+02  0.46542285782E+03  0.45968545481E+03 0.  0.
         13    1    3    3    0    0  0.14873975816E+03  0.17122203349E+03 -0.33973114716E+02  0.22933528498E+03  0.00000000000E+00 0.  1.
          1    1    3    3  501    0 -0.17549309184E+03 -0.15469882859E+03 -0.31745695837E+02  0.23608757285E+03  0.00000000000E+00 0.  1.
         21    1    1    2  502  501  0.26753333674E+02 -0.16523204906E+02  0.16786227544E+02  0.35644559167E+02  0.00000000000E+00 0. -1.
<scales pt_clust_4="550.00000" pt_clust_5="550.00000" pt_clust_6="31.44451"></scales>
<mgrwt>
<rscale>  0 0.30000000E+03</rscale>
<asrwt>  1 0.31444509E+02</asrwt>
<pdfrwt beam="1">  1        1 0.82206333E+00 0.30000000E+03</pdfrwt>
<pdfrwt beam="2">0</pdfrwt>
<totfact> 0.70795450E-04</totfact>
</mgrwt>
<clustering>
<clus scale="   31.445">  1  6  2 -1</clus>
<clus scale="  459.685">  4  5 -1 -1</clus>
<clus scale="  300.000">  1  4  2 -1</clus>
</clustering>
</event>
<event>
 6    1  0.9462926E-012  0.3000000E+03  0.7818608E-02  0.1093470E+00
          1   -1    0    0  502    0  0.00000000000E+00  0.00000000000E+00  0.25716871415E+03  0.25716871415E+03  0.00000000000E+00 0.  1.
         13   -1    0    0    0    0 -0.00000000000E+00 -0.00000000000E+00 -0.27500000000E+03  0.27500000000E+03  0.00000000000E+00 0.  1.
    9000005    2    1    2  501    0 -0.24120304542E+02  0.24849838830E+02 -0.13255487722E+02  0.49723675873E+03  0.49585217827E+03 0.  0.
         13    1    3    3    0    0 -0.18811171770E+03 -0.15741868238E+03  0.33713183312E+02  0.24759490832E+03  0.00000000000E+00 0.  1.
          3    1    3    3  501    0  0.16399141316E+03  0.18226852121E+03 -0.46968671034E+02  0.24964185040E+03  0.00000000000E+00 0.  1.
         21    1    1    2  502  501  0.24120304542E+02 -0.24849838830E+02 -0.45757981300E+01  0.34931955422E+02  0.00000000000E+00 0. -1.
<scales pt_clust_4="550.00000" pt_clust_5="550.00000" pt_clust_6="34.63098"></scales>
<mgrwt>
<rscale>  0 0.30000000E+03</rscale>
<asrwt>  1 0.34630980E+02</asrwt>
<pdfrwt beam="1">  1        1 0.93515896E+00 0.30000000E+03</pdfrwt>
<pdfrwt beam="2">0</pdfrwt>
<totfact> 0.22469800E-05</totfact>
</mgrwt>
<clustering>
<clus scale="   34.631">  1  6  2 -1</clus>
<clus scale="  495.852">  4  5 -1 -1</clus>
<clus scale="  300.000">  1  4  2 -1</clus>
</clustering>
</event>
<event>
 6    1  0.9462926E-012  0.3000000E+03  0.7818608E-02  0.1093470E+00
          1   -1    0    0  502    0  0.00000000000E+00  0.00000000000E+00  0.23325228303E+03  0.23325228303E+03  0.00000000000E+00 0.  1.
         13   -1    0    0    0    0 -0.00000000000E+00 -0.00000000000E+00 -0.27500000000E+03  0.27500000000E+03  0.00000000000E+00 0.  1.
    9000005    2    1    2  501    0 -0.29420326347E+02  0.10685393291E+02 -0.54681373276E+02  0.47438470712E+03  0.47018194833E+03 0.  0.
         13    1    3    3    0    0 -0.17709333933E+03 -0.58034904684E+02  0.13069219912E+03  0.22761931356E+03  0.00000000000E+00 0.  1.
          3    1    3    3  501    0  0.14767301298E+03  0.68720297974E+02 -0.18537357240E+03  0.24676539356E+03  0.00000000000E+00 0.  1.
         21    1    1    2  502  501  0.29420326347E+02 -0.10685393291E+02  0.12933656302E+02  0.33867575902E+02  0.00000000000E+00 0.  1.
<scales pt_clust_4="550.00000" pt_clust_5="550.00000" pt_clust_6="31.30069"></scales>
<mgrwt>
<rscale>  0 0.30000000E+03</rscale>
<asrwt>  1 0.31300691E+02</asrwt>
<pdfrwt beam="1">  1        1 0.84819012E+00 0.30000000E+03</pdfrwt>
<pdfrwt beam="2">0</pdfrwt>
<totfact> 0.43206251E-04</totfact>
</mgrwt>
<clustering>
<clus scale="   31.301">  1  6  2 -1</clus>
<clus scale="  470.182">  4  5 -1 -1</clus>
<clus scale="  300.000">  1  4  2 -1</clus>
</clustering>
</event>
<event>
 6    1  0.9462926E-012  0.3000000E+03  0.7818608E-02  0.1093470E+00
          1   -1    0    0  502    0  0.00000000000E+00  0.00000000000E+00  0.23439238866E+03  0.23439238866E+03  0.00000000000E+00 0.  1.
         13   -1    0    0    0    0 -0.00000000000E+00 -0.00000000000E+00 -0.27500000000E+03  0.27500000000E+03  0.00000000000E+00 0.  1.
    9000005    2    1    2  501    0  0.33739248908E+01  0.43337539735E+02 -0.51193870013E+02  0.46465320458E+03  0.45977414290E+03 0.  0.
         13    1    3    3    0    0  0.86966045293E+02 -0.10741378157E+03  0.14714736249E+03  0.20187411868E+03  0.00000000000E+00 0.  1.
          1    1    3    3  501    0 -0.83592120403E+02  0.15075132131E+03 -0.19834123251E+03  0.26277908589E+03  0.00000000000E+00 0.  1.
         21    1    1    2  502  501 -0.33739248908E+01 -0.43337539735E+02  0.10586258669E+02  0.44739184079E+02  0.00000000000E+00 0.  1.
<scales pt_clust_4="550.00000" pt_clust_5="550.00000" pt_clust_6="43.46868"></scales>
<mgrwt>
<rscale>  0 0.30000000E+03</rscale>
<asrwt>  1 0.43468675E+02</asrwt>
<pdfrwt beam="1">  1        1 0.85233596E+00 0.30000000E+03</pdfrwt>
<pdfrwt beam="2">0</pdfrwt>
<totfact> 0.37165532E-04</totfact>
</mgrwt>
<clustering>
<clus scale="   43.469">  1  6  2 -1</clus>
<clus scale="  459.774">  4  5 -1 -1</clus>
<clus scale="  300.000">  1  4  2 -1</clus>
</clustering>
</event>
<event>
 6    1  0.9462926E-012  0.3000000E+03  0.7818608E-02  0.1093470E+00
          1   -1    0    0  502    0  0.00000000000E+00  0.00000000000E+00  0.23590808117E+03  0.23590808117E+03  0.00000000000E+00 0.  1.
         13   -1    0    0    0    0 -0.00000000000E+00 -0.00000000000E+00 -0.27500000000E+03  0.27500000000E+03  0.00000000000E+00 0.  1.
    9000005    2    1    2  501    0  0.68400752185E+01 -0.31769901207E+02 -0.40341916128E+02  0.47838615403E+03  0.47557305319E+03 0.  0.
         13    1    3    3    0    0 -0.67500835421E+02 -0.22751837362E+03 -0.10461292315E+03  0.25935465449E+03  0.00000000000E+00 0.  1.
          3    1    3    3  501    0  0.74340910640E+02  0.19574847241E+03  0.64271007027E+02  0.21903149954E+03  0.00000000000E+00 0.  1.
         21    1    1    2  502  501 -0.68400752185E+01  0.31769901207E+02  0.12499973025E+01  0.32521927140E+02  0.00000000000E+00 0.  1.
<scales pt_clust_4="550.00000" pt_clust_5="550.00000" pt_clust_6="32.49790"></scales>
<mgrwt>
<rscale>  0 0.30000000E+03</rscale>
<asrwt>  1 0.32497896E+02</asrwt>
<pdfrwt beam="1">  1        1 0.85784757E+00 0.30000000E+03</pdfrwt>
<pdfrwt beam="2">0</pdfrwt>
<totfact> 0.34561714E-04</totfact>
</mgrwt>
<clustering>
<clus scale="   32.498">  1  6  2 -1</clus>
<clus scale="  475.573">  4  5 -1 -1</clus>
<clus scale="  300.000">  1  4  2 -1</clus>
</clustering>
</event>
<event>
 6    1  0.9462926E-012  0.3000000E+03  0.7818608E-02  0.1093470E+00
          1   -1    0    0  502    0  0.00000000000E+00  0.00000000000E+00  0.22882302538E+03  0.22882302538E+03  0.00000000000E+00 0.  1.
         13   -1    0    0    0    0 -0.00000000000E+00 -0.00000000000E+00 -0.27500000000E+03  0.27500000000E+03  0.00000000000E+00 0.  1.
    9000005    2    1    2  501    0 -0.25517135530E+02  0.16561035395E+02 -0.44072038006E+02  0.47333002852E+03  0.47029095172E+03 0.  0.
         13    1    3    3    0    0 -0.18426129953E+03 -0.83062027415E+02  0.11053987449E+03  0.23037055097E+03  0.00000000000E+00 0.  1.
          1    1    3    3  501    0  0.15874416400E+03  0.99623062810E+02 -0.15461191250E+03  0.24295947755E+03  0.00000000000E+00 0.  1.
         21    1    1    2  502  501  0.25517135530E+02 -0.16561035395E+02 -0.21049366168E+01  0.30492996854E+02  0.00000000000E+00 0. -1.
<scales pt_clust_4="550.00000" pt_clust_5="550.00000" pt_clust_6="30.42026"></scales>
<mgrwt>
<rscale>  0 0.30000000E+03</rscale>
<asrwt>  1 0.30420258E+02</asrwt>
<pdfrwt beam="1">  1        1 0.83208373E+00 0.30000000E+03</pdfrwt>
<pdfrwt beam="2">0</pdfrwt>
<totfact> 0.58415842E-04</totfact>
</mgrwt>
<clustering>
<clus scale="   30.420">  1  6  2 -1</clus>
<clus scale="  470.291">  4  5 -1 -1</clus>
<clus scale="  300.000">  1  4  2 -1</clus>
</clustering>
</event>
<event>
 6    1  0.9462926E-012  0.3000000E+03  0.7818608E-02  0.1093470E+00
          1   -1    0    0  502    0  0.00000000000E+00  0.00000000000E+00  0.24924712506E+03  0.24924712506E+03  0.00000000000E+00 0.  1.
         13   -1    0    0    0    0 -0.00000000000E+00 -0.00000000000E+00 -0.27500000000E+03  0.27500000000E+03  0.00000000000E+00 0.  1.
    9000005    2    1    2  501    0  0.19606030332E+02  0.25566904353E+02 -0.54722221118E+02  0.48091946598E+03  0.47670845204E+03 0.  0.
         13    1    3    3    0    0 -0.12839354394E+03  0.11610245838E+03  0.13816752129E+03  0.22148351385E+03  0.00000000000E+00 0.  1.
          3    1    3    3  501    0  0.14799957427E+03 -0.90535554028E+02 -0.19288974241E+03  0.25943595213E+03  0.00000000000E+00 0.  1.
         21    1    1    2  502  501 -0.19606030332E+02 -0.25566904353E+02  0.28969346177E+02  0.43327659082E+02  0.00000000000E+00 0. -1.
<scales pt_clust_4="550.00000" pt_clust_5="550.00000" pt_clust_6="32.21899"></scales>
<mgrwt>
<rscale>  0 0.30000000E+03</rscale>
<asrwt>  1 0.32218985E+02</asrwt>
<pdfrwt beam="1">  1        1 0.90635318E+00 0.30000000E+03</pdfrwt>
<pdfrwt beam="2">0</pdfrwt>
<totfact> 0.88297685E-05</totfact>
</mgrwt>
<clustering>
<clus scale="   32.219">  1  6  2 -1</clus>
<clus scale="  476.708">  4  5 -1 -1</clus>
<clus scale="  300.000">  1  4  2 -1</clus>
</clustering>
</event>
<event>
 6    1  0.9462926E-012  0.3000000E+03  0.7818608E-02  0.1093470E+00
          1   -1    0    0  502    0  0.00000000000E+00  0.00000000000E+00  0.23245547680E+03  0.23245547680E+03  0.00000000000E+00 0.  1.
         13   -1    0    0    0    0 -0.00000000000E+00 -0.00000000000E+00 -0.27500000000E+03  0.27500000000E+03  0.00000000000E+00 0.  1.
    9000005    2    1    2  501    0 -0.22466776665E+02  0.20352907349E+02 -0.53380149803E+02  0.47526219031E+03  0.47128092711E+03 0.  0.
         13    1    3    3    0    0  0.20206413664E+03  0.78469257805E+02  0.48204005089E+02  0.22206072557E+03  0.00000000000E+00 0.  1.
          3    1    3    3  501    0 -0.22453091330E+03 -0.58116350456E+02 -0.10158415489E+03  0.25320146474E+03  0.00000000000E+00 0.  1.
         21    1    1    2  502  501  0.22466776665E+02 -0.20352907349E+02  0.10835626604E+02  0.32193286492E+02  0.00000000000E+00 0.  1.
<scales pt_clust_4="550.00000" pt_clust_5="550.00000" pt_clust_6="30.31496"></scales>
<mgrwt>
<rscale>  0 0.30000000E+03</rscale>
<asrwt>  1 0.30314962E+02</asrwt>
<pdfrwt beam="1">  1        1 0.84529264E+00 0.30000000E+03</pdfrwt>
<pdfrwt beam="2">0</pdfrwt>
<totfact> 0.46157096E-04</totfact>
</mgrwt>
<clustering>
<clus scale="   30.315">  1  6  2 -1</clus>
<clus scale="  471.281">  4  5 -1 -1</clus>
<clus scale="  300.000">  1  4  2 -1</clus>
</clustering>
</event>
<event>
 6    1  0.9462926E-012  0.3000000E+03  0.7818608E-02  0.1093470E+00
          1   -1    0    0  502    0  0.00000000000E+00  0.00000000000E+00  0.24514116992E+03  0.24514116992E+03  0.00000000000E+00 0.  1.
         13   -1    0    0    0    0 -0.00000000000E+00 -0.00000000000E+00 -0.27500000000E+03  0.27500000000E+03  0.00000000000E+00 0.  1.
    9000005    2    1    2  501    0  0.39461015981E+02  0.16196688502E+02 -0.56290187764E+02  0.46996028542E+03  0.46462305166E+03 0.  0.
         13    1    3    3    0    0 -0.18348399917E+03 -0.37833040786E+02 -0.13111436165E+03  0.22866720962E+03  0.00000000000E+00 0.  1.
          3    1    3    3  501    0  0.22294501515E+03  0.54029729288E+02  0.74824173883E+02  0.24129307579E+03  0.00000000000E+00 0.  1.
         21    1    1    2  502  501 -0.39461015981E+02 -0.16196688502E+02  0.26431357687E+02  0.50180884507E+02  0.00000000000E+00 0.  1.
<scales pt_clust_4="550.00000" pt_clust_5="550.00000" pt_clust_6="42.65565"></scales>
<mgrwt>
<rscale>  0 0.30000000E+03</rscale>
<asrwt>  1 0.42655650E+02</asrwt>
<pdfrwt beam="1">  1        1 0.89142244E+00 0.30000000E+03</pdfrwt>
<pdfrwt beam="2">0</pdfrwt>
<totfact> 0.13396953E-04</totfact>
</mgrwt>
<clustering>
<clus scale="   42.656">  1  6  2 -1</clus>
<clus scale="  464.623">  4  5 -1 -1</clus>
<clus scale="  300.000">  1  4  2 -1</clus>
</clustering>
</event>
<event>
 6    1  0.9462926E-012  0.3000000E+03  0.7818608E-02  0.1093470E+00
          1   -1    0    0  502    0  0.00000000000E+00  0.00000000000E+00  0.25906035225E+03  0.25906035225E+03  0.00000000000E+00 0.  1.
         13   -1    0    0    0    0 -0.00000000000E+00 -0.00000000000E+00 -0.27500000000E+03  0.27500000000E+03  0.00000000000E+00 0.  1.
    9000005    2    1    2  501    0  0.43154859801E+02  0.28481296558E+02 -0.37147206898E+02  0.47817397875E+03  0.47391656733E+03 0.  0.
         13    1    3    3    0    0  0.84234342669E+01  0.17354459972E+03 -0.19487545511E+03  0.26108451763E+03  0.00000000000E+00 0.  1.
          3    1    3    3  501    0  0.34731425534E+02 -0.14506330316E+03  0.15772824822E+03  0.21708946112E+03  0.00000000000E+00 0.  1.
         21    1    1    2  502  501 -0.43154859801E+02 -0.28481296558E+02  0.21207559145E+02  0.55886373499E+02  0.00000000000E+00 0. -1.
<scales pt_clust_4="550.00000" pt_clust_5="550.00000" pt_clust_6="51.70615"></scales>
<mgrwt>
<rscale>  0 0.30000000E+03</rscale>
<asrwt>  1 0.51706152E+02</asrwt>
<pdfrwt beam="1">  1        1 0.94203764E+00 0.30000000E+03</pdfrwt>
<pdfrwt beam="2">0</pdfrwt>
<totfact> 0.16454457E-05</totfact>
</mgrwt>
<clustering>
<clus scale="   51.706">  1  6  2 -1</clus>
<clus scale="  473.917">  4  5 -1 -1</clus>
<clus scale="  300.000">  1  4  2 -1</clus>
</clustering>
</event>
<event>
 6    1  0.9462926E-012  0.3000000E+03  0.7818608E-02  0.1093470E+00
          1   -1    0    0  502    0  0.00000000000E+00  0.00000000000E+00  0.22443616873E+03  0.22443616873E+03  0.00000000000E+00 0.  1.
         13   -1    0    0    0    0 -0.00000000000E+00 -0.00000000000E+00 -0.27500000000E+03  0.27500000000E+03  0.00000000000E+00 0.  1.
    9000005    2    1    2  501    0 -0.35018968452E+02 -0.71834869052E+01 -0.53071955128E+02  0.46360013490E+03  0.45916284913E+03 0.  0.
         13    1    3    3    0    0  0.35708604984E+02 -0.21360508135E+03  0.50019083565E+02  0.22227042981E+03  0.00000000000E+00 0.  1.
          3    1    3    3  501    0 -0.70727573436E+02  0.20642159444E+03 -0.10309103869E+03  0.24132970508E+03  0.00000000000E+00 0.  1.
         21    1    1    2  502  501  0.35018968452E+02  0.71834869052E+01  0.25081238580E+01  0.35836033833E+02  0.00000000000E+00 0. -1.
<scales pt_clust_4="550.00000" pt_clust_5="550.00000" pt_clust_6="35.74816"></scales>
<mgrwt>
<rscale>  0 0.30000000E+03</rscale>
<asrwt>  1 0.35748156E+02</asrwt>
<pdfrwt beam="1">  1        1 0.81613152E+00 0.30000000E+03</pdfrwt>
<pdfrwt beam="2">0</pdfrwt>
<totfact> 0.77630134E-04</totfact>
</mgrwt>
<clustering>
<clus scale="   35.748">  1  6  2 -1</clus>
<clus scale="  459.163">  4  5 -1 -1</clus>
<clus scale="  300.000">  1  4  2 -1</clus>
</clustering>
</event>
<event>
 6    1  0.9462926E-012  0.3000000E+03  0.7818608E-02  0.1093470E+00
          1   -1    0    0  502    0  0.00000000000E+00  0.00000000000E+00  0.22860069765E+03  0.22860069765E+03  0.00000000000E+00 0.  1.
         13   -1    0    0    0    0 -0.00000000000E+00 -0.00000000000E+00 -0.27500000000E+03  0.27500000000E+03  0.00000000000E+00 0.  1.
    9000005    2    1    2  501    0 -0.11510798971E+02  0.29054572571E+02 -0.49596291937E+02  0.47218593324E+03  0.46853291955E+03 0.  0.
         13    1    3    3    0    0 -0.14062318327E+03  0.19270533814E+03  0.45846756486E+02  0.24292416944E+03  0.00000000000E+00 0.  1.
          3    1    3    3  501    0  0.12911238430E+03 -0.16365076557E+03 -0.95443048423E+02  0.22926176380E+03  0.00000000000E+00 0.  1.
         21    1    1    2  502  501  0.11510798971E+02 -0.29054572571E+02  0.31969895865E+01  0.31414764405E+02  0.00000000000E+00 0.  1.
<scales pt_clust_4="550.00000" pt_clust_5="550.00000" pt_clust_6="31.25167"></scales>
<mgrwt>
<rscale>  0 0.30000000E+03</rscale>
<asrwt>  1 0.31251667E+02</asrwt>
<pdfrwt beam="1">  1        1 0.83127526E+00 0.30000000E+03</pdfrwt>
<pdfrwt beam="2">0</pdfrwt>
<totfact> 0.58965757E-04</totfact>
</mgrwt>
<clustering>
<clus scale="   31.252">  1  6  2 -1</clus>
<clus scale="  468.533">  4  5 -1 -1</clus>
<clus scale="  300.000">  1  4  2 -1</clus>
</clustering>
</event>
<event>
 6    1  0.9462926E-012  0.3000000E+03  0.7818608E-02  0.1093470E+00
          1   -1    0    0  502    0  0.00000000000E+00  0.00000000000E+00  0.23664670557E+03  0.23664670557E+03  0.00000000000E+00 0.  1.
         13   -1    0    0    0    0 -0.00000000000E+00 -0.00000000000E+00 -0.27500000000E+03  0.27500000000E+03  0.00000000000E+00 0.  1.
    9000005    2    1    2  501    0 -0.20931224928E+02 -0.31555794334E+02 -0.29864765107E+02  0.47284026972E+03  0.47037445949E+03 0.  0.
         13    1    3    3    0    0  0.12861641059E+03 -0.59184230802E+02  0.17029419126E+03  0.22146120614E+03  0.00000000000E+00 0.  1.
          3    1    3    3  501    0 -0.14954763551E+03  0.27628436468E+02 -0.20015895637E+03  0.25137906358E+03  0.00000000000E+00 0.  1.
         21    1    1    2  502  501  0.20931224928E+02  0.31555794334E+02 -0.84885293264E+01  0.38806435847E+02  0.00000000000E+00 0.  1.
<scales pt_clust_4="550.00000" pt_clust_5="550.00000" pt_clust_6="37.86668"></scales>
<mgrwt>
<rscale>  0 0.30000000E+03</rscale>
<asrwt>  1 0.37866684E+02</asrwt>
<pdfrwt beam="1">  1        1 0.86053347E+00 0.30000000E+03</pdfrwt>
<pdfrwt beam="2">0</pdfrwt>
<totfact> 0.31460933E-04</totfact>
</mgrwt>
<clustering>
<clus scale="   37.867">  1  6  2 -1</clus>
<clus scale="  470.374">  4  5 -1 -1</clus>
<clus scale="  300.000">  1  4  2 -1</clus>
</clustering>
</event>
<event>
 6    1  0.9462926E-012  0.3000000E+03  0.7818608E-02  0.1093470E+00
          1   -1    0    0  502    0  0.00000000000E+00  0.00000000000E+00  0.23363686526E+03  0.23363686526E+03  0.00000000000E+00 0.  1.
         13   -1    0    0    0    0 -0.00000000000E+00 -0.00000000000E+00 -0.27500000000E+03  0.27500000000E+03  0.00000000000E+00 0.  1.
    9000005    2    1    2  501    0  0.30610858392E+02 -0.13710492951E+02 -0.67382686255E+02  0.46618666703E+03  0.46007019013E+03 0.  0.
         13    1    3    3    0    0 -0.64272364721E+02  0.28503919193E+02  0.18250430393E+03  0.19557921983E+03  0.00000000000E+00 0.  1.
          3    1    3    3  501    0  0.94883223113E+02 -0.42214412144E+02 -0.24988699018E+03  0.27060744721E+03  0.00000000000E+00 0.  1.
         21    1    1    2  502  501 -0.30610858392E+02  0.13710492951E+02  0.26019551514E+02  0.42450198226E+02  0.00000000000E+00 0. -1.
<scales pt_clust_4="550.00000" pt_clust_5="550.00000" pt_clust_6="33.54105"></scales>
<mgrwt>
<rscale>  0 0.30000000E+03</rscale>
<asrwt>  1 0.33541053E+02</asrwt>
<pdfrwt beam="1">  1        1 0.84958860E+00 0.30000000E+03</pdfrwt>
<pdfrwt beam="2">0</pdfrwt>
<totfact> 0.41390749E-04</totfact>
</mgrwt>
<clustering>
<clus scale="   33.541">  1  6  2 -1</clus>
<clus scale="  460.070">  4  5 -1 -1</clus>
<clus scale="  300.000">  1  4  2 -1</clus>
</clustering>
</event>
<event>
 6    1  0.9462926E-012  0.3000000E+03  0.7818608E-02  0.1093470E+00
          1   -1    0    0  502    0  0.00000000000E+00  0.00000000000E+00  0.22962203679E+03  0.22962203679E+03  0.00000000000E+00 0.  1.
         13   -1    0    0    0    0 -0.00000000000E+00 -0.00000000000E+00 -0.27500000000E+03  0.27500000000E+03  0.00000000000E+00 0.  1.
    9000005    2    1    2  501    0  0.13141830626E+02 -0.28453041526E+02 -0.70025154451E+02  0.46475015045E+03  0.45837418863E+03 0.  0.
         13    1    3    3    0    0 -0.70524458714E+01  0.18444087130E+03 -0.14856077807E+03  0.23693559627E+03  0.00000000000E+00 0.  1.
          1    1    3    3  501    0  0.20194276498E+02 -0.21289391282E+03  0.78535623616E+02  0.22781455418E+03  0.00000000000E+00 0.  1.
         21    1    1    2  502  501 -0.13141830626E+02  0.28453041526E+02  0.24647191240E+02  0.39871886340E+02  0.00000000000E+00 0. -1.
<scales pt_clust_4="550.00000" pt_clust_5="550.00000" pt_clust_6="31.34140"></scales>
<mgrwt>
<rscale>  0 0.30000000E+03</rscale>
<asrwt>  1 0.31341399E+02</asrwt>
<pdfrwt beam="1">  1        1 0.83498922E+00 0.30000000E+03</pdfrwt>
<pdfrwt beam="2">0</pdfrwt>
<totfact> 0.55249559E-04</totfact>
</mgrwt>
<clustering>
<clus scale="   31.341">  1  6  2 -1</clus>
<clus scale="  458.374">  4  5 -1 -1</clus>
<clus scale="  300.000">  1  4  2 -1</clus>
</clustering>
</event>
<event>
 6    1  0.9462926E-012  0.3000000E+03  0.7818608E-02  0.1093470E+00
          1   -1    0    0  502    0  0.00000000000E+00  0.00000000000E+00  0.23815720276E+03  0.23815720276E+03  0.00000000000E+00 0.  1.
         13   -1    0    0    0    0 -0.00000000000E+00 -0.00000000000E+00 -0.27500000000E+03  0.27500000000E+03  0.00000000000E+00 0.  1.
    9000005    2    1    2  501    0 -0.36216442881E+02 -0.27268936318E+02 -0.52351724422E+02  0.46524319181E+03  0.46006010353E+03 0.  0.
         13    1    3    3    0    0 -0.31017768421E+02  0.20165175307E+03 -0.10621216344E+03  0.23001424985E+03  0.00000000000E+00 0.  1.
          1    1    3    3  501    0 -0.51986744601E+01 -0.22892068939E+03  0.53860439016E+02  0.23522894196E+03  0.00000000000E+00 0.  1.
         21    1    1    2  502  501  0.36216442881E+02  0.27268936318E+02  0.15508927186E+02  0.47914010950E+02  0.00000000000E+00 0. -1.
<scales pt_clust_4="550.00000" pt_clust_5="550.00000" pt_clust_6="45.33460"></scales>
<mgrwt>
<rscale>  0 0.30000000E+03</rscale>
<asrwt>  1 0.45334596E+02</asrwt>
<pdfrwt beam="1">  1        1 0.86602619E+00 0.30000000E+03</pdfrwt>
<pdfrwt beam="2">0</pdfrwt>
<totfact> 0.26569922E-04</totfact>
</mgrwt>
<clustering>
<clus scale="   45.335">  1  6  2 -1</clus>
<clus scale="  460.060">  4  5 -1 -1</clus>
<clus scale="  300.000">  1  4  2 -1</clus>
</clustering>
</event>
<event>
 6    1  0.9462926E-012  0.3000000E+03  0.7818608E-02  0.1093470E+00
          1   -1    0    0  502    0  0.00000000000E+00  0.00000000000E+00  0.21901213850E+03  0.21901213850E+03  0.00000000000E+00 0.  1.
         13   -1    0    0    0    0 -0.00000000000E+00 -0.00000000000E+00 -0.27500000000E+03  0.27500000000E+03  0.00000000000E+00 0.  1.
    9000005    2    1    2  501    0  0.12983118534E+02 -0.27888490322E+02 -0.61221397674E+02  0.46280766510E+03  0.45770792661E+03 0.  0.
         13    1    3    3    0    0 -0.18781417433E+03  0.10184977914E+03  0.83822653767E+01  0.21381722092E+03  0.00000000000E+00 0.  1.
          3    1    3    3  501    0  0.20079729286E+03 -0.12973826946E+03 -0.69603663051E+02  0.24899044418E+03  0.00000000000E+00 0.  1.
         21    1    1    2  502  501 -0.12983118534E+02  0.27888490322E+02  0.52335361696E+01  0.31204473400E+02  0.00000000000E+00 0.  1.
<scales pt_clust_4="550.00000" pt_clust_5="550.00000" pt_clust_6="30.76247"></scales>
<mgrwt>
<rscale>  0 0.30000000E+03</rscale>
<asrwt>  1 0.30762465E+02</asrwt>
<pdfrwt beam="1">  1        1 0.79640778E+00 0.30000000E+03</pdfrwt>
<pdfrwt beam="2">0</pdfrwt>
<totfact> 0.11285519E-03</totfact>
</mgrwt>
<clustering>
<clus scale="   30.762">  1  6  2 -1</clus>
<clus scale="  457.708">  4  5 -1 -1</clus>
<clus scale="  300.000">  1  4  2 -1</clus>
</clustering>
</event>
<event>
 6    1  0.9462926E-012  0.3000000E+03  0.7818608E-02  0.1093470E+00
          1   -1    0    0  502    0  0.00000000000E+00  0.00000000000E+00  0.22898593013E+03  0.22898593013E+03  0.00000000000E+00 0.  1.
         13   -1    0    0    0    0 -0.00000000000E+00 -0.00000000000E+00 -0.27500000000E+03  0.27500000000E+03  0.00000000000E+00 0.  1.
    9000005    2    1    2  501    0 -0.18240201223E+02  0.33123632139E+02 -0.59904517484E+02  0.46370163441E+03  0.45825841465E+03 0.  0.
         13    1    3    3    0    0 -0.18111017646E+03 -0.13214131699E+03 -0.58360367143E+02  0.23166388610E+03  0.00000000000E+00 0.  1.
          3    1    3    3  501    0  0.16286997523E+03  0.16526494912E+03 -0.15441503415E+01  0.23203774831E+03  0.00000000000E+00 0.  1.
         21    1    1    2  502  501  0.18240201223E+02 -0.33123632139E+02  0.13890447619E+02  0.40284295721E+02  0.00000000000E+00 0.  1.
<scales pt_clust_4="550.00000" pt_clust_5="550.00000" pt_clust_6="37.81375"></scales>
<mgrwt>
<rscale>  0 0.30000000E+03</rscale>
<asrwt>  1 0.37813753E+02</asrwt>
<pdfrwt beam="1">  1        1 0.83267611E+00 0.30000000E+03</pdfrwt>
<pdfrwt beam="2">0</pdfrwt>
<totfact> 0.55489862E-04</totfact>
</mgrwt>
<clustering>
<clus scale="   37.814">  1  6  2 -1</clus>
<clus scale="  458.258">  4  5 -1 -1</clus>
<clus scale="  300.000">  1  4  2 -1</clus>
</clustering>
</event>
<event>
 6    1  0.9462926E-012  0.3000000E+03  0.7818608E-02  0.1093470E+00
          1   -1    0    0  502    0  0.00000000000E+00  0.00000000000E+00  0.23706446680E+03  0.23706446680E+03  0.00000000000E+00 0.  1.
         13   -1    0    0    0    0 -0.00000000000E+00 -0.00000000000E+00 -0.27500000000E+03  0.27500000000E+03  0.00000000000E+00 0.  1.
    9000005    2    1    2  501    0  0.25153377829E+01 -0.33982382062E+02 -0.64947154790E+02  0.46858163207E+03  0.46280609740E+03 0.  0.
         13    1    3    3    0    0 -0.57834934093E+01  0.46448986060E+02 -0.25646121695E+03  0.26069774241E+03  0.00000000000E+00 0.  1.
          3    1    3    3  501    0  0.82988311922E+01 -0.80431368123E+02  0.19151406216E+03  0.20788388966E+03  0.00000000000E+00 0.  1.
         21    1    1    2  502  501 -0.25153377829E+01  0.33982382062E+02  0.27011621588E+02  0.43482834724E+02  0.00000000000E+00 0.  1.
<scales pt_clust_4="550.00000" pt_clust_5="550.00000" pt_clust_6="34.07535"></scales>
<mgrwt>
<rscale>  0 0.30000000E+03</rscale>
<asrwt>  1 0.34075346E+02</asrwt>
<pdfrwt beam="1">  1        1 0.86205261E+00 0.30000000E+03</pdfrwt>
<pdfrwt beam="2">0</pdfrwt>
<totfact> 0.30899232E-04</totfact>
</mgrwt>
<clustering>
<clus scale="   34.075">  1  6  2 -1</clus>
<clus scale="  462.806">  4  5 -1 -1</clus>
<clus scale="  300.000">  1  4  2 -1</clus>
</clustering>
</event>
<event>
 6    1  0.9462926E-012  0.3000000E+03  0.7818608E-02  0.1093470E+00
          1   -1    0    0  502    0  0.00000000000E+00  0.00000000000E+00  0.25372072580E+03  0.25372072580E+03  0.00000000000E+00 0.  1.
         13   -1    0    0    0    0 -0.00000000000E+00 -0.00000000000E+00 -0.27500000000E+03  0.27500000000E+03  0.00000000000E+00 0.  1.
    9000005    2    1    2  501    0  0.27406458415E+02 -0.16654068250E+02 -0.75613926130E+02  0.46562772815E+03  0.45832656856E+03 0.  0.
         13    1    3    3    0    0 -0.10580612901E+03 -0.15074835629E+03 -0.17327594246E+03  0.25287260843E+03  0.00000000000E+00 0.  1.
          3    1    3    3  501    0  0.13321258742E+03  0.13409428804E+03  0.97662016327E+02  0.21275511972E+03  0.00000000000E+00 0.  1.
         21    1    1    2  502  501 -0.27406458415E+02  0.16654068250E+02  0.54334651930E+02  0.63092997651E+02  0.00000000000E+00 0.  1.
<scales pt_clust_4="550.00000" pt_clust_5="550.00000" pt_clust_6="32.06980"></scales>
<mgrwt>
<rscale>  0 0.30000000E+03</rscale>
<asrwt>  1 0.32069798E+02</asrwt>
<pdfrwt beam="1">  1        1 0.92262082E+00 0.30000000E+03</pdfrwt>
<pdfrwt beam="2">0</pdfrwt>
<totfact> 0.37360707E-05</totfact>
</mgrwt>
<clustering>
<clus scale="   32.070">  1  6  2 -1</clus>
<clus scale="  458.327">  4  5 -1 -1</clus>
<clus scale="  300.000">  1  4  2 -1</clus>
</clustering>
</event>
<event>
 6    1  0.9462926E-012  0.3000000E+03  0.7818608E-02  0.1093470E+00
          1   -1    0    0  502    0  0.00000000000E+00  0.00000000000E+00  0.25282215818E+03  0.25282215818E+03  0.00000000000E+00 0.  1.
         13   -1    0    0    0    0 -0.00000000000E+00 -0.00000000000E+00 -0.27500000000E+03  0.27500000000E+03  0.00000000000E+00 0.  1.
    9000005    2    1    2  501    0 -0.35785361845E+02  0.12685411939E+02 -0.22752788319E+02  0.48985055877E+03  0.48784666520E+03 0.  0.
         13    1    3    3    0    0  0.17521225814E+03 -0.10797928699E+03  0.86638860321E+02  0.22330506922E+03  0.00000000000E+00 0.  1.
          3    1    3    3  501    0 -0.21099761998E+03  0.12066469893E+03 -0.10939164864E+03  0.26654548955E+03  0.00000000000E+00 0.  1.
         21    1    1    2  502  501  0.35785361845E+02 -0.12685411939E+02  0.57494649672E+00  0.37971599412E+02  0.00000000000E+00 0.  1.
<scales pt_clust_4="550.00000" pt_clust_5="550.00000" pt_clust_6="37.96725"></scales>
<mgrwt>
<rscale>  0 0.30000000E+03</rscale>
<asrwt>  1 0.37967246E+02</asrwt>
<pdfrwt beam="1">  1        1 0.91935330E+00 0.30000000E+03</pdfrwt>
<pdfrwt beam="2">0</pdfrwt>
<totfact> 0.42532142E-05</totfact>
</mgrwt>
<clustering>
<clus scale="   37.967">  1  6  2 -1</clus>
<clus scale="  487.847">  4  5 -1 -1</clus>
<clus scale="  300.000">  1  4  2 -1</clus>
</clustering>
</event>
<event>
 6    1  0.9462926E-012  0.3000000E+03  0.7818608E-02  0.1093470E+00
          1   -1    0    0  502    0  0.00000000000E+00  0.00000000000E+00  0.24241015120E+03  0.24241015120E+03  0.00000000000E+00 0.  1.
         13   -1    0    0    0    0 -0.00000000000E+00 -0.00000000000E+00 -0.27500000000E+03  0.27500000000E+03  0.00000000000E+00 0.  1.
    9000005    2    1    2  501    0  0.40117090640E+02  0.22294738565E+02 -0.43556408923E+02  0.47022221026E+03  0.46594562981E+03 0.  0.
         13    1    3    3    0    0  0.16579905008E+03 -0.13114400024E+03 -0.13603203630E+03  0.25138175890E+03  0.00000000000E+00 0.  1.
          3    1    3    3  501    0 -0.12568195944E+03  0.15343873880E+03  0.92475627381E+02  0.21884045136E+03  0.00000000000E+00 0.  1.
         21    1    1    2  502  501 -0.40117090640E+02 -0.22294738565E+02  0.10966560122E+02  0.47187940938E+02  0.00000000000E+00 0.  1.
<scales pt_clust_4="550.00000" pt_clust_5="550.00000" pt_clust_6="45.89593"></scales>
<mgrwt>
<rscale>  0 0.30000000E+03</rscale>
<asrwt>  1 0.45895929E+02</asrwt>
<pdfrwt beam="1">  1        1 0.88149146E+00 0.30000000E+03</pdfrwt>
<pdfrwt beam="2">0</pdfrwt>
<totfact> 0.17989801E-04</totfact>
</mgrwt>
<clustering>
<clus scale="   45.896">  1  6  2 -1</clus>
<clus scale="  465.946">  4  5 -1 -1</clus>
<clus scale="  300.000">  1  4  2 -1</clus>
</clustering>
</event>
<event>
 6    1  0.9462926E-012  0.3000000E+03  0.7818608E-02  0.1093470E+00
          1   -1    0    0  502    0  0.00000000000E+00  0.00000000000E+00  0.23653181092E+03  0.23653181092E+03  0.00000000000E+00 0.  1.
         13   -1    0    0    0    0 -0.00000000000E+00 -0.00000000000E+00 -0.27500000000E+03  0.27500000000E+03  0.00000000000E+00 0.  1.
    9000005    2    1    2  501    0 -0.97884113452E+01 -0.28648150355E+02 -0.41595729550E+02  0.48109645279E+03  0.47833781227E+03 0.  0.
         13    1    3    3    0    0  0.11646603492E+03  0.16754227661E+03  0.78586924277E+02  0.21865648038E+03  0.00000000000E+00 0.  1.
          3    1    3    3  501    0 -0.12625444627E+03 -0.19619042697E+03 -0.12018265383E+03  0.26243997241E+03  0.00000000000E+00 0.  1.
         21    1    1    2  502  501  0.97884113452E+01  0.28648150355E+02  0.31275404720E+01  0.30435358135E+02  0.00000000000E+00 0.  1.
<scales pt_clust_4="550.00000" pt_clust_5="550.00000" pt_clust_6="30.27424"></scales>
<mgrwt>
<rscale>  0 0.30000000E+03</rscale>
<asrwt>  1 0.30274238E+02</asrwt>
<pdfrwt beam="1">  1        1 0.86011568E+00 0.30000000E+03</pdfrwt>
<pdfrwt beam="2">0</pdfrwt>
<totfact> 0.33153944E-04</totfact>
</mgrwt>
<clustering>
<clus scale="   30.274">  1  6  2 -1</clus>
<clus scale="  478.338">  4  5 -1 -1</clus>
<clus scale="  300.000">  1  4  2 -1</clus>
</clustering>
</event>
<event>
 6    1  0.9462926E-012  0.3000000E+03  0.7818608E-02  0.1093470E+00
          1   -1    0    0  502    0  0.00000000000E+00  0.00000000000E+00  0.23445338707E+03  0.23445338707E+03  0.00000000000E+00 0.  1.
         13   -1    0    0    0    0 -0.00000000000E+00 -0.00000000000E+00 -0.27500000000E+03  0.27500000000E+03  0.00000000000E+00 0.  1.
    9000005    2    1    2  501    0  0.87843018715E+01 -0.32109387256E+02 -0.72851773660E+02  0.46306588747E+03  0.45608602095E+03 0.  0.
         13    1    3    3    0    0  0.68434538801E+02  0.12752878908E+03  0.13249187701E+03  0.19621665479E+03  0.00000000000E+00 0.  1.
          1    1    3    3  501    0 -0.59650236929E+02 -0.15963817633E+03 -0.20534365067E+03  0.26684923268E+03  0.00000000000E+00 0.  1.
         21    1    1    2  502  501 -0.87843018715E+01  0.32109387256E+02  0.32305160726E+02  0.46387499597E+02  0.00000000000E+00 0. -1.
<scales pt_clust_4="550.00000" pt_clust_5="550.00000" pt_clust_6="33.28929"></scales>
<mgrwt>
<rscale>  0 0.30000000E+03</rscale>
<asrwt>  1 0.33289288E+02</asrwt>
<pdfrwt beam="1">  1        1 0.85255777E+00 0.30000000E+03</pdfrwt>
<pdfrwt beam="2">0</pdfrwt>
<totfact> 0.38846518E-04</totfact>
</mgrwt>
<clustering>
<clus scale="   33.289">  1  6  2 -1</clus>
<clus scale="  456.086">  4  5 -1 -1</clus>
<clus scale="  300.000">  1  4  2 -1</clus>
</clustering>
</event>
<event>
 6    1  0.9462926E-012  0.3000000E+03  0.7818608E-02  0.1093470E+00
          1   -1    0    0  502    0  0.00000000000E+00  0.00000000000E+00  0.23306915677E+03  0.23306915677E+03  0.00000000000E+00 0.  1.
         13   -1    0    0    0    0 -0.00000000000E+00 -0.00000000000E+00 -0.27500000000E+03  0.27500000000E+03  0.00000000000E+00 0.  1.
    9000005    2    1    2  501    0  0.21172898802E+02 -0.33903593906E+02 -0.12142869061E+02  0.45821869309E+03  0.45631039448E+03 0.  0.
         13    1    3    3    0    0  0.29387001723E+02 -0.10887787268E+03  0.20190834910E+03  0.23126817434E+03  0.00000000000E+00 0.  1.
          3    1    3    3  501    0 -0.82141029207E+01  0.74974278770E+02 -0.21405121816E+03  0.22695051875E+03  0.00000000000E+00 0.  1.
         21    1    1    2  502  501 -0.21172898802E+02  0.33903593906E+02 -0.29787974171E+02  0.49850463675E+02  0.00000000000E+00 0. -1.
<scales pt_clust_4="550.00000" pt_clust_5="550.00000" pt_clust_6="39.97183"></scales>
<mgrwt>
<rscale>  0 0.30000000E+03</rscale>
<asrwt>  1 0.39971827E+02</asrwt>
<pdfrwt beam="1">  1        1 0.84752421E+00 0.30000000E+03</pdfrwt>
<pdfrwt beam="2">0</pdfrwt>
<totfact> 0.41860135E-04</totfact>
</mgrwt>
<clustering>
<clus scale="   39.972">  1  6  2 -1</clus>
<clus scale="  456.310">  4  5 -1 -1</clus>
<clus scale="  300.000">  1  4  2 -1</clus>
</clustering>
</event>
<event>
 6    1  0.9462926E-012  0.3000000E+03  0.7818608E-02  0.1093470E+00
          1   -1    0    0  502    0  0.00000000000E+00  0.00000000000E+00  0.22468966078E+03  0.22468966078E+03  0.00000000000E+00 0.  1.
         13   -1    0    0    0    0 -0.00000000000E+00 -0.00000000000E+00 -0.27500000000E+03  0.27500000000E+03  0.00000000000E+00 0.  1.
    9000005    2    1    2  501    0  0.88278014775E+00 -0.37448482485E+02 -0.46041085107E+02  0.46198827259E+03  0.45815959485E+03 0.  0.
         13    1    3    3    0    0 -0.17093372281E+03 -0.83248347055E+02  0.11490317986E+03  0.22215167257E+03  0.00000000000E+00 0.  1.
          1    1    3    3  501    0  0.17181650296E+03  0.45799864570E+02 -0.16094426496E+03  0.23983660002E+03  0.00000000000E+00 0.  1.
         21    1    1    2  502  501 -0.88278014775E+00  0.37448482485E+02 -0.42692541100E+01  0.37701388195E+02  0.00000000000E+00 0.  1.
<scales pt_clust_4="550.00000" pt_clust_5="550.00000" pt_clust_6="37.45890"></scales>
<mgrwt>
<rscale>  0 0.30000000E+03</rscale>
<asrwt>  1 0.37458905E+02</asrwt>
<pdfrwt beam="1">  1        1 0.81705331E+00 0.30000000E+03</pdfrwt>
<pdfrwt beam="2">0</pdfrwt>
<totfact> 0.75631823E-04</totfact>
</mgrwt>
<clustering>
<clus scale="   37.459">  1  6  2 -1</clus>
<clus scale="  458.160">  4  5 -1 -1</clus>
<clus scale="  300.000">  1  4  2 -1</clus>
</clustering>
</event>
<event>
 6    1  0.9462926E-012  0.3000000E+03  0.7818608E-02  0.1093470E+00
          1   -1    0    0  502    0  0.00000000000E+00  0.00000000000E+00  0.23120796745E+03  0.23120796745E+03  0.00000000000E+00 0.  1.
         13   -1    0    0    0    0 -0.00000000000E+00 -0.00000000000E+00 -0.27500000000E+03  0.27500000000E+03  0.00000000000E+00 0.  1.
    9000005    2    1    2  501    0  0.30423769527E+02 -0.10312646831E+02 -0.65474148855E+02  0.46745141182E+03  0.46172719414E+03 0.  0.
         13    1    3    3    0    0  0.16561808984E+03 -0.95117355412E+01 -0.21127121807E+03  0.26861748339E+03  0.00000000000E+00 0.  1.
          3    1    3    3  501    0 -0.13519432031E+03 -0.80091128965E+00  0.14579706922E+03  0.19883392843E+03  0.00000000000E+00 0.  1.
         21    1    1    2  502  501 -0.30423769527E+02  0.10312646831E+02  0.21682116309E+02  0.38756555633E+02  0.00000000000E+00 0.  1.
<scales pt_clust_4="550.00000" pt_clust_5="550.00000" pt_clust_6="32.12408"></scales>
<mgrwt>
<rscale>  0 0.30000000E+03</rscale>
<asrwt>  1 0.32124079E+02</asrwt>
<pdfrwt beam="1">  1        1 0.84075625E+00 0.30000000E+03</pdfrwt>
<pdfrwt beam="2">0</pdfrwt>
<totfact> 0.49835551E-04</totfact>
</mgrwt>
<clustering>
<clus scale="   32.124">  1  6  2 -1</clus>
<clus scale="  461.727">  4  5 -1 -1</clus>
<clus scale="  300.000">  1  4  2 -1</clus>
</clustering>
</event>
<event>
 6    1  0.9462926E-012  0.3000000E+03  0.7818608E-02  0.1093470E+00
          1   -1    0    0  502    0  0.00000000000E+00  0.00000000000E+00  0.25228311156E+03  0.25228311156E+03  0.00000000000E+00 0.  1.
         13   -1    0    0    0    0 -0.00000000000E+00 -0.00000000000E+00 -0.27500000000E+03  0.27500000000E+03  0.00000000000E+00 0.  1.
    9000005    2    1    2  501    0  0.27420955128E+02 -0.24075547775E+02 -0.49449998180E+02  0.48204817001E+03  0.47811462549E+03 0.  0.
         13    1    3    3    0    0  0.30168979898E+02  0.93804440070E+02 -0.23916941596E+03  0.25867247603E+03  0.00000000000E+00 0.  1.
          1    1    3    3  501    0 -0.27480247704E+01 -0.11787998785E+03  0.18971941778E+03  0.22337569397E+03  0.00000000000E+00 0.  1.
         21    1    1    2  502  501 -0.27420955128E+02  0.24075547775E+02  0.26733109741E+02  0.45234941552E+02  0.00000000000E+00 0.  1.
<scales pt_clust_4="550.00000" pt_clust_5="550.00000" pt_clust_6="36.49028"></scales>
<mgrwt>
<rscale>  0 0.30000000E+03</rscale>
<asrwt>  1 0.36490283E+02</asrwt>
<pdfrwt beam="1">  1        1 0.91739313E+00 0.30000000E+03</pdfrwt>
<pdfrwt beam="2">0</pdfrwt>
<totfact> 0.47363036E-05</totfact>
</mgrwt>
<clustering>
<clus scale="   36.490">  1  6  2 -1</clus>
<clus scale="  478.115">  4  5 -1 -1</clus>
<clus scale="  300.000">  1  4  2 -1</clus>
</clustering>
</event>
<event>
 6    1  0.9462926E-012  0.3000000E+03  0.7818608E-02  0.1093470E+00
          1   -1    0    0  502    0  0.00000000000E+00  0.00000000000E+00  0.23963253887E+03  0.23963253887E+03  0.00000000000E+00 0.  1.
         13   -1    0    0    0    0 -0.00000000000E+00 -0.00000000000E+00 -0.27500000000E+03  0.27500000000E+03  0.00000000000E+00 0.  1.
    9000005    2    1    2  501    0 -0.13153876108E+02 -0.29332003280E+02 -0.41125902516E+02  0.48197445380E+03  0.47913948218E+03 0.  0.
         13    1    3    3    0    0  0.14553693029E+03  0.82575620507E+02  0.13868142036E+03  0.21732985882E+03  0.00000000000E+00 0.  1.
          3    1    3    3  501    0 -0.15869080640E+03 -0.11190762379E+03 -0.17980732288E+03  0.26464459499E+03  0.00000000000E+00 0.  1.
         21    1    1    2  502  501  0.13153876108E+02  0.29332003280E+02  0.57584413873E+01  0.32658085067E+02  0.00000000000E+00 0.  1.
<scales pt_clust_4="550.00000" pt_clust_5="550.00000" pt_clust_6="32.14640"></scales>
<mgrwt>
<rscale>  0 0.30000000E+03</rscale>
<asrwt>  1 0.32146398E+02</asrwt>
<pdfrwt beam="1">  1        1 0.87139105E+00 0.30000000E+03</pdfrwt>
<pdfrwt beam="2">0</pdfrwt>
<totfact> 0.24906403E-04</totfact>
</mgrwt>
<clustering>
<clus scale="   32.146">  1  6  2 -1</clus>
<clus scale="  479.139">  4  5 -1 -1</clus>
<clus scale="  300.000">  1  4  2 -1</clus>
</clustering>
</event>
<event>
 6    1  0.9462926E-012  0.3000000E+03  0.7818608E-02  0.1093470E+00
          1   -1    0    0  502    0  0.00000000000E+00  0.00000000000E+00  0.22845962375E+03  0.22845962375E+03  0.00000000000E+00 0.  1.
         13   -1    0    0    0    0 -0.00000000000E+00 -0.00000000000E+00 -0.27500000000E+03  0.27500000000E+03  0.00000000000E+00 0.  1.
    9000005    2    1    2  501    0  0.28463219610E+02  0.10317757561E+02 -0.69708534233E+02  0.46533647414E+03  0.45908838303E+03 0.  0.
         13    1    3    3    0    0 -0.34293945811E+02  0.14830461444E+03  0.13984333659E+03  0.20670387556E+03  0.00000000000E+00 0.  1.
          1    1    3    3  501    0  0.62757165421E+02 -0.13798685688E+03 -0.20955187083E+03  0.25863259858E+03  0.00000000000E+00 0.  1.
         21    1    1    2  502  501 -0.28463219610E+02 -0.10317757561E+02  0.23168157986E+02  0.38123149609E+02  0.00000000000E+00 0. -1.
<scales pt_clust_4="550.00000" pt_clust_5="550.00000" pt_clust_6="30.27558"></scales>
<mgrwt>
<rscale>  0 0.30000000E+03</rscale>
<asrwt>  1 0.30275584E+02</asrwt>
<pdfrwt beam="1">  1        1 0.83076227E+00 0.30000000E+03</pdfrwt>
<pdfrwt beam="2">0</pdfrwt>
<totfact> 0.59886658E-04</totfact>
</mgrwt>
<clustering>
<clus scale="   30.276">  1  6  2 -1</clus>
<clus scale="  459.088">  4  5 -1 -1</clus>
<clus scale="  300.000">  1  4  2 -1</clus>
</clustering>
</event>
<event>
 6    1  0.9462926E-012  0.3000000E+03  0.7818608E-02  0.1093470E+00
          1   -1    0    0  502    0  0.00000000000E+00  0.00000000000E+00  0.24550384184E+03  0.24550384184E+03  0.00000000000E+00 0.  1.
         13   -1    0    0    0    0 -0.00000000000E+00 -0.00000000000E+00 -0.27500000000E+03  0.27500000000E+03  0.00000000000E+00 0.  1.
    9000005    2    1    2  501    0 -0.35314531722E+02 -0.51170774233E+01 -0.70610218915E+02  0.46606427329E+03  0.45930034094E+03 0.  0.
         13    1    3    3    0    0  0.57896130526E+01 -0.86119371534E+02 -0.25027611197E+03  0.26474175718E+03  0.00000000000E+00 0.  1.
          1    1    3    3  501    0 -0.41104144775E+02  0.81002294110E+02  0.17966589305E+03  0.20132251611E+03  0.00000000000E+00 0.  1.
         21    1    1    2  502  501  0.35314531722E+02  0.51170774233E+01  0.41114060760E+02  0.54439568553E+02  0.00000000000E+00 0.  1.
<scales pt_clust_4="550.00000" pt_clust_5="550.00000" pt_clust_6="35.68334"></scales>
<mgrwt>
<rscale>  0 0.30000000E+03</rscale>
<asrwt>  1 0.35683338E+02</asrwt>
<pdfrwt beam="1">  1        1 0.89274124E+00 0.30000000E+03</pdfrwt>
<pdfrwt beam="2">0</pdfrwt>
<totfact> 0.13338443E-04</totfact>
</mgrwt>
<clustering>
<clus scale="   35.683">  1  6  2 -1</clus>
<clus scale="  459.300">  4  5 -1 -1</clus>
<clus scale="  300.000">  1  4  2 -1</clus>
</clustering>
</event>
<event>
 6    1  0.9462926E-012  0.3000000E+03  0.7818608E-02  0.1093470E+00
          1   -1    0    0  502    0  0.00000000000E+00  0.00000000000E+00  0.22660057667E+03  0.22660057667E+03  0.00000000000E+00 0.  1.
         13   -1    0    0    0    0 -0.00000000000E+00 -0.00000000000E+00 -0.27500000000E+03  0.27500000000E+03  0.00000000000E+00 0.  1.
    9000005    2    1    2  501    0 -0.35974622806E+02 -0.14993043497E+01 -0.48817769866E+02  0.46559229410E+03  0.46162386016E+03 0.  0.
         13    1    3    3    0    0  0.18430013555E+03 -0.89920097507E+02  0.45717143340E+02  0.21010050236E+03  0.00000000000E+00 0.  1.
          1    1    3    3  501    0 -0.22027475835E+03  0.88420793158E+02 -0.94534913206E+02  0.25549179174E+03  0.00000000000E+00 0.  1.
         21    1    1    2  502  501  0.35974622806E+02  0.14993043497E+01  0.41834653389E+00  0.36008282567E+02  0.00000000000E+00 0. -1.
<scales pt_clust_4="550.00000" pt_clust_5="550.00000" pt_clust_6="36.00585"></scales>
<mgrwt>
<rscale>  0 0.30000000E+03</rscale>
<asrwt>  1 0.36005852E+02</asrwt>
<pdfrwt beam="1">  1        1 0.82400210E+00 0.30000000E+03</pdfrwt>
<pdfrwt beam="2">0</pdfrwt>
<totfact> 0.66320523E-04</totfact>
</mgrwt>
<clustering>
<clus scale="   36.006">  1  6  2 -1</clus>
<clus scale="  461.624">  4  5 -1 -1</clus>
<clus scale="  300.000">  1  4  2 -1</clus>
</clustering>
</event>
<event>
 6    1  0.9462926E-012  0.3000000E+03  0.7818608E-02  0.1093470E+00
          1   -1    0    0  502    0  0.00000000000E+00  0.00000000000E+00  0.22550297035E+03  0.22550297035E+03  0.00000000000E+00 0.  1.
         13   -1    0    0    0    0 -0.00000000000E+00 -0.00000000000E+00 -0.27500000000E+03  0.27500000000E+03  0.00000000000E+00 0.  1.
    9000005    2    1    2  501    0  0.38273122443E+02  0.59659200912E+01 -0.50862721191E+02  0.46174359448E+03  0.45729608191E+03 0.  0.
         13    1    3    3    0    0 -0.74121238006E+02  0.30798669774E+02  0.18369481277E+03  0.20046520951E+03  0.00000000000E+00 0.  1.
          1    1    3    3  501    0  0.11239436045E+03 -0.24832749683E+02 -0.23455753396E+03  0.26127838498E+03  0.00000000000E+00 0.  1.
         21    1    1    2  502  501 -0.38273122443E+02 -0.59659200912E+01  0.13656915388E+01  0.38759375865E+02  0.00000000000E+00 0. -1.
<scales pt_clust_4="550.00000" pt_clust_5="550.00000" pt_clust_6="38.73531"></scales>
<mgrwt>
<rscale>  0 0.30000000E+03</rscale>
<asrwt>  1 0.38735308E+02</asrwt>
<pdfrwt beam="1">  1        1 0.82001080E+00 0.30000000E+03</pdfrwt>
<pdfrwt beam="2">0</pdfrwt>
<totfact> 0.70967272E-04</totfact>
</mgrwt>
<clustering>
<clus scale="   38.735">  1  6  2 -1</clus>
<clus scale="  457.296">  4  5 -1 -1</clus>
<clus scale="  300.000">  1  4  2 -1</clus>
</clustering>
</event>
<event>
 6    1  0.9462926E-012  0.3000000E+03  0.7818608E-02  0.1093470E+00
          1   -1    0    0  502    0  0.00000000000E+00  0.00000000000E+00  0.24597200584E+03  0.24597200584E+03  0.00000000000E+00 0.  1.
         13   -1    0    0    0    0 -0.00000000000E+00 -0.00000000000E+00 -0.27500000000E+03  0.27500000000E+03  0.00000000000E+00 0.  1.
    9000005    2    1    2  501    0  0.33204925472E+02  0.38398888914E+01 -0.61275686598E+02  0.47452606425E+03  0.46936442565E+03 0.  0.
         13    1    3    3    0    0 -0.38025350665E+02  0.77706226022E+01 -0.26026119784E+03  0.26313912854E+03  0.00000000000E+00 0.  1.
          3    1    3    3  501    0  0.71230276137E+02 -0.39307337108E+01  0.19898551124E+03  0.21138693571E+03  0.00000000000E+00 0.  1.
         21    1    1    2  502  501 -0.33204925472E+02 -0.38398888914E+01  0.32247692442E+02  0.46445941590E+02  0.00000000000E+00 0.  1.
<scales pt_clust_4="550.00000" pt_clust_5="550.00000" pt_clust_6="33.42621"></scales>
<mgrwt>
<rscale>  0 0.30000000E+03</rscale>
<asrwt>  1 0.33426215E+02</asrwt>
<pdfrwt beam="1">  1        1 0.89444366E+00 0.30000000E+03</pdfrwt>
<pdfrwt beam="2">0</pdfrwt>
<totfact> 0.12903581E-04</totfact>
</mgrwt>
<clustering>
<clus scale="   33.426">  1  6  2 -1</clus>
<clus scale="  469.364">  4  5 -1 -1</clus>
<clus scale="  300.000">  1  4  2 -1</clus>
</clustering>
</event>
<event>
 6    1  0.9462926E-012  0.3000000E+03  0.7818608E-02  0.1093470E+00
          1   -1    0    0  502    0  0.00000000000E+00  0.00000000000E+00  0.22536166385E+03  0.22536166385E+03  0.00000000000E+00 0.  1.
         13   -1    0    0    0    0 -0.00000000000E+00 -0.00000000000E+00 -0.27500000000E+03  0.27500000000E+03  0.00000000000E+00 0.  1.
    9000005    2    1    2  501    0 -0.26449922851E+02 -0.19353791338E+02 -0.45513923723E+02  0.46732867374E+03  0.46395086420E+03 0.  0.
         13    1    3    3    0    0  0.16345447312E+03  0.13917619245E+03 -0.47818313090E+02  0.21994082930E+03  0.00000000000E+00 0.  1.
          1    1    3    3  501    0 -0.18990439597E+03 -0.15852998379E+03  0.23043893670E+01  0.24738784444E+03  0.00000000000E+00 0.  1.
         21    1    1    2  502  501  0.26449922851E+02  0.19353791338E+02 -0.41244124219E+01  0.33032990113E+02  0.00000000000E+00 0.  1.
<scales pt_clust_4="550.00000" pt_clust_5="550.00000" pt_clust_6="32.77451"></scales>
<mgrwt>
<rscale>  0 0.30000000E+03</rscale>
<asrwt>  1 0.32774513E+02</asrwt>
<pdfrwt beam="1">  1        1 0.81949696E+00 0.30000000E+03</pdfrwt>
<pdfrwt beam="2">0</pdfrwt>
<totfact> 0.73964054E-04</totfact>
</mgrwt>
<clustering>
<clus scale="   32.775">  1  6  2 -1</clus>
<clus scale="  463.951">  4  5 -1 -1</clus>
<clus scale="  300.000">  1  4  2 -1</clus>
</clustering>
</event>
<event>
 6    1  0.9462926E-012  0.3000000E+03  0.7818608E-02  0.1093470E+00
          1   -1    0    0  502    0  0.00000000000E+00  0.00000000000E+00  0.24743760363E+03  0.24743760363E+03  0.00000000000E+00 0.  1.
         13   -1    0    0    0    0 -0.00000000000E+00 -0.00000000000E+00 -0.27500000000E+03  0.27500000000E+03  0.00000000000E+00 0.  1.
    9000005    2    1    2  501    0  0.40644918588E+02  0.13899168016E+01 -0.60973879246E+02  0.46980426378E+03  0.46405203484E+03 0.  0.
         13    1    3    3    0    0  0.19012159383E+02 -0.19999258061E+03  0.87044420504E+02  0.21894114653E+03  0.00000000000E+00 0.  1.
          3    1    3    3  501    0  0.21632759204E+02  0.20138249741E+03 -0.14801829975E+03  0.25086311725E+03  0.00000000000E+00 0.  1.
         21    1    1    2  502  501 -0.40644918588E+02 -0.13899168016E+01  0.33411482873E+02  0.52633339847E+02  0.00000000000E+00 0.  1.
<scales pt_clust_4="550.00000" pt_clust_5="550.00000" pt_clust_6="40.66868"></scales>
<mgrwt>
<rscale>  0 0.30000000E+03</rscale>
<asrwt>  1 0.40668677E+02</asrwt>
<pdfrwt beam="1">  1        1 0.89977310E+00 0.30000000E+03</pdfrwt>
<pdfrwt beam="2">0</pdfrwt>
<totfact> 0.10812828E-04</totfact>
</mgrwt>
<clustering>
<clus scale="   40.669">  1  6  2 -1</clus>
<clus scale="  464.052">  4  5 -1 -1</clus>
<clus scale="  300.000">  1  4  2 -1</clus>
</clustering>
</event>
<event>
 6    1  0.9462926E-012  0.3000000E+03  0.7818608E-02  0.1093470E+00
          1   -1    0    0  502    0  0.00000000000E+00  0.00000000000E+00  0.23071748061E+03  0.23071748061E+03  0.00000000000E+00 0.  1.
         13   -1    0    0    0    0 -0.00000000000E+00 -0.00000000000E+00 -0.27500000000E+03  0.27500000000E+03  0.00000000000E+00 0.  1.
    9000005    2    1    2  501    0  0.97460536600E+01 -0.41931127386E+02 -0.48884395513E+02  0.46242334395E+03  0.45781269084E+03 0.  0.
         13    1    3    3    0    0 -0.13803260280E+03  0.15764905494E+03 -0.11501385140E+01  0.20954127702E+03  0.00000000000E+00 0.  1.
          3    1    3    3  501    0  0.14777865646E+03 -0.19958018232E+03 -0.47734256998E+02  0.25288206692E+03  0.00000000000E+00 0.  1.
         21    1    1    2  502  501 -0.97460536600E+01  0.41931127386E+02  0.46018761273E+01  0.43294136666E+02  0.00000000000E+00 0.  1.
<scales pt_clust_4="550.00000" pt_clust_5="550.00000" pt_clust_6="43.04887"></scales>
<mgrwt>
<rscale>  0 0.30000000E+03</rscale>
<asrwt>  1 0.43048868E+02</asrwt>
<pdfrwt beam="1">  1        1 0.83897266E+00 0.30000000E+03</pdfrwt>
<pdfrwt beam="2">0</pdfrwt>
<totfact> 0.48715679E-04</totfact>
</mgrwt>
<clustering>
<clus scale="   43.049">  1  6  2 -1</clus>
<clus scale="  457.813">  4  5 -1 -1</clus>
<clus scale="  300.000">  1  4  2 -1</clus>
</clustering>
</event>
<event>
 6    1  0.9462926E-012  0.3000000E+03  0.7818608E-02  0.1093470E+00
          1   -1    0    0  502    0  0.00000000000E+00  0.00000000000E+00  0.22597662942E+03  0.22597662942E+03  0.00000000000E+00 0.  1.
         13   -1    0    0    0    0 -0.00000000000E+00 -0.00000000000E+00 -0.27500000000E+03  0.27500000000E+03  0.00000000000E+00 0.  1.
    9000005    2    1    2  501    0  0.37242992304E+02 -0.31583350072E+01 -0.30750498270E+02  0.45937238182E+03  0.45681547312E+03 0.  0.
         13    1    3    3    0    0 -0.19247489468E+03  0.32061233057E+02  0.68310612350E+02  0.20673859704E+03  0.00000000000E+00 0.  1.
          3    1    3    3  501    0  0.22971788698E+03 -0.35219568064E+02 -0.99061110620E+02  0.25263378478E+03  0.00000000000E+00 0.  1.
         21    1    1    2  502  501 -0.37242992304E+02  0.31583350072E+01 -0.18272872312E+02  0.41604247600E+02  0.00000000000E+00 0.  1.
<scales pt_clust_4="550.00000" pt_clust_5="550.00000" pt_clust_6="37.37669"></scales>
<mgrwt>
<rscale>  0 0.30000000E+03</rscale>
<asrwt>  1 0.37376690E+02</asrwt>
<pdfrwt beam="1">  1        1 0.82173320E+00 0.30000000E+03</pdfrwt>
<pdfrwt beam="2">0</pdfrwt>
<totfact> 0.68997467E-04</totfact>
</mgrwt>
<clustering>
<clus scale="   37.377">  1  6  2 -1</clus>
<clus scale="  456.815">  4  5 -1 -1</clus>
<clus scale="  300.000">  1  4  2 -1</clus>
</clustering>
</event>
<event>
 6    1  0.9462926E-012  0.3000000E+03  0.7818608E-02  0.1093470E+00
          1   -1    0    0  502    0  0.00000000000E+00  0.00000000000E+00  0.22641191735E+03  0.22641191735E+03  0.00000000000E+00 0.  1.
         13   -1    0    0    0    0 -0.00000000000E+00 -0.00000000000E+00 -0.27500000000E+03  0.27500000000E+03  0.00000000000E+00 0.  1.
    9000005    2    1    2  501    0 -0.31328079144E+01  0.32604770017E+02 -0.58048626070E+02  0.46731811447E+03  0.46254047564E+03 0.  0.
         13    1    3    3    0    0  0.20781993861E+03 -0.33090894712E+02 -0.11409056932E+03  0.23937583881E+03  0.00000000000E+00 0.  1.
          3    1    3    3  501    0 -0.21095274652E+03  0.65695664728E+02  0.56041943253E+02  0.22794227566E+03  0.00000000000E+00 0.  1.
         21    1    1    2  502  501  0.31328079144E+01 -0.32604770017E+02  0.94605434209E+01  0.34093802884E+02  0.00000000000E+00 0. -1.
<scales pt_clust_4="550.00000" pt_clust_5="550.00000" pt_clust_6="32.75493"></scales>
<mgrwt>
<rscale>  0 0.30000000E+03</rscale>
<asrwt>  1 0.32754931E+02</asrwt>
<pdfrwt beam="1">  1        1 0.82331606E+00 0.30000000E+03</pdfrwt>
<pdfrwt beam="2">0</pdfrwt>
<totfact> 0.68468167E-04</totfact>
</mgrwt>
<clustering>
<clus scale="   32.755">  1  6  2 -1</clus>
<clus scale="  462.540">  4  5 -1 -1</clus>
<clus scale="  300.000">  1  4  2 -1</clus>
</clustering>
</event>
<event>
 6    1  0.9462926E-012  0.3000000E+03  0.7818608E-02  0.1093470E+00
          1   -1    0    0  502    0  0.00000000000E+00  0.00000000000E+00  0.25159632994E+03  0.25159632994E+03  0.00000000000E+00 0.  1.
         13   -1    0    0    0    0 -0.00000000000E+00 -0.00000000000E+00 -0.27500000000E+03  0.27500000000E+03  0.00000000000E+00 0.  1.
    9000005    2    1    2  501    0  0.15654550833E+02 -0.44702420049E+02 -0.46162841955E+02  0.47404776930E+03  0.46941123578E+03 0.  0.
         13    1    3    3    0    0 -0.37131755290E+02 -0.75480852486E+02  0.20181924843E+03  0.21864842872E+03  0.00000000000E+00 0.  1.
          1    1    3    3  501    0  0.52786306123E+02  0.30778432437E+02 -0.24798209039E+03  0.25539934058E+03  0.00000000000E+00 0.  1.
         21    1    1    2  502  501 -0.15654550833E+02  0.44702420049E+02  0.22759171891E+02  0.52548560638E+02  0.00000000000E+00 0. -1.
<scales pt_clust_4="550.00000" pt_clust_5="550.00000" pt_clust_6="47.36424"></scales>
<mgrwt>
<rscale>  0 0.30000000E+03</rscale>
<asrwt>  1 0.47364241E+02</asrwt>
<pdfrwt beam="1">  1        1 0.91489575E+00 0.30000000E+03</pdfrwt>
<pdfrwt beam="2">0</pdfrwt>
<totfact> 0.51533279E-05</totfact>
</mgrwt>
<clustering>
<clus scale="   47.364">  1  6  2 -1</clus>
<clus scale="  469.411">  4  5 -1 -1</clus>
<clus scale="  300.000">  1  4  2 -1</clus>
</clustering>
</event>
<event>
 6    1  0.9462926E-012  0.3000000E+03  0.7818608E-02  0.1093470E+00
          1   -1    0    0  502    0  0.00000000000E+00  0.00000000000E+00  0.23452748395E+03  0.23452748395E+03  0.00000000000E+00 0.  1.
         13   -1    0    0    0    0 -0.00000000000E+00 -0.00000000000E+00 -0.27500000000E+03  0.27500000000E+03  0.00000000000E+00 0.  1.
    9000005    2    1    2  501    0 -0.12984635197E+01  0.32762620882E+02 -0.64025329538E+02  0.46915657416E+03  0.46360928907E+03 0.  0.
         13    1    3    3    0    0  0.21326818670E+03 -0.13471157815E+02 -0.11663096511E+03  0.24344932444E+03  0.00000000000E+00 0.  1.
          1    1    3    3  501    0 -0.21456665022E+03  0.46233778697E+02  0.52605635567E+02  0.22570724971E+03  0.00000000000E+00 0.  1.
         21    1    1    2  502  501  0.12984635197E+01 -0.32762620882E+02  0.23552813491E+02  0.40370909798E+02  0.00000000000E+00 0. -1.
<scales pt_clust_4="550.00000" pt_clust_5="550.00000" pt_clust_6="32.78834"></scales>
<mgrwt>
<rscale>  0 0.30000000E+03</rscale>
<asrwt>  1 0.32788341E+02</asrwt>
<pdfrwt beam="1">  1        1 0.85282721E+00 0.30000000E+03</pdfrwt>
<pdfrwt beam="2">0</pdfrwt>
<totfact> 0.38725965E-04</totfact>
</mgrwt>
<clustering>
<clus scale="   32.788">  1  6  2 -1</clus>
<clus scale="  463.609">  4  5 -1 -1</clus>
<clus scale="  300.000">  1  4  2 -1</clus>
</clustering>
</event>
<event>
 6    1  0.9462926E-012  0.3000000E+03  0.7818608E-02  0.1093470E+00
          1   -1    0    0  502    0  0.00000000000E+00  0.00000000000E+00  0.26939935757E+03  0.26939935757E+03  0.00000000000E+00 0.  1.
         13   -1    0    0    0    0 -0.00000000000E+00 -0.00000000000E+00 -0.27500000000E+03  0.27500000000E+03  0.00000000000E+00 0.  1.
    9000005    2    1    2  501    0 -0.90174954195E+01 -0.37613492800E+02  0.62945372526E+01  0.50393226768E+03  0.50240622921E+03 0.  0.
         13    1    3    3    0    0  0.11819032994E+03 -0.20217415241E+03 -0.11736848754E+03  0.26195172048E+03  0.00000000000E+00 0.  1.
          1    1    3    3  501    0 -0.12720782535E+03  0.16456065961E+03  0.12366302479E+03  0.24198054720E+03  0.00000000000E+00 0.  1.
         21    1    1    2  502  501  0.90174954195E+01  0.37613492800E+02 -0.11895179685E+02  0.40467089888E+02  0.00000000000E+00 0.  1.
<scales pt_clust_4="550.00000" pt_clust_5="550.00000" pt_clust_6="38.67934"></scales>
<mgrwt>
<rscale>  0 0.30000000E+03</rscale>
<asrwt>  1 0.38679343E+02</asrwt>
<pdfrwt beam="1">  1        1 0.97963403E+00 0.30000000E+03</pdfrwt>
<pdfrwt beam="2">0</pdfrwt>
<totfact> 0.29056696E-06</totfact>
</mgrwt>
<clustering>
<clus scale="   38.679">  1  6  2 -1</clus>
<clus scale="  502.406">  4  5 -1 -1</clus>
<clus scale="  300.000">  1  4  2 -1</clus>
</clustering>
</event>
<event>
 6    1  0.9462926E-012  0.3000000E+03  0.7818608E-02  0.1093470E+00
          1   -1    0    0  502    0  0.00000000000E+00  0.00000000000E+00  0.23682721019E+03  0.23682721019E+03  0.00000000000E+00 0.  1.
         13   -1    0    0    0    0 -0.00000000000E+00 -0.00000000000E+00 -0.27500000000E+03  0.27500000000E+03  0.00000000000E+00 0.  1.
    9000005    2    1    2  501    0 -0.34383724016E+02  0.10145345405E+02 -0.19071636748E+02  0.47120674049E+03  0.46945382781E+03 0.  0.
         13    1    3    3    0    0  0.20226601562E+03  0.64610922997E+02  0.51173507741E+02  0.21841437760E+03  0.00000000000E+00 0.  1.
          3    1    3    3  501    0 -0.23664973964E+03 -0.54465577592E+02 -0.70245144489E+02  0.25279236290E+03  0.00000000000E+00 0.  1.
         21    1    1    2  502  501  0.34383724016E+02 -0.10145345405E+02 -0.19101153057E+02  0.40620469700E+02  0.00000000000E+00 0.  1.
<scales pt_clust_4="550.00000" pt_clust_5="550.00000" pt_clust_6="35.84926"></scales>
<mgrwt>
<rscale>  0 0.30000000E+03</rscale>
<asrwt>  1 0.35849265E+02</asrwt>
<pdfrwt beam="1">  1        1 0.86118986E+00 0.30000000E+03</pdfrwt>
<pdfrwt beam="2">0</pdfrwt>
<totfact> 0.31270079E-04</totfact>
</mgrwt>
<clustering>
<clus scale="   35.849">  1  6  2 -1</clus>
<clus scale="  469.454">  4  5 -1 -1</clus>
<clus scale="  300.000">  1  4  2 -1</clus>
</clustering>
</event>
<event>
 6    1  0.9462926E-012  0.3000000E+03  0.7818608E-02  0.1093470E+00
          1   -1    0    0  502    0  0.00000000000E+00  0.00000000000E+00  0.23804330170E+03  0.23804330170E+03  0.00000000000E+00 0.  1.
         13   -1    0    0    0    0 -0.00000000000E+00 -0.00000000000E+00 -0.27500000000E+03  0.27500000000E+03  0.00000000000E+00 0.  1.
    9000005    2    1    2  501    0 -0.34743095529E+02 -0.90904769837E+01 -0.54696936426E+02  0.47298789623E+03  0.46844004490E+03 0.  0.
         13    1    3    3    0    0  0.18488431079E+03  0.56286214237E+02 -0.12868784273E+03  0.23218722435E+03  0.00000000000E+00 0.  1.
          1    1    3    3  501    0 -0.21962740632E+03 -0.65376691221E+02  0.73990906299E+02  0.24080067187E+03  0.00000000000E+00 0.  1.
         21    1    1    2  502  501  0.34743095529E+02  0.90904769837E+01  0.17740238128E+02  0.40055405473E+02  0.00000000000E+00 0. -1.
<scales pt_clust_4="550.00000" pt_clust_5="550.00000" pt_clust_6="35.91266"></scales>
<mgrwt>
<rscale>  0 0.30000000E+03</rscale>
<asrwt>  1 0.35912664E+02</asrwt>
<pdfrwt beam="1">  1        1 0.86561201E+00 0.30000000E+03</pdfrwt>
<pdfrwt beam="2">0</pdfrwt>
<totfact> 0.28006321E-04</totfact>
</mgrwt>
<clustering>
<clus scale="   35.913">  1  6  2 -1</clus>
<clus scale="  468.440">  4  5 -1 -1</clus>
<clus scale="  300.000">  1  4  2 -1</clus>
</clustering>
</event>
<event>
 6    1  0.9462926E-012  0.3000000E+03  0.7818608E-02  0.1093470E+00
          1   -1    0    0  502    0  0.00000000000E+00  0.00000000000E+00  0.22708330926E+03  0.22708330926E+03  0.00000000000E+00 0.  1.
         13   -1    0    0    0    0 -0.00000000000E+00 -0.00000000000E+00 -0.27500000000E+03  0.27500000000E+03  0.00000000000E+00 0.  1.
    9000005    2    1    2  501    0  0.11977769017E+02  0.35634340122E+02 -0.51908292546E+02  0.46427846788E+03  0.45983339566E+03 0.  0.
         13    1    3    3    0    0 -0.80668614281E+02 -0.24159594622E+02 -0.23550866531E+03  0.25011086098E+03  0.00000000000E+00 0.  1.
          1    1    3    3  501    0  0.92646383298E+02  0.59793934744E+02  0.18360037276E+03  0.21416760691E+03  0.00000000000E+00 0.  1.
         21    1    1    2  502  501 -0.11977769017E+02 -0.35634340122E+02  0.39916018071E+01  0.37804841377E+02  0.00000000000E+00 0. -1.
<scales pt_clust_4="550.00000" pt_clust_5="550.00000" pt_clust_6="37.59353"></scales>
<mgrwt>
<rscale>  0 0.30000000E+03</rscale>
<asrwt>  1 0.37593525E+02</asrwt>
<pdfrwt beam="1">  1        1 0.82575749E+00 0.30000000E+03</pdfrwt>
<pdfrwt beam="2">0</pdfrwt>
<totfact> 0.63461120E-04</totfact>
</mgrwt>
<clustering>
<clus scale="   37.594">  1  6  2 -1</clus>
<clus scale="  459.833">  4  5 -1 -1</clus>
<clus scale="  300.000">  1  4  2 -1</clus>
</clustering>
</event>
<event>
 6    1  0.9462926E-012  0.3000000E+03  0.7818608E-02  0.1093470E+00
          1   -1    0    0  502    0  0.00000000000E+00  0.00000000000E+00  0.25326496528E+03  0.25326496528E+03  0.00000000000E+00 0.  1.
         13   -1    0    0    0    0 -0.00000000000E+00 -0.00000000000E+00 -0.27500000000E+03  0.27500000000E+03  0.00000000000E+00 0.  1.
    9000005    2    1    2  501    0  0.17325395812E+02  0.55726602245E+02 -0.30611668030E+02  0.46923600496E+03  0.46458554712E+03 0.  0.
         13    1    3    3    0    0  0.86374784347E+02 -0.18894542435E+03  0.24227040953E+02  0.20916004940E+03  0.00000000000E+00 0.  1.
          3    1    3    3  501    0 -0.69049388535E+02  0.24467202659E+03 -0.54838708983E+02  0.26007595556E+03  0.00000000000E+00 0.  1.
         21    1    1    2  502  501 -0.17325395812E+02 -0.55726602245E+02  0.88766333125E+01  0.59028960323E+02  0.00000000000E+00 0. -1.
<scales pt_clust_4="550.00000" pt_clust_5="550.00000" pt_clust_6="58.35772"></scales>
<mgrwt>
<rscale>  0 0.30000000E+03</rscale>
<asrwt>  1 0.58357720E+02</asrwt>
<pdfrwt beam="1">  1        1 0.92096351E+00 0.30000000E+03</pdfrwt>
<pdfrwt beam="2">0</pdfrwt>
<totfact> 0.36369571E-05</totfact>
</mgrwt>
<clustering>
<clus scale="   58.358">  1  6  2 -1</clus>
<clus scale="  464.586">  4  5 -1 -1</clus>
<clus scale="  300.000">  1  4  2 -1</clus>
</clustering>
</event>
<event>
 6    1  0.9462926E-012  0.3000000E+03  0.7818608E-02  0.1093470E+00
          1   -1    0    0  502    0  0.00000000000E+00  0.00000000000E+00  0.23525615379E+03  0.23525615379E+03  0.00000000000E+00 0.  1.
         13   -1    0    0    0    0 -0.00000000000E+00 -0.00000000000E+00 -0.27500000000E+03  0.27500000000E+03  0.00000000000E+00 0.  1.
    9000005    2    1    2  501    0  0.25153785504E+02 -0.23957699091E+02 -0.31719350136E+02  0.47460398965E+03  0.47226702780E+03 0.  0.
         13    1    3    3    0    0 -0.21583043488E+03 -0.16385598803E+02  0.45997077061E+02  0.22128487424E+03  0.00000000000E+00 0.  1.
          1    1    3    3  501    0  0.24098422038E+03 -0.75721002881E+01 -0.77716427197E+02  0.25331911541E+03  0.00000000000E+00 0.  1.
         21    1    1    2  502  501 -0.25153785504E+02  0.23957699091E+02 -0.80244960714E+01  0.35652164144E+02  0.00000000000E+00 0. -1.
<scales pt_clust_4="550.00000" pt_clust_5="550.00000" pt_clust_6="34.73738"></scales>
<mgrwt>
<rscale>  0 0.30000000E+03</rscale>
<asrwt>  1 0.34737379E+02</asrwt>
<pdfrwt beam="1">  1        1 0.85547692E+00 0.30000000E+03</pdfrwt>
<pdfrwt beam="2">0</pdfrwt>
<totfact> 0.36088117E-04</totfact>
</mgrwt>
<clustering>
<clus scale="   34.737">  1  6  2 -1</clus>
<clus scale="  472.267">  4  5 -1 -1</clus>
<clus scale="  300.000">  1  4  2 -1</clus>
</clustering>
</event>
<event>
 6    1  0.9462926E-012  0.3000000E+03  0.7818608E-02  0.1093470E+00
          1   -1    0    0  502    0  0.00000000000E+00  0.00000000000E+00  0.21830273667E+03  0.21830273667E+03  0.00000000000E+00 0.  1.
         13   -1    0    0    0    0 -0.00000000000E+00 -0.00000000000E+00 -0.27500000000E+03  0.27500000000E+03  0.00000000000E+00 0.  1.
    9000005    2    1    2  501    0 -0.11486354129E+02 -0.29687460004E+02 -0.54892820626E+02  0.46141954947E+03  0.45703555361E+03 0.  0.
         13    1    3    3    0    0 -0.13969382067E+03  0.94262832497E+02 -0.17769515517E+03  0.24489878174E+03  0.00000000000E+00 0.  1.
          3    1    3    3  501    0  0.12820746654E+03 -0.12395029250E+03  0.12280233455E+03  0.21652076773E+03  0.00000000000E+00 0.  1.
         21    1    1    2  502  501  0.11486354129E+02  0.29687460004E+02 -0.18044427018E+01  0.31883187202E+02  0.00000000000E+00 0.  1.
<scales pt_clust_4="550.00000" pt_clust_5="550.00000" pt_clust_6="31.83208"></scales>
<mgrwt>
<rscale>  0 0.30000000E+03</rscale>
<asrwt>  1 0.31832085E+02</asrwt>
<pdfrwt beam="1">  1        1 0.79382813E+00 0.30000000E+03</pdfrwt>
<pdfrwt beam="2">0</pdfrwt>
<totfact> 0.11720650E-03</totfact>
</mgrwt>
<clustering>
<clus scale="   31.832">  1  6  2 -1</clus>
<clus scale="  457.036">  4  5 -1 -1</clus>
<clus scale="  300.000">  1  4  2 -1</clus>
</clustering>
</event>
<event>
 6    1  0.9462926E-012  0.3000000E+03  0.7818608E-02  0.1093470E+00
          1   -1    0    0  502    0  0.00000000000E+00  0.00000000000E+00  0.24262113654E+03  0.24262113654E+03  0.00000000000E+00 0.  1.
         13   -1    0    0    0    0 -0.00000000000E+00 -0.00000000000E+00 -0.27500000000E+03  0.27500000000E+03  0.00000000000E+00 0.  1.
    9000005    2    1    2  501    0  0.91392938498E+01  0.42651737994E+02 -0.62094053391E+02  0.46484150071E+03  0.45860576955E+03 0.  0.
         13    1    3    3    0    0 -0.14881445968E+03  0.14744186582E+02  0.14134769911E+03  0.20577246291E+03  0.00000000000E+00 0.  1.
          1    1    3    3  501    0  0.15795375353E+03  0.27907551412E+02 -0.20344175251E+03  0.25906903779E+03  0.00000000000E+00 0.  1.
         21    1    1    2  502  501 -0.91392938498E+01 -0.42651737994E+02  0.29715189934E+02  0.52779635834E+02  0.00000000000E+00 0.  1.
<scales pt_clust_4="550.00000" pt_clust_5="550.00000" pt_clust_6="43.61992"></scales>
<mgrwt>
<rscale>  0 0.30000000E+03</rscale>
<asrwt>  1 0.43619920E+02</asrwt>
<pdfrwt beam="1">  1        1 0.88225868E+00 0.30000000E+03</pdfrwt>
<pdfrwt beam="2">0</pdfrwt>
<totfact> 0.17742517E-04</totfact>
</mgrwt>
<clustering>
<clus scale="   43.620">  1  6  2 -1</clus>
<clus scale="  458.606">  4  5 -1 -1</clus>
<clus scale="  300.000">  1  4  2 -1</clus>
</clustering>
</event>
<event>
 6    1  0.9462926E-012  0.3000000E+03  0.7818608E-02  0.1093470E+00
          1   -1    0    0  502    0  0.00000000000E+00  0.00000000000E+00  0.24608826951E+03  0.24608826951E+03  0.00000000000E+00 0.  1.
         13   -1    0    0    0    0 -0.00000000000E+00 -0.00000000000E+00 -0.27500000000E+03  0.27500000000E+03  0.00000000000E+00 0.  1.
    9000005    2    1    2  501    0  0.11610181803E+01  0.56349676508E+02 -0.39640617825E+02  0.46371455576E+03  0.45856643645E+03 0.  0.
         13    1    3    3    0    0  0.17283835306E+03  0.15310802320E+03  0.65960147890E+02  0.24013726110E+03  0.00000000000E+00 0.  1.
          1    1    3    3  501    0 -0.17167733488E+03 -0.96758346696E+02 -0.10560076572E+03  0.22357729466E+03  0.00000000000E+00 0.  1.
         21    1    1    2  502  501 -0.11610181803E+01 -0.56349676508E+02  0.10728887333E+02  0.57373713748E+02  0.00000000000E+00 0.  1.
<scales pt_clust_4="550.00000" pt_clust_5="550.00000" pt_clust_6="56.36164"></scales>
<mgrwt>
<rscale>  0 0.30000000E+03</rscale>
<asrwt>  1 0.56361636E+02</asrwt>
<pdfrwt beam="1">  1        1 0.89486643E+00 0.30000000E+03</pdfrwt>
<pdfrwt beam="2">0</pdfrwt>
<totfact> 0.11617546E-04</totfact>
</mgrwt>
<clustering>
<clus scale="   56.362">  1  6  2 -1</clus>
<clus scale="  458.566">  4  5 -1 -1</clus>
<clus scale="  300.000">  1  4  2 -1</clus>
</clustering>
</event>
<event>
 6    1  0.9462926E-012  0.3000000E+03  0.7818608E-02  0.1093470E+00
          1   -1    0    0  502    0  0.00000000000E+00  0.00000000000E+00  0.24097383015E+03  0.24097383015E+03  0.00000000000E+00 0.  1.
         13   -1    0    0    0    0 -0.00000000000E+00 -0.00000000000E+00 -0.27500000000E+03  0.27500000000E+03  0.00000000000E+00 0.  1.
    9000005    2    1    2  501    0  0.65796217885E+01 -0.35785868007E+02 -0.53300961400E+02  0.47479814119E+03  0.47039171190E+03 0.  0.
         13    1    3    3    0    0  0.22827854626E+03  0.46659035386E+02 -0.32117049376E+01  0.23302033241E+03  0.00000000000E+00 0.  1.
          1    1    3    3  501    0 -0.22169892447E+03 -0.82444903393E+02 -0.50089256463E+02  0.24177780879E+03  0.00000000000E+00 0.  1.
         21    1    1    2  502  501 -0.65796217885E+01  0.35785868007E+02  0.19274791554E+02  0.41175688960E+02  0.00000000000E+00 0.  1.
<scales pt_clust_4="550.00000" pt_clust_5="550.00000" pt_clust_6="36.38571"></scales>
<mgrwt>
<rscale>  0 0.30000000E+03</rscale>
<asrwt>  1 0.36385708E+02</asrwt>
<pdfrwt beam="1">  1        1 0.87626847E+00 0.30000000E+03</pdfrwt>
<pdfrwt beam="2">0</pdfrwt>
<totfact> 0.21641918E-04</totfact>
</mgrwt>
<clustering>
<clus scale="   36.386">  1  6  2 -1</clus>
<clus scale="  470.392">  4  5 -1 -1</clus>
<clus scale="  300.000">  1  4  2 -1</clus>
</clustering>
</event>
<event>
 6    1  0.9462926E-012  0.3000000E+03  0.7818608E-02  0.1093470E+00
          1   -1    0    0  502    0  0.00000000000E+00  0.00000000000E+00  0.22925479614E+03  0.22925479614E+03  0.00000000000E+00 0.  1.
         13   -1    0    0    0    0 -0.00000000000E+00 -0.00000000000E+00 -0.27500000000E+03  0.27500000000E+03  0.00000000000E+00 0.  1.
    9000005    2    1    2  501    0  0.52909648324E+01 -0.29553254346E+02 -0.69852324254E+02  0.46575099886E+03  0.45950327157E+03 0.  0.
         13    1    3    3    0    0  0.92508639762E+02 -0.12889860106E+03 -0.21643583838E+03  0.26836014966E+03  0.00000000000E+00 0.  1.
          3    1    3    3  501    0 -0.87217674930E+02  0.99345346719E+02  0.14658351413E+03  0.19739084920E+03  0.00000000000E+00 0.  1.
         21    1    1    2  502  501 -0.52909648324E+01  0.29553254346E+02  0.24107120391E+02  0.38503797278E+02  0.00000000000E+00 0. -1.
<scales pt_clust_4="550.00000" pt_clust_5="550.00000" pt_clust_6="30.02314"></scales>
<mgrwt>
<rscale>  0 0.30000000E+03</rscale>
<asrwt>  1 0.30023144E+02</asrwt>
<pdfrwt beam="1">  1        1 0.83365380E+00 0.30000000E+03</pdfrwt>
<pdfrwt beam="2">0</pdfrwt>
<totfact> 0.56982603E-04</totfact>
</mgrwt>
<clustering>
<clus scale="   30.023">  1  6  2 -1</clus>
<clus scale="  459.503">  4  5 -1 -1</clus>
<clus scale="  300.000">  1  4  2 -1</clus>
</clustering>
</event>
<event>
 6    1  0.9462926E-012  0.3000000E+03  0.7818608E-02  0.1093470E+00
          1   -1    0    0  502    0  0.00000000000E+00  0.00000000000E+00  0.22910048064E+03  0.22910048064E+03  0.00000000000E+00 0.  1.
         13   -1    0    0    0    0 -0.00000000000E+00 -0.00000000000E+00 -0.27500000000E+03  0.27500000000E+03  0.00000000000E+00 0.  1.
    9000005    2    1    2  501    0  0.33579463907E+02  0.14101740005E+02 -0.43945584215E+02  0.46762778770E+03  0.46413154816E+03 0.  0.
         13    1    3    3    0    0  0.97120393499E+02  0.22248973151E+03  0.10769054635E+02  0.24300210698E+03  0.00000000000E+00 0.  1.
          1    1    3    3  501    0 -0.63540929592E+02 -0.20838799150E+03 -0.54714638850E+02  0.22462568072E+03  0.00000000000E+00 0.  1.
         21    1    1    2  502  501 -0.33579463907E+02 -0.14101740005E+02 -0.19539351459E+01  0.36472692936E+02  0.00000000000E+00 0.  1.
<scales pt_clust_4="550.00000" pt_clust_5="550.00000" pt_clust_6="36.42032"></scales>
<mgrwt>
<rscale>  0 0.30000000E+03</rscale>
<asrwt>  1 0.36420317E+02</asrwt>
<pdfrwt beam="1">  1        1 0.83309266E+00 0.30000000E+03</pdfrwt>
<pdfrwt beam="2">0</pdfrwt>
<totfact> 0.55472930E-04</totfact>
</mgrwt>
<clustering>
<clus scale="   36.420">  1  6  2 -1</clus>
<clus scale="  464.132">  4  5 -1 -1</clus>
<clus scale="  300.000">  1  4  2 -1</clus>
</clustering>
</event>
<event>
 6    1  0.9462926E-012  0.3000000E+03  0.7818608E-02  0.1093470E+00
          1   -1    0    0  502    0  0.00000000000E+00  0.00000000000E+00  0.26044720864E+03  0.26044720864E+03  0.00000000000E+00 0.  1.
         13   -1    0    0    0    0 -0.00000000000E+00 -0.00000000000E+00 -0.27500000000E+03  0.27500000000E+03  0.00000000000E+00 0.  1.
    9000005    2    1    2  501    0 -0.58375395240E+01  0.34106833998E+02 -0.67569927587E+02  0.47213710102E+03  0.46599398500E+03 0.  0.
         13    1    3    3    0    0  0.16368684515E+03 -0.85208041708E+02 -0.16086424910E+03  0.24480829292E+03  0.00000000000E+00 0.  1.
          3    1    3    3  501    0 -0.16952438468E+03  0.11931487571E+03  0.93294321508E+02  0.22732880810E+03  0.00000000000E+00 0.  1.
         21    1    1    2  502  501  0.58375395240E+01 -0.34106833998E+02  0.53017136222E+02  0.63310107615E+02  0.00000000000E+00 0.  1.
<scales pt_clust_4="550.00000" pt_clust_5="550.00000" pt_clust_6="34.60279"></scales>
<mgrwt>
<rscale>  0 0.30000000E+03</rscale>
<asrwt>  1 0.34602789E+02</asrwt>
<pdfrwt beam="1">  1        1 0.94708076E+00 0.30000000E+03</pdfrwt>
<pdfrwt beam="2">0</pdfrwt>
<totfact> 0.14178224E-05</totfact>
</mgrwt>
<clustering>
<clus scale="   34.603">  1  6  2 -1</clus>
<clus scale="  465.994">  4  5 -1 -1</clus>
<clus scale="  300.000">  1  4  2 -1</clus>
</clustering>
</event>
<event>
 6    1  0.9462926E-012  0.3000000E+03  0.7818608E-02  0.1093470E+00
          1   -1    0    0  502    0  0.00000000000E+00  0.00000000000E+00  0.23492531579E+03  0.23492531579E+03  0.00000000000E+00 0.  1.
         13   -1    0    0    0    0 -0.00000000000E+00 -0.00000000000E+00 -0.27500000000E+03  0.27500000000E+03  0.00000000000E+00 0.  1.
    9000005    2    1    2  501    0  0.22176542841E+02  0.28646802601E+02 -0.49888105320E+02  0.47239210935E+03  0.46835141035E+03 0.  0.
         13    1    3    3    0    0 -0.19323589168E+02  0.15941908805E+03  0.15671545699E+03  0.22438266687E+03  0.00000000000E+00 0.  1.
          1    1    3    3  501    0  0.41500132009E+02 -0.13077228545E+03 -0.20660356231E+03  0.24800944248E+03  0.00000000000E+00 0.  1.
         21    1    1    2  502  501 -0.22176542841E+02 -0.28646802601E+02  0.98134211113E+01  0.37533206438E+02  0.00000000000E+00 0. -1.
<scales pt_clust_4="550.00000" pt_clust_5="550.00000" pt_clust_6="36.22759"></scales>
<mgrwt>
<rscale>  0 0.30000000E+03</rscale>
<asrwt>  1 0.36227591E+02</asrwt>
<pdfrwt beam="1">  1        1 0.85427388E+00 0.30000000E+03</pdfrwt>
<pdfrwt beam="2">0</pdfrwt>
<totfact> 0.36800842E-04</totfact>
</mgrwt>
<clustering>
<clus scale="   36.228">  1  6  2 -1</clus>
<clus scale="  468.351">  4  5 -1 -1</clus>
<clus scale="  300.000">  1  4  2 -1</clus>
</clustering>
</event>
<event>
 6    1  0.9462926E-012  0.3000000E+03  0.7818608E-02  0.1093470E+00
          1   -1    0    0  502    0  0.00000000000E+00  0.00000000000E+00  0.22319905988E+03  0.22319905988E+03  0.00000000000E+00 0.  1.
         13   -1    0    0    0    0 -0.00000000000E+00 -0.00000000000E+00 -0.27500000000E+03  0.27500000000E+03  0.00000000000E+00 0.  1.
    9000005    2    1    2  501    0 -0.17246940999E+02 -0.25764473753E+02 -0.68110204331E+02  0.46316682928E+03  0.45708122553E+03 0.  0.
         13    1    3    3    0    0  0.19705912996E+03  0.81450742654E+02  0.28631170807E+01  0.21324802841E+03  0.00000000000E+00 0.  1.
          1    1    3    3  501    0 -0.21430607096E+03 -0.10721521641E+03 -0.70973321411E+02  0.24991880088E+03  0.00000000000E+00 0.  1.
         21    1    1    2  502  501  0.17246940999E+02  0.25764473753E+02  0.16309264215E+02  0.35032230600E+02  0.00000000000E+00 0.  1.
<scales pt_clust_4="550.00000" pt_clust_5="550.00000" pt_clust_6="31.00428"></scales>
<mgrwt>
<rscale>  0 0.30000000E+03</rscale>
<asrwt>  1 0.31004275E+02</asrwt>
<pdfrwt beam="1">  1        1 0.81163295E+00 0.30000000E+03</pdfrwt>
<pdfrwt beam="2">0</pdfrwt>
<totfact> 0.86646453E-04</totfact>
</mgrwt>
<clustering>
<clus scale="   31.004">  1  6  2 -1</clus>
<clus scale="  457.081">  4  5 -1 -1</clus>
<clus scale="  300.000">  1  4  2 -1</clus>
</clustering>
</event>
<event>
 6    1  0.9462926E-012  0.3000000E+03  0.7818608E-02  0.1093470E+00
          1   -1    0    0  502    0  0.00000000000E+00  0.00000000000E+00  0.24502946469E+03  0.24502946469E+03  0.00000000000E+00 0.  1.
         13   -1    0    0    0    0 -0.00000000000E+00 -0.00000000000E+00 -0.27500000000E+03  0.27500000000E+03  0.00000000000E+00 0.  1.
    9000005    2    1    2  501    0 -0.24690132782E+02 -0.33213913447E+02 -0.59198253639E+02  0.46936363575E+03  0.46377259797E+03 0.  0.
         13    1    3    3    0    0  0.16138508662E+03 -0.14836036330E+03  0.49943994489E+02  0.22483404139E+03  0.00000000000E+00 0.  1.
          3    1    3    3  501    0 -0.18607521940E+03  0.11514644986E+03 -0.10914224813E+03  0.24452959436E+03  0.00000000000E+00 0.  1.
         21    1    1    2  502  501  0.24690132782E+02  0.33213913447E+02  0.29227718333E+02  0.50665828941E+02  0.00000000000E+00 0.  1.
<scales pt_clust_4="550.00000" pt_clust_5="550.00000" pt_clust_6="41.38559"></scales>
<mgrwt>
<rscale>  0 0.30000000E+03</rscale>
<asrwt>  1 0.41385586E+02</asrwt>
<pdfrwt beam="1">  1        1 0.89101624E+00 0.30000000E+03</pdfrwt>
<pdfrwt beam="2">0</pdfrwt>
<totfact> 0.13631139E-04</totfact>
</mgrwt>
<clustering>
<clus scale="   41.386">  1  6  2 -1</clus>
<clus scale="  463.773">  4  5 -1 -1</clus>
<clus scale="  300.000">  1  4  2 -1</clus>
</clustering>
</event>
<event>
 6    1  0.9462926E-012  0.3000000E+03  0.7818608E-02  0.1093470E+00
          1   -1    0    0  502    0  0.00000000000E+00  0.00000000000E+00  0.23106171961E+03  0.23106171961E+03  0.00000000000E+00 0.  1.
         13   -1    0    0    0    0 -0.00000000000E+00 -0.00000000000E+00 -0.27500000000E+03  0.27500000000E+03  0.00000000000E+00 0.  1.
    9000005    2    1    2  501    0 -0.34078068362E+01 -0.30852343177E+02 -0.69394238095E+02  0.46591840124E+03  0.45967479386E+03 0.  0.
         13    1    3    3    0    0  0.21127312890E+03 -0.57016438273E+02  0.41722853225E+02  0.22277344031E+03  0.00000000000E+00 0.  1.
          1    1    3    3  501    0 -0.21468093574E+03  0.26164095096E+02 -0.11111709132E+03  0.24314496093E+03  0.00000000000E+00 0.  1.
         21    1    1    2  502  501  0.34078068362E+01  0.30852343177E+02  0.25455957704E+02  0.40143318368E+02  0.00000000000E+00 0. -1.
<scales pt_clust_4="550.00000" pt_clust_5="550.00000" pt_clust_6="31.03998"></scales>
<mgrwt>
<rscale>  0 0.30000000E+03</rscale>
<asrwt>  1 0.31039978E+02</asrwt>
<pdfrwt beam="1">  1        1 0.84022443E+00 0.30000000E+03</pdfrwt>
<pdfrwt beam="2">0</pdfrwt>
<totfact> 0.50644092E-04</totfact>
</mgrwt>
<clustering>
<clus scale="   31.040">  1  6  2 -1</clus>
<clus scale="  459.675">  4  5 -1 -1</clus>
<clus scale="  300.000">  1  4  2 -1</clus>
</clustering>
</event>
<event>
 6    1  0.9462926E-012  0.3000000E+03  0.7818608E-02  0.1093470E+00
          1   -1    0    0  502    0  0.00000000000E+00  0.00000000000E+00  0.23874508753E+03  0.23874508753E+03  0.00000000000E+00 0.  1.
         13   -1    0    0    0    0 -0.00000000000E+00 -0.00000000000E+00 -0.27500000000E+03  0.27500000000E+03  0.00000000000E+00 0.  1.
    9000005    2    1    2  501    0  0.27714869356E+01  0.37276721873E+02 -0.39539744952E+02  0.47622142489E+03  0.47310275730E+03 0.  0.
         13    1    3    3    0    0 -0.16106867517E+03  0.17798006694E+03  0.45137852342E+02  0.24424874220E+03  0.00000000000E+00 0.  1.
          1    1    3    3  501    0  0.16384016211E+03 -0.14070334507E+03 -0.84677597294E+02  0.23197268269E+03  0.00000000000E+00 0.  1.
         21    1    1    2  502  501 -0.27714869356E+01 -0.37276721873E+02  0.32848324829E+01  0.37523662640E+02  0.00000000000E+00 0. -1.
<scales pt_clust_4="550.00000" pt_clust_5="550.00000" pt_clust_6="37.37961"></scales>
<mgrwt>
<rscale>  0 0.30000000E+03</rscale>
<asrwt>  1 0.37379609E+02</asrwt>
<pdfrwt beam="1">  1        1 0.86816395E+00 0.30000000E+03</pdfrwt>
<pdfrwt beam="2">0</pdfrwt>
<totfact> 0.26129445E-04</totfact>
</mgrwt>
<clustering>
<clus scale="   37.380">  1  6  2 -1</clus>
<clus scale="  473.103">  4  5 -1 -1</clus>
<clus scale="  300.000">  1  4  2 -1</clus>
</clustering>
</event>
<event>
 6    1  0.9462926E-012  0.3000000E+03  0.7818608E-02  0.1093470E+00
          1   -1    0    0  502    0  0.00000000000E+00  0.00000000000E+00  0.24450343765E+03  0.24450343765E+03  0.00000000000E+00 0.  1.
         13   -1    0    0    0    0 -0.00000000000E+00 -0.00000000000E+00 -0.27500000000E+03  0.27500000000E+03  0.00000000000E+00 0.  1.
    9000005    2    1    2  501    0  0.24034035349E+02  0.21596028173E+02 -0.38165991301E+02  0.48629435112E+03  0.48371637325E+03 0.  0.
         13    1    3    3    0    0  0.69348009222E+02  0.18099876924E+03  0.14292205934E+03  0.24082445037E+03  0.00000000000E+00 0.  1.
          1    1    3    3  501    0 -0.45313973873E+02 -0.15940274107E+03 -0.18108805064E+03  0.24546990075E+03  0.00000000000E+00 0.  1.
         21    1    1    2  502  501 -0.24034035349E+02 -0.21596028173E+02  0.76694289558E+01  0.33209086535E+02  0.00000000000E+00 0. -1.
<scales pt_clust_4="550.00000" pt_clust_5="550.00000" pt_clust_6="32.31135"></scales>
<mgrwt>
<rscale>  0 0.30000000E+03</rscale>
<asrwt>  1 0.32311349E+02</asrwt>
<pdfrwt beam="1">  1        1 0.88910341E+00 0.30000000E+03</pdfrwt>
<pdfrwt beam="2">0</pdfrwt>
<totfact> 0.15129422E-04</totfact>
</mgrwt>
<clustering>
<clus scale="   32.311">  1  6  2 -1</clus>
<clus scale="  483.716">  4  5 -1 -1</clus>
<clus scale="  300.000">  1  4  2 -1</clus>
</clustering>
</event>
<event>
 6    1  0.9462926E-012  0.3000000E+03  0.7818608E-02  0.1093470E+00
          1   -1    0    0  502    0  0.00000000000E+00  0.00000000000E+00  0.24729066076E+03  0.24729066076E+03  0.00000000000E+00 0.  1.
         13   -1    0    0    0    0 -0.00000000000E+00 -0.00000000000E+00 -0.27500000000E+03  0.27500000000E+03  0.00000000000E+00 0.  1.
    9000005    2    1    2  501    0  0.14125470944E+02  0.29770270080E+02 -0.49233237447E+02  0.48293235663E+03  0.47928483337E+03 0.  0.
         13    1    3    3    0    0 -0.18546098236E+03  0.44569874448E+02 -0.16458627158E+03  0.25193429794E+03  0.00000000000E+00 0.  1.
          1    1    3    3  501    0  0.19958645330E+03 -0.14799604369E+02  0.11535303414E+03  0.23099805868E+03  0.00000000000E+00 0.  1.
         21    1    1    2  502  501 -0.14125470944E+02 -0.29770270080E+02  0.21523898204E+02  0.39358304128E+02  0.00000000000E+00 0.  1.
<scales pt_clust_4="550.00000" pt_clust_5="550.00000" pt_clust_6="32.95145"></scales>
<mgrwt>
<rscale>  0 0.30000000E+03</rscale>
<asrwt>  1 0.32951448E+02</asrwt>
<pdfrwt beam="1">  1        1 0.89923877E+00 0.30000000E+03</pdfrwt>
<pdfrwt beam="2">0</pdfrwt>
<totfact> 0.11413451E-04</totfact>
</mgrwt>
<clustering>
<clus scale="   32.951">  1  6  2 -1</clus>
<clus scale="  479.285">  4  5 -1 -1</clus>
<clus scale="  300.000">  1  4  2 -1</clus>
</clustering>
</event>
<event>
 6    1  0.9462926E-012  0.3000000E+03  0.7818608E-02  0.1093470E+00
          1   -1    0    0  502    0  0.00000000000E+00  0.00000000000E+00  0.22301282436E+03  0.22301282436E+03  0.00000000000E+00 0.  1.
         13   -1    0    0    0    0 -0.00000000000E+00 -0.00000000000E+00 -0.27500000000E+03  0.27500000000E+03  0.00000000000E+00 0.  1.
    9000005    2    1    2  501    0 -0.20804193202E+02 -0.24692277484E+02 -0.55999184933E+02  0.46547639492E+03  0.46096620537E+03 0.  0.
         13    1    3    3    0    0 -0.56620435698E+02 -0.13589519616E+03  0.16153428900E+03  0.21855595302E+03  0.00000000000E+00 0.  1.
          1    1    3    3  501    0  0.35816242496E+02  0.11120291867E+03 -0.21753347393E+03  0.24692044190E+03  0.00000000000E+00 0.  1.
         21    1    1    2  502  501  0.20804193202E+02  0.24692277484E+02  0.40120092882E+01  0.32536429439E+02  0.00000000000E+00 0.  1.
<scales pt_clust_4="550.00000" pt_clust_5="550.00000" pt_clust_6="32.28813"></scales>
<mgrwt>
<rscale>  0 0.30000000E+03</rscale>
<asrwt>  1 0.32288125E+02</asrwt>
<pdfrwt beam="1">  1        1 0.81095572E+00 0.30000000E+03</pdfrwt>
<pdfrwt beam="2">0</pdfrwt>
<totfact> 0.87039237E-04</totfact>
</mgrwt>
<clustering>
<clus scale="   32.288">  1  6  2 -1</clus>
<clus scale="  460.966">  4  5 -1 -1</clus>
<clus scale="  300.000">  1  4  2 -1</clus>
</clustering>
</event>
<event>
 6    1  0.9462926E-012  0.3000000E+03  0.7818608E-02  0.1093470E+00
          1   -1    0    0  502    0  0.00000000000E+00  0.00000000000E+00  0.25605528701E+03  0.25605528701E+03  0.00000000000E+00 0.  1.
         13   -1    0    0    0    0 -0.00000000000E+00 -0.00000000000E+00 -0.27500000000E+03  0.27500000000E+03  0.00000000000E+00 0.  1.
    9000005    2    1    2  501    0 -0.29161667614E+02 -0.12242122465E+02 -0.40173430515E+02  0.49296420054E+03  0.49030554359E+03 0.  0.
         13    1    3    3    0    0 -0.18744677768E+03  0.98478097116E+02 -0.16022637523E+03  0.26553101776E+03  0.00000000000E+00 0.  1.
          1    1    3    3  501    0  0.15828511007E+03 -0.11072021958E+03  0.12005294472E+03  0.22743318278E+03  0.00000000000E+00 0.  1.
         21    1    1    2  502  501  0.29161667614E+02  0.12242122465E+02  0.21228717526E+02  0.38091086468E+02  0.00000000000E+00 0.  1.
<scales pt_clust_4="550.00000" pt_clust_5="550.00000" pt_clust_6="31.62708"></scales>
<mgrwt>
<rscale>  0 0.30000000E+03</rscale>
<asrwt>  1 0.31627084E+02</asrwt>
<pdfrwt beam="1">  1        1 0.93111013E+00 0.30000000E+03</pdfrwt>
<pdfrwt beam="2">0</pdfrwt>
<totfact> 0.25779390E-05</totfact>
</mgrwt>
<clustering>
<clus scale="   31.627">  1  6  2 -1</clus>
<clus scale="  490.306">  4  5 -1 -1</clus>
<clus scale="  300.000">  1  4  2 -1</clus>
</clustering>
</event>
<event>
 6    1  0.9462926E-012  0.3000000E+03  0.7818608E-02  0.1093470E+00
          1   -1    0    0  502    0  0.00000000000E+00  0.00000000000E+00  0.22494311157E+03  0.22494311157E+03  0.00000000000E+00 0.  1.
         13   -1    0    0    0    0 -0.00000000000E+00 -0.00000000000E+00 -0.27500000000E+03  0.27500000000E+03  0.00000000000E+00 0.  1.
    9000005    2    1    2  501    0 -0.92451458618E+01  0.29901611594E+02 -0.57889809900E+02  0.46767960654E+03  0.46302635474E+03 0.  0.
         13    1    3    3    0    0  0.11000152887E+03  0.21515700601E+03 -0.52573168492E+02  0.24729903282E+03  0.00000000000E+00 0.  1.
          3    1    3    3  501    0 -0.11924667474E+03 -0.18525539442E+03 -0.53166414072E+01  0.22038057372E+03  0.00000000000E+00 0.  1.
         21    1    1    2  502  501  0.92451458618E+01 -0.29901611594E+02  0.78329214681E+01  0.32263505027E+02  0.00000000000E+00 0.  1.
<scales pt_clust_4="550.00000" pt_clust_5="550.00000" pt_clust_6="31.29823"></scales>
<mgrwt>
<rscale>  0 0.30000000E+03</rscale>
<asrwt>  1 0.31298228E+02</asrwt>
<pdfrwt beam="1">  1        1 0.81797495E+00 0.30000000E+03</pdfrwt>
<pdfrwt beam="2">0</pdfrwt>
<totfact> 0.76864896E-04</totfact>
</mgrwt>
<clustering>
<clus scale="   31.298">  1  6  2 -1</clus>
<clus scale="  463.026">  4  5 -1 -1</clus>
<clus scale="  300.000">  1  4  2 -1</clus>
</clustering>
</event>
<event>
 6    1  0.9462926E-012  0.3000000E+03  0.7818608E-02  0.1093470E+00
          1   -1    0    0  502    0  0.00000000000E+00  0.00000000000E+00  0.22423936230E+03  0.22423936230E+03  0.00000000000E+00 0.  1.
         13   -1    0    0    0    0 -0.00000000000E+00 -0.00000000000E+00 -0.27500000000E+03  0.27500000000E+03  0.00000000000E+00 0.  1.
    9000005    2    1    2  501    0  0.28174238728E+02  0.21675773403E+02 -0.56170711832E+02  0.46328250228E+03  0.45848871433E+03 0.  0.
         13    1    3    3    0    0 -0.88728202232E+02  0.19257734675E+03 -0.12371186598E+03  0.24548595507E+03  0.00000000000E+00 0.  1.
          3    1    3    3  501    0  0.11690244096E+03 -0.17090157334E+03  0.67541154153E+02  0.21779654721E+03  0.00000000000E+00 0.  1.
         21    1    1    2  502  501 -0.28174238728E+02 -0.21675773403E+02  0.54100741347E+01  0.35956860022E+02  0.00000000000E+00 0.  1.
<scales pt_clust_4="550.00000" pt_clust_5="550.00000" pt_clust_6="35.54753"></scales>
<mgrwt>
<rscale>  0 0.30000000E+03</rscale>
<asrwt>  1 0.35547530E+02</asrwt>
<pdfrwt beam="1">  1        1 0.81541586E+00 0.30000000E+03</pdfrwt>
<pdfrwt beam="2">0</pdfrwt>
<totfact> 0.78760773E-04</totfact>
</mgrwt>
<clustering>
<clus scale="   35.548">  1  6  2 -1</clus>
<clus scale="  458.489">  4  5 -1 -1</clus>
<clus scale="  300.000">  1  4  2 -1</clus>
</clustering>
</event>
<event>
 6    1  0.9462926E-012  0.3000000E+03  0.7818608E-02  0.1093470E+00
          1   -1    0    0  502    0  0.00000000000E+00  0.00000000000E+00  0.23910033679E+03  0.23910033679E+03  0.00000000000E+00 0.  1.
         13   -1    0    0    0    0 -0.00000000000E+00 -0.00000000000E+00 -0.27500000000E+03  0.27500000000E+03  0.00000000000E+00 0.  1.
    9000005    2    1    2  501    0 -0.35494634333E+02 -0.17582235170E+02 -0.32974875281E+02  0.47438184683E+03  0.47157373776E+03 0.  0.
         13    1    3    3    0    0  0.72053195839E+02  0.11455202858E+02 -0.23369609811E+03  0.24481983370E+03  0.00000000000E+00 0.  1.
          3    1    3    3  501    0 -0.10754783017E+03 -0.29037438028E+02  0.20072122282E+03  0.22956201313E+03  0.00000000000E+00 0.  1.
         21    1    1    2  502  501  0.35494634333E+02  0.17582235170E+02 -0.29247879271E+01  0.39718489957E+02  0.00000000000E+00 0. -1.
<scales pt_clust_4="550.00000" pt_clust_5="550.00000" pt_clust_6="39.61068"></scales>
<mgrwt>
<rscale>  0 0.30000000E+03</rscale>
<asrwt>  1 0.39610676E+02</asrwt>
<pdfrwt beam="1">  1        1 0.86945577E+00 0.30000000E+03</pdfrwt>
<pdfrwt beam="2">0</pdfrwt>
<totfact> 0.25071831E-04</totfact>
</mgrwt>
<clustering>
<clus scale="   39.611">  1  6  2 -1</clus>
<clus scale="  471.574">  4  5 -1 -1</clus>
<clus scale="  300.000">  1  4  2 -1</clus>
</clustering>
</event>
<event>
 6    1  0.9462926E-012  0.3000000E+03  0.7818608E-02  0.1093470E+00
          1   -1    0    0  502    0  0.00000000000E+00  0.00000000000E+00  0.23246171095E+03  0.23246171095E+03  0.00000000000E+00 0.  1.
         13   -1    0    0    0    0 -0.00000000000E+00 -0.00000000000E+00 -0.27500000000E+03  0.27500000000E+03  0.00000000000E+00 0.  1.
    9000005    2    1    2  501    0 -0.24436763786E+02 -0.19544977319E+02 -0.53718888137E+02  0.47423269714E+03  0.47014016052E+03 0.  0.
         13    1    3    3    0    0  0.97736982649E+02 -0.18286247512E+03  0.88650568398E+02  0.22549972474E+03  0.00000000000E+00 0.  1.
          3    1    3    3  501    0 -0.12217374643E+03  0.16331749780E+03 -0.14236945654E+03  0.24873297240E+03  0.00000000000E+00 0.  1.
         21    1    1    2  502  501  0.24436763786E+02  0.19544977319E+02  0.11180599088E+02  0.33229013808E+02  0.00000000000E+00 0. -1.
<scales pt_clust_4="550.00000" pt_clust_5="550.00000" pt_clust_6="31.29156"></scales>
<mgrwt>
<rscale>  0 0.30000000E+03</rscale>
<asrwt>  1 0.31291557E+02</asrwt>
<pdfrwt beam="1">  1        1 0.84531531E+00 0.30000000E+03</pdfrwt>
<pdfrwt beam="2">0</pdfrwt>
<totfact> 0.45856403E-04</totfact>
</mgrwt>
<clustering>
<clus scale="   31.292">  1  6  2 -1</clus>
<clus scale="  470.140">  4  5 -1 -1</clus>
<clus scale="  300.000">  1  4  2 -1</clus>
</clustering>
</event>
<event>
 6    1  0.9462926E-012  0.3000000E+03  0.7818608E-02  0.1093470E+00
          1   -1    0    0  502    0  0.00000000000E+00  0.00000000000E+00  0.24607658237E+03  0.24607658237E+03  0.00000000000E+00 0.  1.
         13   -1    0    0    0    0 -0.00000000000E+00 -0.00000000000E+00 -0.27500000000E+03  0.27500000000E+03  0.00000000000E+00 0.  1.
    9000005    2    1    2  501    0  0.41013371918E+02  0.26470986473E+02 -0.57447527961E+02  0.46453956201E+03  0.45838191108E+03 0.  0.
         13    1    3    3    0    0  0.18447371790E+03  0.32979084512E+02  0.13024150673E+03  0.22821266986E+03  0.00000000000E+00 0.  1.
          1    1    3    3  501    0 -0.14346034598E+03 -0.65080980389E+01 -0.18768903469E+03  0.23632689215E+03  0.00000000000E+00 0.  1.
         21    1    1    2  502  501 -0.41013371918E+02 -0.26470986473E+02  0.28524110330E+02  0.56537020359E+02  0.00000000000E+00 0. -1.
<scales pt_clust_4="550.00000" pt_clust_5="550.00000" pt_clust_6="48.81403"></scales>
<mgrwt>
<rscale>  0 0.30000000E+03</rscale>
<asrwt>  1 0.48814033E+02</asrwt>
<pdfrwt beam="1">  1        1 0.89482394E+00 0.30000000E+03</pdfrwt>
<pdfrwt beam="2">0</pdfrwt>
<totfact> 0.11924768E-04</totfact>
</mgrwt>
<clustering>
<clus scale="   48.814">  1  6  2 -1</clus>
<clus scale="  458.382">  4  5 -1 -1</clus>
<clus scale="  300.000">  1  4  2 -1</clus>
</clustering>
</event>
<event>
 6    1  0.9462926E-012  0.3000000E+03  0.7818608E-02  0.1093470E+00
          1   -1    0    0  502    0  0.00000000000E+00  0.00000000000E+00  0.23224225571E+03  0.23224225571E+03  0.00000000000E+00 0.  1.
         13   -1    0    0    0    0 -0.00000000000E+00 -0.00000000000E+00 -0.27500000000E+03  0.27500000000E+03  0.00000000000E+00 0.  1.
    9000005    2    1    2  501    0  0.34480782340E+02 -0.24324795194E+01 -0.70406056440E+02  0.46297860841E+03  0.45628646458E+03 0.  0.
         13    1    3    3    0    0 -0.72196144583E+02 -0.76989016371E+02  0.16390552138E+03  0.19494771574E+03  0.00000000000E+00 0.  1.
          1    1    3    3  501    0  0.10667692692E+03  0.74556536852E+02 -0.23431157782E+03  0.26803089267E+03  0.00000000000E+00 0.  1.
         21    1    1    2  502  501 -0.34480782340E+02  0.24324795194E+01  0.27648312150E+02  0.44263647298E+02  0.00000000000E+00 0.  1.
<scales pt_clust_4="550.00000" pt_clust_5="550.00000" pt_clust_6="34.56648"></scales>
<mgrwt>
<rscale>  0 0.30000000E+03</rscale>
<asrwt>  1 0.34566477E+02</asrwt>
<pdfrwt beam="1">  1        1 0.84451729E+00 0.30000000E+03</pdfrwt>
<pdfrwt beam="2">0</pdfrwt>
<totfact> 0.45728176E-04</totfact>
</mgrwt>
<clustering>
<clus scale="   34.566">  1  6  2 -1</clus>
<clus scale="  456.286">  4  5 -1 -1</clus>
<clus scale="  300.000">  1  4  2 -1</clus>
</clustering>
</event>
<event>
 6    1  0.9462926E-012  0.3000000E+03  0.7818608E-02  0.1093470E+00
          1   -1    0    0  502    0  0.00000000000E+00  0.00000000000E+00  0.23938714210E+03  0.23938714210E+03  0.00000000000E+00 0.  1.
         13   -1    0    0    0    0 -0.00000000000E+00 -0.00000000000E+00 -0.27500000000E+03  0.27500000000E+03  0.00000000000E+00 0.  1.
    9000005    2    1    2  501    0  0.23781417083E+02  0.24205644527E+02 -0.55657267847E+02  0.47497588234E+03  0.47048154939E+03 0.  0.
         13    1    3    3    0    0  0.99628438008E+01  0.58052995303E+01  0.20900113068E+03  0.20931897283E+03  0.00000000000E+00 0.  1.
          3    1    3    3  501    0  0.13818573282E+02  0.18400344997E+02 -0.26465839853E+03  0.26565690952E+03  0.00000000000E+00 0.  1.
         21    1    1    2  502  501 -0.23781417083E+02 -0.24205644527E+02  0.20044409949E+02  0.39411259758E+02  0.00000000000E+00 0. -1.
<scales pt_clust_4="550.00000" pt_clust_5="550.00000" pt_clust_6="33.93330"></scales>
<mgrwt>
<rscale>  0 0.30000000E+03</rscale>
<asrwt>  1 0.33933303E+02</asrwt>
<pdfrwt beam="1">  1        1 0.87049870E+00 0.30000000E+03</pdfrwt>
<pdfrwt beam="2">0</pdfrwt>
<totfact> 0.25175426E-04</totfact>
</mgrwt>
<clustering>
<clus scale="   33.933">  1  6  2 -1</clus>
<clus scale="  470.482">  4  5 -1 -1</clus>
<clus scale="  300.000">  1  4  2 -1</clus>
</clustering>
</event>
<event>
 6    1  0.9462926E-012  0.3000000E+03  0.7818608E-02  0.1093470E+00
          1   -1    0    0  502    0  0.00000000000E+00  0.00000000000E+00  0.23568879777E+03  0.23568879777E+03  0.00000000000E+00 0.  1.
         13   -1    0    0    0    0 -0.00000000000E+00 -0.00000000000E+00 -0.27500000000E+03  0.27500000000E+03  0.00000000000E+00 0.  1.
    9000005    2    1    2  501    0 -0.29526611303E+02 -0.10779449171E+02 -0.48445785691E+02  0.47795566602E+03  0.47445400960E+03 0.  0.
         13    1    3    3    0    0 -0.17405533674E+03 -0.59114479775E+02 -0.19397233142E+03  0.26723593943E+03  0.00000000000E+00 0.  1.
          1    1    3    3  501    0  0.14452872544E+03  0.48335030604E+02  0.14552654573E+03  0.21071972658E+03  0.00000000000E+00 0.  1.
         21    1    1    2  502  501  0.29526611303E+02  0.10779449171E+02  0.91345834610E+01  0.32733131754E+02  0.00000000000E+00 0. -1.
<scales pt_clust_4="550.00000" pt_clust_5="550.00000" pt_clust_6="31.43274"></scales>
<mgrwt>
<rscale>  0 0.30000000E+03</rscale>
<asrwt>  1 0.31432742E+02</asrwt>
<pdfrwt beam="1">  1        1 0.85705017E+00 0.30000000E+03</pdfrwt>
<pdfrwt beam="2">0</pdfrwt>
<totfact> 0.35448738E-04</totfact>
</mgrwt>
<clustering>
<clus scale="   31.433">  1  6  2 -1</clus>
<clus scale="  474.454">  4  5 -1 -1</clus>
<clus scale="  300.000">  1  4  2 -1</clus>
</clustering>
</event>
<event>
 6    1  0.9462926E-012  0.3000000E+03  0.7818608E-02  0.1093470E+00
          1   -1    0    0  502    0  0.00000000000E+00  0.00000000000E+00  0.23980887400E+03  0.23980887400E+03  0.00000000000E+00 0.  1.
         13   -1    0    0    0    0 -0.00000000000E+00 -0.00000000000E+00 -0.27500000000E+03  0.27500000000E+03  0.00000000000E+00 0.  1.
    9000005    2    1    2  501    0  0.44882453830E+01  0.34204794163E+02 -0.44523595161E+02  0.47907083725E+03  0.47574825726E+03 0.  0.
         13    1    3    3    0    0 -0.34946056572E+02  0.63557669857E+02  0.20879087059E+03  0.22103038685E+03  0.00000000000E+00 0.  1.
          3    1    3    3  501    0  0.39434301955E+02 -0.29352875694E+02 -0.25331446575E+03  0.25804045040E+03  0.00000000000E+00 0.  1.
         21    1    1    2  502  501 -0.44882453830E+01 -0.34204794163E+02  0.93324691589E+01  0.35738036753E+02  0.00000000000E+00 0.  1.
<scales pt_clust_4="550.00000" pt_clust_5="550.00000" pt_clust_6="34.49800"></scales>
<mgrwt>
<rscale>  0 0.30000000E+03</rscale>
<asrwt>  1 0.34498004E+02</asrwt>
<pdfrwt beam="1">  1        1 0.87203227E+00 0.30000000E+03</pdfrwt>
<pdfrwt beam="2">0</pdfrwt>
<totfact> 0.24208846E-04</totfact>
</mgrwt>
<clustering>
<clus scale="   34.498">  1  6  2 -1</clus>
<clus scale="  475.748">  4  5 -1 -1</clus>
<clus scale="  300.000">  1  4  2 -1</clus>
</clustering>
</event>
<event>
 6    1  0.9462926E-012  0.3000000E+03  0.7818608E-02  0.1093470E+00
          1   -1    0    0  502    0  0.00000000000E+00  0.00000000000E+00  0.24509249794E+03  0.24509249794E+03  0.00000000000E+00 0.  1.
         13   -1    0    0    0    0 -0.00000000000E+00 -0.00000000000E+00 -0.27500000000E+03  0.27500000000E+03  0.00000000000E+00 0.  1.
    9000005    2    1    2  501    0 -0.13984877478E+02  0.44015996823E+02 -0.18782559225E+02  0.47258724426E+03  0.46994992726E+03 0.  0.
         13    1    3    3    0    0 -0.20590135027E+02  0.21632190224E+03 -0.14294759539E+03  0.26010216084E+03  0.00000000000E+00 0.  1.
          1    1    3    3  501    0  0.66052575490E+01 -0.17230590542E+03  0.12416503616E+03  0.21248508341E+03  0.00000000000E+00 0.  1.
         21    1    1    2  502  501  0.13984877478E+02 -0.44015996823E+02 -0.11124942836E+02  0.47505253683E+02  0.00000000000E+00 0.  1.
<scales pt_clust_4="550.00000" pt_clust_5="550.00000" pt_clust_6="46.18427"></scales>
<mgrwt>
<rscale>  0 0.30000000E+03</rscale>
<asrwt>  1 0.46184271E+02</asrwt>
<pdfrwt beam="1">  1        1 0.89124545E+00 0.30000000E+03</pdfrwt>
<pdfrwt beam="2">0</pdfrwt>
<totfact> 0.13275647E-04</totfact>
</mgrwt>
<clustering>
<clus scale="   46.184">  1  6  2 -1</clus>
<clus scale="  469.950">  4  5 -1 -1</clus>
<clus scale="  300.000">  1  4  2 -1</clus>
</clustering>
</event>
<event>
 6    1  0.9462926E-012  0.3000000E+03  0.7818608E-02  0.1093470E+00
          1   -1    0    0  502    0  0.00000000000E+00  0.00000000000E+00  0.24131925747E+03  0.24131925747E+03  0.00000000000E+00 0.  1.
         13   -1    0    0    0    0 -0.00000000000E+00 -0.00000000000E+00 -0.27500000000E+03  0.27500000000E+03  0.00000000000E+00 0.  1.
    9000005    2    1    2  501    0  0.29710756503E+02 -0.35901355032E+02 -0.52527384530E+02  0.46605165100E+03  0.46073135224E+03 0.  0.
         13    1    3    3    0    0  0.24088712408E+03 -0.61895597720E+01  0.17476211835E+02  0.24159953472E+03  0.00000000000E+00 0.  1.
          3    1    3    3  501    0 -0.21117636758E+03 -0.29711795260E+02 -0.70003596365E+02  0.22445211628E+03  0.00000000000E+00 0.  1.
         21    1    1    2  502  501 -0.29710756503E+02  0.35901355032E+02  0.18846641998E+02  0.50267606465E+02  0.00000000000E+00 0.  1.
<scales pt_clust_4="550.00000" pt_clust_5="550.00000" pt_clust_6="46.60082"></scales>
<mgrwt>
<rscale>  0 0.30000000E+03</rscale>
<asrwt>  1 0.46600819E+02</asrwt>
<pdfrwt beam="1">  1        1 0.87752457E+00 0.30000000E+03</pdfrwt>
<pdfrwt beam="2">0</pdfrwt>
<totfact> 0.20038575E-04</totfact>
</mgrwt>
<clustering>
<clus scale="   46.601">  1  6  2 -1</clus>
<clus scale="  460.731">  4  5 -1 -1</clus>
<clus scale="  300.000">  1  4  2 -1</clus>
</clustering>
</event>
<event>
 6    1  0.9462926E-012  0.3000000E+03  0.7818608E-02  0.1093470E+00
          1   -1    0    0  502    0  0.00000000000E+00  0.00000000000E+00  0.23716461404E+03  0.23716461404E+03  0.00000000000E+00 0.  1.
         13   -1    0    0    0    0 -0.00000000000E+00 -0.00000000000E+00 -0.27500000000E+03  0.27500000000E+03  0.00000000000E+00 0.  1.
    9000005    2    1    2  501    0 -0.21816241378E+02 -0.20693781438E+02 -0.68632962585E+02  0.46912194098E+03  0.46309905094E+03 0.  0.
         13    1    3    3    0    0  0.11380331256E+03 -0.11740476898E+03 -0.19903079709E+03  0.25758169950E+03  0.00000000000E+00 0.  1.
          1    1    3    3  501    0 -0.13561955394E+03  0.96710987540E+02  0.13039783450E+03  0.21154024148E+03  0.00000000000E+00 0.  1.
         21    1    1    2  502  501  0.21816241378E+02  0.20693781438E+02  0.30797576627E+02  0.43042673061E+02  0.00000000000E+00 0.  1.
<scales pt_clust_4="550.00000" pt_clust_5="550.00000" pt_clust_6="30.06960"></scales>
<mgrwt>
<rscale>  0 0.30000000E+03</rscale>
<asrwt>  1 0.30069602E+02</asrwt>
<pdfrwt beam="1">  1        1 0.86241678E+00 0.30000000E+03</pdfrwt>
<pdfrwt beam="2">0</pdfrwt>
<totfact> 0.31357568E-04</totfact>
</mgrwt>
<clustering>
<clus scale="   30.070">  1  6  2 -1</clus>
<clus scale="  463.099">  4  5 -1 -1</clus>
<clus scale="  300.000">  1  4  2 -1</clus>
</clustering>
</event>
<event>
 6    1  0.9462926E-012  0.3000000E+03  0.7818608E-02  0.1093470E+00
          1   -1    0    0  502    0  0.00000000000E+00  0.00000000000E+00  0.24519773706E+03  0.24519773706E+03  0.00000000000E+00 0.  1.
         13   -1    0    0    0    0 -0.00000000000E+00 -0.00000000000E+00 -0.27500000000E+03  0.27500000000E+03  0.00000000000E+00 0.  1.
    9000005    2    1    2  501    0  0.17069089991E+02  0.37113106240E+02 -0.39246216448E+02  0.47827012390E+03  0.47490347379E+03 0.  0.
         13    1    3    3    0    0  0.15323907329E+03 -0.41574724516E+02 -0.19867315626E+03  0.25432596077E+03  0.00000000000E+00 0.  1.
          3    1    3    3  501    0 -0.13616998330E+03  0.78687830756E+02  0.15942693981E+03  0.22394416313E+03  0.00000000000E+00 0.  1.
         21    1    1    2  502  501 -0.17069089991E+02 -0.37113106240E+02  0.94439535095E+01  0.41927613167E+02  0.00000000000E+00 0. -1.
<scales pt_clust_4="550.00000" pt_clust_5="550.00000" pt_clust_6="40.85017"></scales>
<mgrwt>
<rscale>  0 0.30000000E+03</rscale>
<asrwt>  1 0.40850171E+02</asrwt>
<pdfrwt beam="1">  1        1 0.89162813E+00 0.30000000E+03</pdfrwt>
<pdfrwt beam="2">0</pdfrwt>
<totfact> 0.13422504E-04</totfact>
</mgrwt>
<clustering>
<clus scale="   40.850">  1  6  2 -1</clus>
<clus scale="  474.903">  4  5 -1 -1</clus>
<clus scale="  300.000">  1  4  2 -1</clus>
</clustering>
</event>
<event>
 6    1  0.9462926E-012  0.3000000E+03  0.7818608E-02  0.1093470E+00
          1   -1    0    0  502    0  0.00000000000E+00  0.00000000000E+00  0.24535260122E+03  0.24535260122E+03  0.00000000000E+00 0.  1.
         13   -1    0    0    0    0 -0.00000000000E+00 -0.00000000000E+00 -0.27500000000E+03  0.27500000000E+03  0.00000000000E+00 0.  1.
    9000005    2    1    2  501    0  0.89672688378E+00  0.35133694973E+02 -0.43366698436E+02  0.48262462984E+03  0.47938573420E+03 0.  0.
         13    1    3    3    0    0 -0.14157597501E+03 -0.27659590510E+02  0.16714874224E+03  0.22078838665E+03  0.00000000000E+00 0.  1.
          1    1    3    3  501    0  0.14247270189E+03  0.62793285483E+02 -0.21051544067E+03  0.26183624319E+03  0.00000000000E+00 0.  1.
         21    1    1    2  502  501 -0.89672688378E+00 -0.35133694973E+02  0.13719299660E+02  0.37727971383E+02  0.00000000000E+00 0.  1.
<scales pt_clust_4="550.00000" pt_clust_5="550.00000" pt_clust_6="35.14514"></scales>
<mgrwt>
<rscale>  0 0.30000000E+03</rscale>
<asrwt>  1 0.35145137E+02</asrwt>
<pdfrwt beam="1">  1        1 0.89219128E+00 0.30000000E+03</pdfrwt>
<pdfrwt beam="2">0</pdfrwt>
<totfact> 0.13581543E-04</totfact>
</mgrwt>
<clustering>
<clus scale="   35.145">  1  6  2 -1</clus>
<clus scale="  479.386">  4  5 -1 -1</clus>
<clus scale="  300.000">  1  4  2 -1</clus>
</clustering>
</event>
<event>
 6    1  0.9462926E-012  0.3000000E+03  0.7818608E-02  0.1093470E+00
          1   -1    0    0  502    0  0.00000000000E+00  0.00000000000E+00  0.24876234134E+03  0.24876234134E+03  0.00000000000E+00 0.  1.
         13   -1    0    0    0    0 -0.00000000000E+00 -0.00000000000E+00 -0.27500000000E+03  0.27500000000E+03  0.00000000000E+00 0.  1.
    9000005    2    1    2  501    0  0.31666615009E+02  0.24585934895E+02 -0.52981162271E+02  0.47557045731E+03  0.47090658693E+03 0.  0.
         13    1    3    3    0    0 -0.36392076074E+02  0.20634367983E+03  0.96416028381E+02  0.23064723700E+03  0.00000000000E+00 0.  1.
          3    1    3    3  501    0  0.68058691082E+02 -0.18175774493E+03 -0.14939719065E+03  0.24492322031E+03  0.00000000000E+00 0.  1.
         21    1    1    2  502  501 -0.31666615009E+02 -0.24585934895E+02  0.26743503609E+02  0.48191884027E+02  0.00000000000E+00 0. -1.
<scales pt_clust_4="550.00000" pt_clust_5="550.00000" pt_clust_6="40.09043"></scales>
<mgrwt>
<rscale>  0 0.30000000E+03</rscale>
<asrwt>  1 0.40090432E+02</asrwt>
<pdfrwt beam="1">  1        1 0.90459033E+00 0.30000000E+03</pdfrwt>
<pdfrwt beam="2">0</pdfrwt>
<totfact> 0.91772165E-05</totfact>
</mgrwt>
<clustering>
<clus scale="   40.090">  1  6  2 -1</clus>
<clus scale="  470.907">  4  5 -1 -1</clus>
<clus scale="  300.000">  1  4  2 -1</clus>
</clustering>
</event>
<event>
 6    1  0.9462926E-012  0.3000000E+03  0.7818608E-02  0.1093470E+00
          1   -1    0    0  502    0  0.00000000000E+00  0.00000000000E+00  0.24109703815E+03  0.24109703815E+03  0.00000000000E+00 0.  1.
         13   -1    0    0    0    0 -0.00000000000E+00 -0.00000000000E+00 -0.27500000000E+03  0.27500000000E+03  0.00000000000E+00 0.  1.
    9000005    2    1    2  501    0 -0.37439934810E+02  0.27156677277E+02 -0.13600200468E+01  0.45954372790E+03  0.45720821773E+03 0.  0.
         13    1    3    3    0    0 -0.23453807969E+03  0.92161393526E+02 -0.18076780733E+01  0.25200218448E+03  0.00000000000E+00 0.  1.
          1    1    3    3  501    0  0.19709814488E+03 -0.65004716249E+02  0.44765802650E+00  0.20754154342E+03  0.00000000000E+00 0.  1.
         21    1    1    2  502  501  0.37439934810E+02 -0.27156677277E+02 -0.32542941803E+02  0.56553310252E+02  0.00000000000E+00 0. -1.
<scales pt_clust_4="550.00000" pt_clust_5="550.00000" pt_clust_6="46.25188"></scales>
<mgrwt>
<rscale>  0 0.30000000E+03</rscale>
<asrwt>  1 0.46251875E+02</asrwt>
<pdfrwt beam="1">  1        1 0.87671650E+00 0.30000000E+03</pdfrwt>
<pdfrwt beam="2">0</pdfrwt>
<totfact> 0.20486055E-04</totfact>
</mgrwt>
<clustering>
<clus scale="   46.252">  1  6  2 -1</clus>
<clus scale="  457.208">  4  5 -1 -1</clus>
<clus scale="  300.000">  1  4  2 -1</clus>
</clustering>
</event>
<event>
 6    1  0.9462926E-012  0.3000000E+03  0.7818608E-02  0.1093470E+00
          1   -1    0    0  502    0  0.00000000000E+00  0.00000000000E+00  0.23584523377E+03  0.23584523377E+03  0.00000000000E+00 0.  1.
         13   -1    0    0    0    0 -0.00000000000E+00 -0.00000000000E+00 -0.27500000000E+03  0.27500000000E+03  0.00000000000E+00 0.  1.
    9000005    2    1    2  501    0 -0.11004696248E+02  0.39292503766E+02 -0.15540630659E+02  0.46370043988E+03  0.46164010068E+03 0.  0.
         13    1    3    3    0    0  0.17905803358E+03 -0.61808130776E+02 -0.12018479804E+03  0.22433548560E+03  0.00000000000E+00 0.  1.
          1    1    3    3  501    0 -0.19006272982E+03  0.10110063454E+03  0.10464416738E+03  0.23936495429E+03  0.00000000000E+00 0.  1.
         21    1    1    2  502  501  0.11004696248E+02 -0.39292503766E+02 -0.23614135572E+02  0.47144793885E+02  0.00000000000E+00 0. -1.
<scales pt_clust_4="550.00000" pt_clust_5="550.00000" pt_clust_6="40.80448"></scales>
<mgrwt>
<rscale>  0 0.30000000E+03</rscale>
<asrwt>  1 0.40804483E+02</asrwt>
<pdfrwt beam="1">  1        1 0.85761903E+00 0.30000000E+03</pdfrwt>
<pdfrwt beam="2">0</pdfrwt>
<totfact> 0.33313100E-04</totfact>
</mgrwt>
<clustering>
<clus scale="   40.804">  1  6  2 -1</clus>
<clus scale="  461.640">  4  5 -1 -1</clus>
<clus scale="  300.000">  1  4  2 -1</clus>
</clustering>
</event>
<event>
 6    1  0.9462926E-012  0.3000000E+03  0.7818608E-02  0.1093470E+00
          1   -1    0    0  502    0  0.00000000000E+00  0.00000000000E+00  0.23791686786E+03  0.23791686786E+03  0.00000000000E+00 0.  1.
         13   -1    0    0    0    0 -0.00000000000E+00 -0.00000000000E+00 -0.27500000000E+03  0.27500000000E+03  0.00000000000E+00 0.  1.
    9000005    2    1    2  501    0 -0.32928699640E+02 -0.11059769737E+02 -0.53990832537E+02  0.47428413434E+03  0.46991894228E+03 0.  0.
         13    1    3    3    0    0 -0.18024657576E+03 -0.90947267301E+02  0.11824666077E+03  0.23397116550E+03  0.00000000000E+00 0.  1.
          1    1    3    3  501    0  0.14731787612E+03  0.79887497564E+02 -0.17223749331E+03  0.24031296884E+03  0.00000000000E+00 0.  1.
         21    1    1    2  502  501  0.32928699640E+02  0.11059769737E+02  0.16907700394E+02  0.38632733520E+02  0.00000000000E+00 0.  1.
<scales pt_clust_4="550.00000" pt_clust_5="550.00000" pt_clust_6="34.73640"></scales>
<mgrwt>
<rscale>  0 0.30000000E+03</rscale>
<asrwt>  1 0.34736404E+02</asrwt>
<pdfrwt beam="1">  1        1 0.86515225E+00 0.30000000E+03</pdfrwt>
<pdfrwt beam="2">0</pdfrwt>
<totfact> 0.28502965E-04</totfact>
</mgrwt>
<clustering>
<clus scale="   34.736">  1  6  2 -1</clus>
<clus scale="  469.919">  4  5 -1 -1</clus>
<clus scale="  300.000">  1  4  2 -1</clus>
</clustering>
</event>
<event>
 6    1  0.9462926E-012  0.3000000E+03  0.7818608E-02  0.1093470E+00
          1   -1    0    0  502    0  0.00000000000E+00  0.00000000000E+00  0.25046245619E+03  0.25046245619E+03  0.00000000000E+00 0.  1.
         13   -1    0    0    0    0 -0.00000000000E+00 -0.00000000000E+00 -0.27500000000E+03  0.27500000000E+03  0.00000000000E+00 0.  1.
    9000005    2    1    2  501    0  0.46003431794E+02 -0.17979111957E+02 -0.39463452803E+02  0.47386452054E+03  0.46962820988E+03 0.  0.
         13    1    3    3    0    0  0.16738560912E+03 -0.12429811884E+03 -0.16785011048E+03  0.26765953014E+03  0.00000000000E+00 0.  1.
          1    1    3    3  501    0 -0.12138217732E+03  0.10631900688E+03  0.12838665768E+03  0.20620499040E+03  0.00000000000E+00 0.  1.
         21    1    1    2  502  501 -0.46003431794E+02  0.17979111957E+02  0.14925908991E+02  0.51597935645E+02  0.00000000000E+00 0.  1.
<scales pt_clust_4="550.00000" pt_clust_5="550.00000" pt_clust_6="49.39194"></scales>
<mgrwt>
<rscale>  0 0.30000000E+03</rscale>
<asrwt>  1 0.49391945E+02</asrwt>
<pdfrwt beam="1">  1        1 0.91077257E+00 0.30000000E+03</pdfrwt>
<pdfrwt beam="2">0</pdfrwt>
<totfact> 0.64625792E-05</totfact>
</mgrwt>
<clustering>
<clus scale="   49.392">  1  6  2 -1</clus>
<clus scale="  469.628">  4  5 -1 -1</clus>
<clus scale="  300.000">  1  4  2 -1</clus>
</clustering>
</event>
<event>
 6    1  0.9462926E-012  0.3000000E+03  0.7818608E-02  0.1093470E+00
          1   -1    0    0  502    0  0.00000000000E+00  0.00000000000E+00  0.24135874709E+03  0.24135874709E+03  0.00000000000E+00 0.  1.
         13   -1    0    0    0    0 -0.00000000000E+00 -0.00000000000E+00 -0.27500000000E+03  0.27500000000E+03  0.00000000000E+00 0.  1.
    9000005    2    1    2  501    0  0.25939294480E+02 -0.20279334674E+02 -0.62798714248E+02  0.47237857014E+03  0.46702648383E+03 0.  0.
         13    1    3    3    0    0  0.15779651826E+02 -0.18830240514E+03 -0.18493974209E+03  0.26440404951E+03  0.00000000000E+00 0.  1.
          3    1    3    3  501    0  0.10159642654E+02  0.16802307047E+03  0.12214102784E+03  0.20797452063E+03  0.00000000000E+00 0.  1.
         21    1    1    2  502  501 -0.25939294480E+02  0.20279334674E+02  0.29157461337E+02  0.43980176950E+02  0.00000000000E+00 0.  1.
<scales pt_clust_4="550.00000" pt_clust_5="550.00000" pt_clust_6="32.92565"></scales>
<mgrwt>
<rscale>  0 0.30000000E+03</rscale>
<asrwt>  1 0.32925650E+02</asrwt>
<pdfrwt beam="1">  1        1 0.87766817E+00 0.30000000E+03</pdfrwt>
<pdfrwt beam="2">0</pdfrwt>
<totfact> 0.21275796E-04</totfact>
</mgrwt>
<clustering>
<clus scale="   32.926">  1  6  2 -1</clus>
<clus scale="  467.026">  4  5 -1 -1</clus>
<clus scale="  300.000">  1  4  2 -1</clus>
</clustering>
</event>
<event>
 6    1  0.9462926E-012  0.3000000E+03  0.7818608E-02  0.1093470E+00
          1   -1    0    0  502    0  0.00000000000E+00  0.00000000000E+00  0.23124613140E+03  0.23124613140E+03  0.00000000000E+00 0.  1.
         13   -1    0    0    0    0 -0.00000000000E+00 -0.00000000000E+00 -0.27500000000E+03  0.27500000000E+03  0.00000000000E+00 0.  1.
    9000005    2    1    2  501    0  0.36999835126E+02 -0.96755450464E+01 -0.43438266420E+02  0.46800082350E+03  0.46440853119E+03 0.  0.
         13    1    3    3    0    0  0.64188142245E+02 -0.11766527203E+03  0.17641275818E+03  0.22155517393E+03  0.00000000000E+00 0.  1.
          3    1    3    3  501    0 -0.27188307119E+02  0.10798972698E+03 -0.21985102460E+03  0.24644564958E+03  0.00000000000E+00 0.  1.
         21    1    1    2  502  501 -0.36999835126E+02  0.96755450464E+01 -0.31560217996E+00  0.38245307896E+02  0.00000000000E+00 0. -1.
<scales pt_clust_4="550.00000" pt_clust_5="550.00000" pt_clust_6="38.24401"></scales>
<mgrwt>
<rscale>  0 0.30000000E+03</rscale>
<asrwt>  1 0.38244006E+02</asrwt>
<pdfrwt beam="1">  1        1 0.84089502E+00 0.30000000E+03</pdfrwt>
<pdfrwt beam="2">0</pdfrwt>
<totfact> 0.48115143E-04</totfact>
</mgrwt>
<clustering>
<clus scale="   38.244">  1  6  2 -1</clus>
<clus scale="  464.409">  4  5 -1 -1</clus>
<clus scale="  300.000">  1  4  2 -1</clus>
</clustering>
</event>
<event>
 6    1  0.9462926E-012  0.3000000E+03  0.7818608E-02  0.1093470E+00
          1   -1    0    0  502    0  0.00000000000E+00  0.00000000000E+00  0.22683552701E+03  0.22683552701E+03  0.00000000000E+00 0.  1.
         13   -1    0    0    0    0 -0.00000000000E+00 -0.00000000000E+00 -0.27500000000E+03  0.27500000000E+03  0.00000000000E+00 0.  1.
    9000005    2    1    2  501    0 -0.25193146858E+02  0.19940990665E+02 -0.62338123634E+02  0.46671815055E+03  0.46141895565E+03 0.  0.
         13    1    3    3    0    0  0.20083307643E+03  0.81509244898E+02  0.21727235083E+02  0.21782964522E+03  0.00000000000E+00 0.  1.
          3    1    3    3  501    0 -0.22602622329E+03 -0.61568254234E+02 -0.84065358717E+02  0.24888850532E+03  0.00000000000E+00 0.  1.
         21    1    1    2  502  501  0.25193146858E+02 -0.19940990665E+02  0.14173650647E+02  0.35117376468E+02  0.00000000000E+00 0. -1.
<scales pt_clust_4="550.00000" pt_clust_5="550.00000" pt_clust_6="32.13001"></scales>
<mgrwt>
<rscale>  0 0.30000000E+03</rscale>
<asrwt>  1 0.32130013E+02</asrwt>
<pdfrwt beam="1">  1        1 0.82485646E+00 0.30000000E+03</pdfrwt>
<pdfrwt beam="2">0</pdfrwt>
<totfact> 0.66575402E-04</totfact>
</mgrwt>
<clustering>
<clus scale="   32.130">  1  6  2 -1</clus>
<clus scale="  461.419">  4  5 -1 -1</clus>
<clus scale="  300.000">  1  4  2 -1</clus>
</clustering>
</event>
<event>
 6    1  0.9462926E-012  0.3000000E+03  0.7818608E-02  0.1093470E+00
          1   -1    0    0  502    0  0.00000000000E+00  0.00000000000E+00  0.22916239144E+03  0.22916239144E+03  0.00000000000E+00 0.  1.
         13   -1    0    0    0    0 -0.00000000000E+00 -0.00000000000E+00 -0.27500000000E+03  0.27500000000E+03  0.00000000000E+00 0.  1.
    9000005    2    1    2  501    0  0.26342759382E+02  0.20301417922E+02 -0.37769049597E+02  0.46993973541E+03  0.46723737572E+03 0.  0.
         13    1    3    3    0    0 -0.21983829369E+03  0.47854286039E+00  0.15948883955E+01  0.21984459976E+03  0.00000000000E+00 0.  1.
          1    1    3    3  501    0  0.24618105307E+03  0.19822875061E+02 -0.39363937993E+02  0.25009513566E+03  0.00000000000E+00 0.  1.
         21    1    1    2  502  501 -0.26342759382E+02 -0.20301417922E+02 -0.80685589648E+01  0.34222656023E+02  0.00000000000E+00 0.  1.
<scales pt_clust_4="550.00000" pt_clust_5="550.00000" pt_clust_6="33.25793"></scales>
<mgrwt>
<rscale>  0 0.30000000E+03</rscale>
<asrwt>  1 0.33257926E+02</asrwt>
<pdfrwt beam="1">  1        1 0.83331779E+00 0.30000000E+03</pdfrwt>
<pdfrwt beam="2">0</pdfrwt>
<totfact> 0.56205217E-04</totfact>
</mgrwt>
<clustering>
<clus scale="   33.258">  1  6  2 -1</clus>
<clus scale="  467.237">  4  5 -1 -1</clus>
<clus scale="  300.000">  1  4  2 -1</clus>
</clustering>
</event>
<event>
 6    1  0.9462926E-012  0.3000000E+03  0.7818608E-02  0.1093470E+00
          1   -1    0    0  502    0  0.00000000000E+00  0.00000000000E+00  0.24748540771E+03  0.24748540771E+03  0.00000000000E+00 0.  1.
         13   -1    0    0    0    0 -0.00000000000E+00 -0.00000000000E+00 -0.27500000000E+03  0.27500000000E+03  0.00000000000E+00 0.  1.
    9000005    2    1    2  501    0 -0.44813028814E+02 -0.20514640002E+02 -0.23617079801E+02  0.47304606498E+03  0.46987844718E+03 0.  0.
         13    1    3    3    0    0  0.16119253580E+03 -0.27018506568E+02 -0.15773620482E+03  0.22714256230E+03  0.00000000000E+00 0.  1.
          3    1    3    3  501    0 -0.20600556462E+03  0.65038665657E+01  0.13411912502E+03  0.24590350268E+03  0.00000000000E+00 0.  1.
         21    1    1    2  502  501  0.44813028814E+02  0.20514640002E+02 -0.38975124894E+01  0.49439342729E+02  0.00000000000E+00 0. -1.
<scales pt_clust_4="550.00000" pt_clust_5="550.00000" pt_clust_6="49.28550"></scales>
<mgrwt>
<rscale>  0 0.30000000E+03</rscale>
<asrwt>  1 0.49285499E+02</asrwt>
<pdfrwt beam="1">  1        1 0.89994694E+00 0.30000000E+03</pdfrwt>
<pdfrwt beam="2">0</pdfrwt>
<totfact> 0.10395608E-04</totfact>
</mgrwt>
<clustering>
<clus scale="   49.285">  1  6  2 -1</clus>
<clus scale="  469.878">  4  5 -1 -1</clus>
<clus scale="  300.000">  1  4  2 -1</clus>
</clustering>
</event>
<event>
 6    1  0.9462926E-012  0.3000000E+03  0.7818608E-02  0.1093470E+00
          1   -1    0    0  502    0  0.00000000000E+00  0.00000000000E+00  0.22625323763E+03  0.22625323763E+03  0.00000000000E+00 0.  1.
         13   -1    0    0    0    0 -0.00000000000E+00 -0.00000000000E+00 -0.27500000000E+03  0.27500000000E+03  0.00000000000E+00 0.  1.
    9000005    2    1    2  501    0 -0.28680493209E+02 -0.16774053822E+02 -0.56597937845E+02  0.46711263821E+03  0.46247913535E+03 0.  0.
         13    1    3    3    0    0 -0.22041584796E+03  0.96160853009E+02 -0.41923010067E+02  0.24410570345E+03  0.00000000000E+00 0.  1.
          1    1    3    3  501    0  0.19173535476E+03 -0.11293490683E+03 -0.14674927777E+02  0.22300693476E+03  0.00000000000E+00 0.  1.
         21    1    1    2  502  501  0.28680493209E+02  0.16774053822E+02  0.78511754721E+01  0.34140599418E+02  0.00000000000E+00 0.  1.
<scales pt_clust_4="550.00000" pt_clust_5="550.00000" pt_clust_6="33.22559"></scales>
<mgrwt>
<rscale>  0 0.30000000E+03</rscale>
<asrwt>  1 0.33225586E+02</asrwt>
<pdfrwt beam="1">  1        1 0.82273905E+00 0.30000000E+03</pdfrwt>
<pdfrwt beam="2">0</pdfrwt>
<totfact> 0.69097242E-04</totfact>
</mgrwt>
<clustering>
<clus scale="   33.226">  1  6  2 -1</clus>
<clus scale="  462.479">  4  5 -1 -1</clus>
<clus scale="  300.000">  1  4  2 -1</clus>
</clustering>
</event>
<event>
 6    1  0.9462926E-012  0.3000000E+03  0.7818608E-02  0.1093470E+00
          1   -1    0    0  502    0  0.00000000000E+00  0.00000000000E+00  0.22188101879E+03  0.22188101879E+03  0.00000000000E+00 0.  1.
         13   -1    0    0    0    0 -0.00000000000E+00 -0.00000000000E+00 -0.27500000000E+03  0.27500000000E+03  0.00000000000E+00 0.  1.
    9000005    2    1    2  501    0 -0.24091605806E+02 -0.22496333817E+02 -0.64244896223E+02  0.46209199048E+03  0.45641550201E+03 0.  0.
         13    1    3    3    0    0  0.19915433639E+03  0.57790922711E+02 -0.84628632282E+02  0.22397376152E+03  0.00000000000E+00 0.  1.
          1    1    3    3  501    0 -0.22324594219E+03 -0.80287256527E+02  0.20383736059E+02  0.23811822896E+03  0.00000000000E+00 0.  1.
         21    1    1    2  502  501  0.24091605806E+02  0.22496333817E+02  0.11125915009E+02  0.34789028303E+02  0.00000000000E+00 0.  1.
<scales pt_clust_4="550.00000" pt_clust_5="550.00000" pt_clust_6="32.96196"></scales>
<mgrwt>
<rscale>  0 0.30000000E+03</rscale>
<asrwt>  1 0.32961955E+02</asrwt>
<pdfrwt beam="1">  1        1 0.80684007E+00 0.30000000E+03</pdfrwt>
<pdfrwt beam="2">0</pdfrwt>
<totfact> 0.93307983E-04</totfact>
</mgrwt>
<clustering>
<clus scale="   32.962">  1  6  2 -1</clus>
<clus scale="  456.416">  4  5 -1 -1</clus>
<clus scale="  300.000">  1  4  2 -1</clus>
</clustering>
</event>
<event>
 6    1  0.9462926E-012  0.3000000E+03  0.7818608E-02  0.1093470E+00
          1   -1    0    0  502    0  0.00000000000E+00  0.00000000000E+00  0.22411800338E+03  0.22411800338E+03  0.00000000000E+00 0.  1.
         13   -1    0    0    0    0 -0.00000000000E+00 -0.00000000000E+00 -0.27500000000E+03  0.27500000000E+03  0.00000000000E+00 0.  1.
    9000005    2    1    2  501    0 -0.12176712854E+02  0.29349679141E+02 -0.52184013406E+02  0.46731593978E+03  0.46330480282E+03 0.  0.
         13    1    3    3    0    0 -0.28198898598E+02 -0.52418986794E+02 -0.24771790856E+03  0.25476869957E+03  0.00000000000E+00 0.  1.
          1    1    3    3  501    0  0.16022185744E+02  0.81768665935E+02  0.19553389516E+03  0.21254724021E+03  0.00000000000E+00 0.  1.
         21    1    1    2  502  501  0.12176712854E+02 -0.29349679141E+02  0.13020167893E+01  0.31802063602E+02  0.00000000000E+00 0.  1.
<scales pt_clust_4="550.00000" pt_clust_5="550.00000" pt_clust_6="31.77540"></scales>
<mgrwt>
<rscale>  0 0.30000000E+03</rscale>
<asrwt>  1 0.31775399E+02</asrwt>
<pdfrwt beam="1">  1        1 0.81497456E+00 0.30000000E+03</pdfrwt>
<pdfrwt beam="2">0</pdfrwt>
<totfact> 0.81107946E-04</totfact>
</mgrwt>
<clustering>
<clus scale="   31.775">  1  6  2 -1</clus>
<clus scale="  463.305">  4  5 -1 -1</clus>
<clus scale="  300.000">  1  4  2 -1</clus>
</clustering>
</event>
<event>
 6    1  0.9462926E-012  0.3000000E+03  0.7818608E-02  0.1093470E+00
          1   -1    0    0  502    0  0.00000000000E+00  0.00000000000E+00  0.23245961687E+03  0.23245961687E+03  0.00000000000E+00 0.  1.
         13   -1    0    0    0    0 -0.00000000000E+00 -0.00000000000E+00 -0.27500000000E+03  0.27500000000E+03  0.00000000000E+00 0.  1.
    9000005    2    1    2  501    0  0.34337786879E+02  0.28526665528E+02 -0.36094773614E+02  0.46235529184E+03  0.45877742856E+03 0.  0.
         13    1    3    3    0    0  0.42690059538E+02  0.30411190114E+02  0.20983209041E+03  0.21627942074E+03  0.00000000000E+00 0.  1.
          3    1    3    3  501    0 -0.83522726586E+01 -0.18845245862E+01 -0.24592686403E+03  0.24607587111E+03  0.00000000000E+00 0.  1.
         21    1    1    2  502  501 -0.34337786879E+02 -0.28526665528E+02 -0.64456095178E+01  0.45104325025E+02  0.00000000000E+00 0.  1.
<scales pt_clust_4="550.00000" pt_clust_5="550.00000" pt_clust_6="44.64142"></scales>
<mgrwt>
<rscale>  0 0.30000000E+03</rscale>
<asrwt>  1 0.44641419E+02</asrwt>
<pdfrwt beam="1">  1        1 0.84530770E+00 0.30000000E+03</pdfrwt>
<pdfrwt beam="2">0</pdfrwt>
<totfact> 0.42948283E-04</totfact>
</mgrwt>
<clustering>
<clus scale="   44.641">  1  6  2 -1</clus>
<clus scale="  458.777">  4  5 -1 -1</clus>
<clus scale="  300.000">  1  4  2 -1</clus>
</clustering>
</event>
<event>
 6    1  0.9462926E-012  0.3000000E+03  0.7818608E-02  0.1093470E+00
          1   -1    0    0  502    0  0.00000000000E+00  0.00000000000E+00  0.23399384533E+03  0.23399384533E+03  0.00000000000E+00 0.  1.
         13   -1    0    0    0    0 -0.00000000000E+00 -0.00000000000E+00 -0.27500000000E+03  0.27500000000E+03  0.00000000000E+00 0.  1.
    9000005    2    1    2  501    0  0.50273457856E+01 -0.29641458475E+02 -0.61823063960E+02  0.47242563538E+03  0.46739704691E+03 0.  0.
         13    1    3    3    0    0  0.27334679287E+02  0.21673656294E+03 -0.45707628528E+01  0.21850129125E+03  0.00000000000E+00 0.  1.
          3    1    3    3  501    0 -0.22307333501E+02 -0.24637802141E+03 -0.57252301107E+02  0.25392434413E+03  0.00000000000E+00 0.  1.
         21    1    1    2  502  501 -0.50273457856E+01  0.29641458475E+02  0.20816909286E+02  0.36568209942E+02  0.00000000000E+00 0.  1.
<scales pt_clust_4="550.00000" pt_clust_5="550.00000" pt_clust_6="30.06477"></scales>
<mgrwt>
<rscale>  0 0.30000000E+03</rscale>
<asrwt>  1 0.30064768E+02</asrwt>
<pdfrwt beam="1">  1        1 0.85088671E+00 0.30000000E+03</pdfrwt>
<pdfrwt beam="2">0</pdfrwt>
<totfact> 0.41090807E-04</totfact>
</mgrwt>
<clustering>
<clus scale="   30.065">  1  6  2 -1</clus>
<clus scale="  467.397">  4  5 -1 -1</clus>
<clus scale="  300.000">  1  4  2 -1</clus>
</clustering>
</event>
<event>
 6    1  0.9462926E-012  0.3000000E+03  0.7818608E-02  0.1093470E+00
          1   -1    0    0  502    0  0.00000000000E+00  0.00000000000E+00  0.22786993185E+03  0.22786993185E+03  0.00000000000E+00 0.  1.
         13   -1    0    0    0    0 -0.00000000000E+00 -0.00000000000E+00 -0.27500000000E+03  0.27500000000E+03  0.00000000000E+00 0.  1.
    9000005    2    1    2  501    0 -0.28279821257E+02  0.21192964661E+02 -0.52462052759E+02  0.46713031656E+03  0.46282780343E+03 0.  0.
         13    1    3    3    0    0 -0.96796307632E+02 -0.14407475946E+03 -0.17796416872E+03  0.24859265241E+03  0.00000000000E+00 0.  1.
          3    1    3    3  501    0  0.68516486375E+02  0.16526772412E+03  0.12550211596E+03  0.21853766415E+03  0.00000000000E+00 0.  1.
         21    1    1    2  502  501  0.28279821257E+02 -0.21192964661E+02  0.53319846099E+01  0.35739615294E+02  0.00000000000E+00 0.  1.
<scales pt_clust_4="550.00000" pt_clust_5="550.00000" pt_clust_6="35.33964"></scales>
<mgrwt>
<rscale>  0 0.30000000E+03</rscale>
<asrwt>  1 0.35339638E+02</asrwt>
<pdfrwt beam="1">  1        1 0.82861793E+00 0.30000000E+03</pdfrwt>
<pdfrwt beam="2">0</pdfrwt>
<totfact> 0.60596647E-04</totfact>
</mgrwt>
<clustering>
<clus scale="   35.340">  1  6  2 -1</clus>
<clus scale="  462.828">  4  5 -1 -1</clus>
<clus scale="  300.000">  1  4  2 -1</clus>
</clustering>
</event>
<event>
 6    1  0.9462926E-012  0.3000000E+03  0.7818608E-02  0.1093470E+00
          1   -1    0    0  502    0  0.00000000000E+00  0.00000000000E+00  0.22330092751E+03  0.22330092751E+03  0.00000000000E+00 0.  1.
         13   -1    0    0    0    0 -0.00000000000E+00 -0.00000000000E+00 -0.27500000000E+03  0.27500000000E+03  0.00000000000E+00 0.  1.
    9000005    2    1    2  501    0 -0.29268907934E+02 -0.10540692358E+02 -0.58756968940E+02  0.46640125558E+03  0.46163835915E+03 0.  0.
         13    1    3    3    0    0  0.16711676729E+03 -0.48656112421E+02 -0.16504757377E+03  0.23986690641E+03  0.00000000000E+00 0.  1.
          1    1    3    3  501    0 -0.19638567522E+03  0.38115420063E+02  0.10629060483E+03  0.22653434917E+03  0.00000000000E+00 0.  1.
         21    1    1    2  502  501  0.29268907934E+02  0.10540692358E+02  0.70578964532E+01  0.31899671933E+02  0.00000000000E+00 0.  1.
<scales pt_clust_4="550.00000" pt_clust_5="550.00000" pt_clust_6="31.10908"></scales>
<mgrwt>
<rscale>  0 0.30000000E+03</rscale>
<asrwt>  1 0.31109085E+02</asrwt>
<pdfrwt beam="1">  1        1 0.81200337E+00 0.30000000E+03</pdfrwt>
<pdfrwt beam="2">0</pdfrwt>
<totfact> 0.86009877E-04</totfact>
</mgrwt>
<clustering>
<clus scale="   31.109">  1  6  2 -1</clus>
<clus scale="  461.638">  4  5 -1 -1</clus>
<clus scale="  300.000">  1  4  2 -1</clus>
</clustering>
</event>
<event>
 6    1  0.9462926E-012  0.3000000E+03  0.7818608E-02  0.1093470E+00
          1   -1    0    0  502    0  0.00000000000E+00  0.00000000000E+00  0.23763015210E+03  0.23763015210E+03  0.00000000000E+00 0.  1.
         13   -1    0    0    0    0 -0.00000000000E+00 -0.00000000000E+00 -0.27500000000E+03  0.27500000000E+03  0.00000000000E+00 0.  1.
    9000005    2    1    2  501    0 -0.38864589846E+02  0.15048716734E+02 -0.47543556636E+02  0.46972998230E+03  0.46545563299E+03 0.  0.
         13    1    3    3    0    0  0.11542880504E+03 -0.10242849930E+03  0.13378179869E+03  0.20423754837E+03  0.00000000000E+00 0.  1.
          3    1    3    3  501    0 -0.15429339489E+03  0.11747721604E+03 -0.18132535532E+03  0.26549243394E+03  0.00000000000E+00 0.  1.
         21    1    1    2  502  501  0.38864589846E+02 -0.15048716734E+02  0.10173708738E+02  0.42900169798E+02  0.00000000000E+00 0. -1.
<scales pt_clust_4="550.00000" pt_clust_5="550.00000" pt_clust_6="41.67637"></scales>
<mgrwt>
<rscale>  0 0.30000000E+03</rscale>
<asrwt>  1 0.41676375E+02</asrwt>
<pdfrwt beam="1">  1        1 0.86410964E+00 0.30000000E+03</pdfrwt>
<pdfrwt beam="2">0</pdfrwt>
<totfact> 0.28285309E-04</totfact>
</mgrwt>
<clustering>
<clus scale="   41.676">  1  6  2 -1</clus>
<clus scale="  465.456">  4  5 -1 -1</clus>
<clus scale="  300.000">  1  4  2 -1</clus>
</clustering>
</event>
<event>
 6    1  0.9462926E-012  0.3000000E+03  0.7818608E-02  0.1093470E+00
          1   -1    0    0  502    0  0.00000000000E+00  0.00000000000E+00  0.24077154032E+03  0.24077154032E+03  0.00000000000E+00 0.  1.
         13   -1    0    0    0    0 -0.00000000000E+00 -0.00000000000E+00 -0.27500000000E+03  0.27500000000E+03  0.00000000000E+00 0.  1.
    9000005    2    1    2  501    0  0.39972538245E+02  0.27495986959E+01 -0.26669435857E+02  0.47499773810E+03  0.47255288411E+03 0.  0.
         13    1    3    3    0    0 -0.19881831977E+03  0.83738968044E+02 -0.50985734663E+02  0.22167653052E+03  0.00000000000E+00 0.  1.
          1    1    3    3  501    0  0.23879085802E+03 -0.80989369349E+02  0.24316298806E+02  0.25332120758E+03  0.00000000000E+00 0.  1.
         21    1    1    2  502  501 -0.39972538245E+02 -0.27495986959E+01 -0.75590238182E+01  0.40773802224E+02  0.00000000000E+00 0. -1.
<scales pt_clust_4="550.00000" pt_clust_5="550.00000" pt_clust_6="40.06702"></scales>
<mgrwt>
<rscale>  0 0.30000000E+03</rscale>
<asrwt>  1 0.40067015E+02</asrwt>
<pdfrwt beam="1">  1        1 0.87553287E+00 0.30000000E+03</pdfrwt>
<pdfrwt beam="2">0</pdfrwt>
<totfact> 0.21653450E-04</totfact>
</mgrwt>
<clustering>
<clus scale="   40.067">  1  6  2 -1</clus>
<clus scale="  472.553">  4  5 -1 -1</clus>
<clus scale="  300.000">  1  4  2 -1</clus>
</clustering>
</event>
<event>
 6    1  0.9462926E-012  0.3000000E+03  0.7818608E-02  0.1093470E+00
          1   -1    0    0  502    0  0.00000000000E+00  0.00000000000E+00  0.23021506440E+03  0.23021506440E+03  0.00000000000E+00 0.  1.
         13   -1    0    0    0    0 -0.00000000000E+00 -0.00000000000E+00 -0.27500000000E+03  0.27500000000E+03  0.00000000000E+00 0.  1.
    9000005    2    1    2  501    0  0.30030613280E+02  0.20543411839E+02 -0.47497125083E+02  0.46872910168E+03  0.46489474547E+03 0.  0.
         13    1    3    3    0    0  0.21613632264E+02  0.21623578771E+03 -0.13324348584E+03  0.25490957515E+03  0.00000000000E+00 0.  1.
          3    1    3    3  501    0  0.84169810166E+01 -0.19569237587E+03  0.85746360756E+02  0.21381952653E+03  0.00000000000E+00 0.  1.
         21    1    1    2  502  501 -0.30030613280E+02 -0.20543411839E+02  0.27121894844E+01  0.36485962723E+02  0.00000000000E+00 0.  1.
<scales pt_clust_4="550.00000" pt_clust_5="550.00000" pt_clust_6="36.38502"></scales>
<mgrwt>
<rscale>  0 0.30000000E+03</rscale>
<asrwt>  1 0.36385018E+02</asrwt>
<pdfrwt beam="1">  1        1 0.83714569E+00 0.30000000E+03</pdfrwt>
<pdfrwt beam="2">0</pdfrwt>
<totfact> 0.51815364E-04</totfact>
</mgrwt>
<clustering>
<clus scale="   36.385">  1  6  2 -1</clus>
<clus scale="  464.895">  4  5 -1 -1</clus>
<clus scale="  300.000">  1  4  2 -1</clus>
</clustering>
</event>
<event>
 6    1  0.9462926E-012  0.3000000E+03  0.7818608E-02  0.1093470E+00
          1   -1    0    0  502    0  0.00000000000E+00  0.00000000000E+00  0.22734528511E+03  0.22734528511E+03  0.00000000000E+00 0.  1.
         13   -1    0    0    0    0 -0.00000000000E+00 -0.00000000000E+00 -0.27500000000E+03  0.27500000000E+03  0.00000000000E+00 0.  1.
    9000005    2    1    2  501    0 -0.16158640460E+02 -0.30886730252E+02 -0.50528132241E+02  0.46736888887E+03  0.46332007766E+03 0.  0.
         13    1    3    3    0    0  0.13586081434E+03  0.12167834573E+03 -0.14420371122E+03  0.23250481936E+03  0.00000000000E+00 0.  1.
          3    1    3    3  501    0 -0.15201945480E+03 -0.15256507598E+03  0.93675578983E+02  0.23486406951E+03  0.00000000000E+00 0.  1.
         21    1    1    2  502  501  0.16158640460E+02  0.30886730252E+02  0.28734173537E+01  0.34976396248E+02  0.00000000000E+00 0. -1.
<scales pt_clust_4="550.00000" pt_clust_5="550.00000" pt_clust_6="34.85817"></scales>
<mgrwt>
<rscale>  0 0.30000000E+03</rscale>
<asrwt>  1 0.34858166E+02</asrwt>
<pdfrwt beam="1">  1        1 0.82671013E+00 0.30000000E+03</pdfrwt>
<pdfrwt beam="2">0</pdfrwt>
<totfact> 0.63120023E-04</totfact>
</mgrwt>
<clustering>
<clus scale="   34.858">  1  6  2 -1</clus>
<clus scale="  463.320">  4  5 -1 -1</clus>
<clus scale="  300.000">  1  4  2 -1</clus>
</clustering>
</event>
<event>
 6    1  0.9462926E-012  0.3000000E+03  0.7818608E-02  0.1093470E+00
          1   -1    0    0  502    0  0.00000000000E+00  0.00000000000E+00  0.23995900441E+03  0.23995900441E+03  0.00000000000E+00 0.  1.
         13   -1    0    0    0    0 -0.00000000000E+00 -0.00000000000E+00 -0.27500000000E+03  0.27500000000E+03  0.00000000000E+00 0.  1.
    9000005    2    1    2  501    0 -0.14319366380E+02  0.43558507564E+02 -0.59868596567E+02  0.46281691388E+03  0.45663208284E+03 0.  0.
         13    1    3    3    0    0 -0.11440981725E+03  0.19660642467E+03 -0.13566973289E+03  0.26485839410E+03  0.00000000000E+00 0.  1.
          3    1    3    3  501    0  0.10009045087E+03 -0.15304791710E+03  0.75801136323E+02  0.19795851978E+03  0.00000000000E+00 0.  1.
         21    1    1    2  502  501  0.14319366380E+02 -0.43558507564E+02  0.24827600974E+02  0.52142090530E+02  0.00000000000E+00 0. -1.
<scales pt_clust_4="550.00000" pt_clust_5="550.00000" pt_clust_6="45.85180"></scales>
<mgrwt>
<rscale>  0 0.30000000E+03</rscale>
<asrwt>  1 0.45851803E+02</asrwt>
<pdfrwt beam="1">  1        1 0.87257820E+00 0.30000000E+03</pdfrwt>
<pdfrwt beam="2">0</pdfrwt>
<totfact> 0.22688514E-04</totfact>
</mgrwt>
<clustering>
<clus scale="   45.852">  1  6  2 -1</clus>
<clus scale="  456.632">  4  5 -1 -1</clus>
<clus scale="  300.000">  1  4  2 -1</clus>
</clustering>
</event>
<event>
 6    1  0.9462926E-012  0.3000000E+03  0.7818608E-02  0.1093470E+00
          1   -1    0    0  502    0  0.00000000000E+00  0.00000000000E+00  0.25236474880E+03  0.25236474880E+03  0.00000000000E+00 0.  1.
         13   -1    0    0    0    0 -0.00000000000E+00 -0.00000000000E+00 -0.27500000000E+03  0.27500000000E+03  0.00000000000E+00 0.  1.
    9000005    2    1    2  501    0 -0.60591046300E+02 -0.25794205853E+02 -0.21372827937E+02  0.46149966200E+03  0.45627680667E+03 0.  0.
         13    1    3    3    0    0  0.16698395479E+03  0.10610105041E+03 -0.14594570073E+02  0.19837861661E+03  0.00000000000E+00 0.  1.
          3    1    3    3  501    0 -0.22757500109E+03 -0.13189525626E+03 -0.67782578639E+01  0.26312104538E+03  0.00000000000E+00 0.  1.
         21    1    1    2  502  501  0.60591046300E+02  0.25794205853E+02 -0.12624232611E+01  0.65865086804E+02  0.00000000000E+00 0. -1.
<scales pt_clust_4="550.00000" pt_clust_5="550.00000" pt_clust_6="65.85299"></scales>
<mgrwt>
<rscale>  0 0.30000000E+03</rscale>
<asrwt>  1 0.65852987E+02</asrwt>
<pdfrwt beam="1">  1        1 0.91769000E+00 0.30000000E+03</pdfrwt>
<pdfrwt beam="2">0</pdfrwt>
<totfact> 0.42035424E-05</totfact>
</mgrwt>
<clustering>
<clus scale="   65.853">  1  6  2 -1</clus>
<clus scale="  456.277">  4  5 -1 -1</clus>
<clus scale="  300.000">  1  4  2 -1</clus>
</clustering>
</event>
<event>
 6    1  0.9462926E-012  0.3000000E+03  0.7818608E-02  0.1093470E+00
          1   -1    0    0  502    0  0.00000000000E+00  0.00000000000E+00  0.23813691124E+03  0.23813691124E+03  0.00000000000E+00 0.  1.
         13   -1    0    0    0    0 -0.00000000000E+00 -0.00000000000E+00 -0.27500000000E+03  0.27500000000E+03  0.00000000000E+00 0.  1.
    9000005    2    1    2  501    0 -0.32016298419E+02 -0.32415010032E+01 -0.67460880769E+02  0.46873223165E+03  0.46273467977E+03 0.  0.
         13    1    3    3    0    0 -0.20431308042E+03 -0.13585863161E+03 -0.51622160099E+02  0.25073143007E+03  0.00000000000E+00 0.  1.
          1    1    3    3  501    0  0.17229678200E+03  0.13261713061E+03 -0.15838720670E+02  0.21800080158E+03  0.00000000000E+00 0.  1.
         21    1    1    2  502  501  0.32016298419E+02  0.32415010032E+01  0.30597792004E+02  0.44404679582E+02  0.00000000000E+00 0.  1.
<scales pt_clust_4="550.00000" pt_clust_5="550.00000" pt_clust_6="32.17997"></scales>
<mgrwt>
<rscale>  0 0.30000000E+03</rscale>
<asrwt>  1 0.32179973E+02</asrwt>
<pdfrwt beam="1">  1        1 0.86595240E+00 0.30000000E+03</pdfrwt>
<pdfrwt beam="2">0</pdfrwt>
<totfact> 0.28351659E-04</totfact>
</mgrwt>
<clustering>
<clus scale="   32.180">  1  6  2 -1</clus>
<clus scale="  462.735">  4  5 -1 -1</clus>
<clus scale="  300.000">  1  4  2 -1</clus>
</clustering>
</event>
<event>
 6    1  0.9462926E-012  0.3000000E+03  0.7818608E-02  0.1093470E+00
          1   -1    0    0  502    0  0.00000000000E+00  0.00000000000E+00  0.23738714052E+03  0.23738714052E+03  0.00000000000E+00 0.  1.
         13   -1    0    0    0    0 -0.00000000000E+00 -0.00000000000E+00 -0.27500000000E+03  0.27500000000E+03  0.00000000000E+00 0.  1.
    9000005    2    1    2  501    0  0.92353737587E+01  0.30658526877E+02 -0.33156182006E+02  0.48005914378E+03  0.47784119928E+03 0.  0.
         13    1    3    3    0    0 -0.18871344668E+03  0.14290367740E+03  0.41996997133E+02  0.24041209151E+03  0.00000000000E+00 0.  1.
          3    1    3    3  501    0  0.19794882044E+03 -0.11224515053E+03 -0.75153179140E+02  0.23964705228E+03  0.00000000000E+00 0.  1.
         21    1    1    2  502  501 -0.92353737587E+01 -0.30658526877E+02 -0.44566774755E+01  0.32327996734E+02  0.00000000000E+00 0. -1.
<scales pt_clust_4="550.00000" pt_clust_5="550.00000" pt_clust_6="32.01934"></scales>
<mgrwt>
<rscale>  0 0.30000000E+03</rscale>
<asrwt>  1 0.32019345E+02</asrwt>
<pdfrwt beam="1">  1        1 0.86322597E+00 0.30000000E+03</pdfrwt>
<pdfrwt beam="2">0</pdfrwt>
<totfact> 0.30364376E-04</totfact>
</mgrwt>
<clustering>
<clus scale="   32.019">  1  6  2 -1</clus>
<clus scale="  477.841">  4  5 -1 -1</clus>
<clus scale="  300.000">  1  4  2 -1</clus>
</clustering>
</event>
<event>
 6    1  0.9462926E-012  0.3000000E+03  0.7818608E-02  0.1093470E+00
          1   -1    0    0  502    0  0.00000000000E+00  0.00000000000E+00  0.23193224430E+03  0.23193224430E+03  0.00000000000E+00 0.  1.
         13   -1    0    0    0    0 -0.00000000000E+00 -0.00000000000E+00 -0.27500000000E+03  0.27500000000E+03  0.00000000000E+00 0.  1.
    9000005    2    1    2  501    0 -0.30808026504E+02  0.11417464987E+02 -0.55034994087E+02  0.47196500537E+03  0.46759236811E+03 0.  0.
         13    1    3    3    0    0  0.20856244746E+03  0.18433811828E+02  0.42057092268E+02  0.21355771801E+03  0.00000000000E+00 0.  1.
          1    1    3    3  501    0 -0.23937047397E+03 -0.70163468405E+01 -0.97092086355E+02  0.25840728736E+03  0.00000000000E+00 0.  1.
         21    1    1    2  502  501  0.30808026504E+02 -0.11417464987E+02  0.11967238386E+02  0.34967238930E+02  0.00000000000E+00 0. -1.
<scales pt_clust_4="550.00000" pt_clust_5="550.00000" pt_clust_6="32.85564"></scales>
<mgrwt>
<rscale>  0 0.30000000E+03</rscale>
<asrwt>  1 0.32855639E+02</asrwt>
<pdfrwt beam="1">  1        1 0.84338998E+00 0.30000000E+03</pdfrwt>
<pdfrwt beam="2">0</pdfrwt>
<totfact> 0.47206962E-04</totfact>
</mgrwt>
<clustering>
<clus scale="   32.856">  1  6  2 -1</clus>
<clus scale="  467.592">  4  5 -1 -1</clus>
<clus scale="  300.000">  1  4  2 -1</clus>
</clustering>
</event>
<event>
 6    1  0.9462926E-012  0.3000000E+03  0.7818608E-02  0.1093470E+00
          1   -1    0    0  502    0  0.00000000000E+00  0.00000000000E+00  0.22134446753E+03  0.22134446753E+03  0.00000000000E+00 0.  1.
         13   -1    0    0    0    0 -0.00000000000E+00 -0.00000000000E+00 -0.27500000000E+03  0.27500000000E+03  0.00000000000E+00 0.  1.
    9000005    2    1    2  501    0 -0.15737712386E+01 -0.32414162579E+02 -0.63447325391E+02  0.46244706497E+03  0.45692293673E+03 0.  0.
         13    1    3    3    0    0  0.12365110508E+02 -0.93044176792E+02  0.18439839286E+03  0.20691274026E+03  0.00000000000E+00 0.  1.
          1    1    3    3  501    0 -0.13938881746E+02  0.60630014213E+02 -0.24784571825E+03  0.25553432471E+03  0.00000000000E+00 0.  1.
         21    1    1    2  502  501  0.15737712386E+01  0.32414162579E+02  0.97917929249E+01  0.33897402560E+02  0.00000000000E+00 0.  1.
<scales pt_clust_4="550.00000" pt_clust_5="550.00000" pt_clust_6="32.45234"></scales>
<mgrwt>
<rscale>  0 0.30000000E+03</rscale>
<asrwt>  1 0.32452345E+02</asrwt>
<pdfrwt beam="1">  1        1 0.80488897E+00 0.30000000E+03</pdfrwt>
<pdfrwt beam="2">0</pdfrwt>
<totfact> 0.96847790E-04</totfact>
</mgrwt>
<clustering>
<clus scale="   32.452">  1  6  2 -1</clus>
<clus scale="  456.923">  4  5 -1 -1</clus>
<clus scale="  300.000">  1  4  2 -1</clus>
</clustering>
</event>
<event>
 6    1  0.9462926E-012  0.3000000E+03  0.7818608E-02  0.1093470E+00
          1   -1    0    0  502    0  0.00000000000E+00  0.00000000000E+00  0.22514049400E+03  0.22514049400E+03  0.00000000000E+00 0.  1.
         13   -1    0    0    0    0 -0.00000000000E+00 -0.00000000000E+00 -0.27500000000E+03  0.27500000000E+03  0.00000000000E+00 0.  1.
    9000005    2    1    2  501    0  0.34968695156E+02 -0.15783661472E+02 -0.54492369779E+02  0.46149599844E+03  0.45665873976E+03 0.  0.
         13    1    3    3    0    0  0.24970714250E+02  0.32689084070E+02 -0.25330098516E+03  0.25661937158E+03  0.00000000000E+00 0.  1.
          1    1    3    3  501    0  0.99979809060E+01 -0.48472745542E+02  0.19880861538E+03  0.20487662686E+03  0.00000000000E+00 0.  1.
         21    1    1    2  502  501 -0.34968695156E+02  0.15783661472E+02  0.46328637784E+01  0.38644495561E+02  0.00000000000E+00 0. -1.
<scales pt_clust_4="550.00000" pt_clust_5="550.00000" pt_clust_6="38.36579"></scales>
<mgrwt>
<rscale>  0 0.30000000E+03</rscale>
<asrwt>  1 0.38365787E+02</asrwt>
<pdfrwt beam="1">  1        1 0.81869271E+00 0.30000000E+03</pdfrwt>
<pdfrwt beam="2">0</pdfrwt>
<totfact> 0.72965605E-04</totfact>
</mgrwt>
<clustering>
<clus scale="   38.366">  1  6  2 -1</clus>
<clus scale="  456.659">  4  5 -1 -1</clus>
<clus scale="  300.000">  1  4  2 -1</clus>
</clustering>
</event>
<event>
 6    1  0.9462926E-012  0.3000000E+03  0.7818608E-02  0.1093470E+00
          1   -1    0    0  502    0  0.00000000000E+00  0.00000000000E+00  0.21844380724E+03  0.21844380724E+03  0.00000000000E+00 0.  1.
         13   -1    0    0    0    0 -0.00000000000E+00 -0.00000000000E+00 -0.27500000000E+03  0.27500000000E+03  0.00000000000E+00 0.  1.
    9000005    2    1    2  501    0  0.15383815710E+02 -0.26848195085E+02 -0.59406295800E+02  0.46236953408E+03  0.45749206627E+03 0.  0.
         13    1    3    3    0    0  0.17669992501E+03  0.37576249225E+02 -0.17675634244E+03  0.25274026706E+03  0.00000000000E+00 0.  1.
          1    1    3    3  501    0 -0.16131610930E+03 -0.64424444310E+02  0.11735004664E+03  0.20962926702E+03  0.00000000000E+00 0.  1.
         21    1    1    2  502  501 -0.15383815710E+02  0.26848195085E+02  0.28501030417E+01  0.31074273161E+02  0.00000000000E+00 0. -1.
<scales pt_clust_4="550.00000" pt_clust_5="550.00000" pt_clust_6="30.94329"></scales>
<mgrwt>
<rscale>  0 0.30000000E+03</rscale>
<asrwt>  1 0.30943293E+02</asrwt>
<pdfrwt beam="1">  1        1 0.79434112E+00 0.30000000E+03</pdfrwt>
<pdfrwt beam="2">0</pdfrwt>
<totfact> 0.11679291E-03</totfact>
</mgrwt>
<clustering>
<clus scale="   30.943">  1  6  2 -1</clus>
<clus scale="  457.492">  4  5 -1 -1</clus>
<clus scale="  300.000">  1  4  2 -1</clus>
</clustering>
</event>
<event>
 6    1  0.9462926E-012  0.3000000E+03  0.7818608E-02  0.1093470E+00
          1   -1    0    0  502    0  0.00000000000E+00  0.00000000000E+00  0.25766489318E+03  0.25766489318E+03  0.00000000000E+00 0.  1.
         13   -1    0    0    0    0 -0.00000000000E+00 -0.00000000000E+00 -0.27500000000E+03  0.27500000000E+03  0.00000000000E+00 0.  1.
    9000005    2    1    2  501    0 -0.40963640605E+02 -0.36535291537E+00 -0.16653659580E+02  0.49169395586E+03  0.48970138709E+03 0.  0.
         13    1    3    3    0    0 -0.25681822111E+03  0.51403173240E+02 -0.51708190209E+02  0.26696745466E+03  0.00000000000E+00 0.  1.
          1    1    3    3  501    0  0.21585458050E+03 -0.51768526155E+02  0.35054530629E+02  0.22472650120E+03  0.00000000000E+00 0.  1.
         21    1    1    2  502  501  0.40963640605E+02  0.36535291537E+00 -0.68144724019E+00  0.40970937318E+02  0.00000000000E+00 0. -1.
<scales pt_clust_4="550.00000" pt_clust_5="550.00000" pt_clust_6="40.96527"></scales>
<mgrwt>
<rscale>  0 0.30000000E+03</rscale>
<asrwt>  1 0.40965270E+02</asrwt>
<pdfrwt beam="1">  1        1 0.93696325E+00 0.30000000E+03</pdfrwt>
<pdfrwt beam="2">0</pdfrwt>
<totfact> 0.20680923E-05</totfact>
</mgrwt>
<clustering>
<clus scale="   40.965">  1  6  2 -1</clus>
<clus scale="  489.701">  4  5 -1 -1</clus>
<clus scale="  300.000">  1  4  2 -1</clus>
</clustering>
</event>
<event>
 6    1  0.9462926E-012  0.3000000E+03  0.7818608E-02  0.1093470E+00
          1   -1    0    0  502    0  0.00000000000E+00  0.00000000000E+00  0.22690421047E+03  0.22690421047E+03  0.00000000000E+00 0.  1.
         13   -1    0    0    0    0 -0.00000000000E+00 -0.00000000000E+00 -0.27500000000E+03  0.27500000000E+03  0.00000000000E+00 0.  1.
    9000005    2    1    2  501    0  0.30107000332E+02 -0.13289882047E+02 -0.59919758981E+02  0.46693481403E+03  0.46190333470E+03 0.  0.
         13    1    3    3    0    0 -0.81812205530E+02 -0.13181914005E+01 -0.24056106139E+03  0.25409564904E+03  0.00000000000E+00 0.  1.
          3    1    3    3  501    0  0.11191920586E+03 -0.11971690647E+02  0.18064130241E+03  0.21283916499E+03  0.00000000000E+00 0.  1.
         21    1    1    2  502  501 -0.30107000332E+02  0.13289882047E+02  0.11823969452E+02  0.34969396440E+02  0.00000000000E+00 0.  1.
<scales pt_clust_4="550.00000" pt_clust_5="550.00000" pt_clust_6="32.90976"></scales>
<mgrwt>
<rscale>  0 0.30000000E+03</rscale>
<asrwt>  1 0.32909762E+02</asrwt>
<pdfrwt beam="1">  1        1 0.82510622E+00 0.30000000E+03</pdfrwt>
<pdfrwt beam="2">0</pdfrwt>
<totfact> 0.65934066E-04</totfact>
</mgrwt>
<clustering>
<clus scale="   32.910">  1  6  2 -1</clus>
<clus scale="  461.903">  4  5 -1 -1</clus>
<clus scale="  300.000">  1  4  2 -1</clus>
</clustering>
</event>
<event>
 6    1  0.9462926E-012  0.3000000E+03  0.7818608E-02  0.1093470E+00
          1   -1    0    0  502    0  0.00000000000E+00  0.00000000000E+00  0.23766223918E+03  0.23766223918E+03  0.00000000000E+00 0.  1.
         13   -1    0    0    0    0 -0.00000000000E+00 -0.00000000000E+00 -0.27500000000E+03  0.27500000000E+03  0.00000000000E+00 0.  1.
    9000005    2    1    2  501    0  0.84658199662E-01  0.37079579515E+02 -0.41686107499E+02  0.47532846757E+03  0.47204291980E+03 0.  0.
         13    1    3    3    0    0 -0.11844667431E+03 -0.71979118898E+02  0.16358493146E+03  0.21440764448E+03  0.00000000000E+00 0.  1.
          3    1    3    3  501    0  0.11853133251E+03  0.10905869841E+03 -0.20527103896E+03  0.26092082309E+03  0.00000000000E+00 0.  1.
         21    1    1    2  502  501 -0.84658199662E-01 -0.37079579515E+02  0.43483466800E+01  0.37333771613E+02  0.00000000000E+00 0.  1.
<scales pt_clust_4="550.00000" pt_clust_5="550.00000" pt_clust_6="37.07968"></scales>
<mgrwt>
<rscale>  0 0.30000000E+03</rscale>
<asrwt>  1 0.37079676E+02</asrwt>
<pdfrwt beam="1">  1        1 0.86422632E+00 0.30000000E+03</pdfrwt>
<pdfrwt beam="2">0</pdfrwt>
<totfact> 0.28813143E-04</totfact>
</mgrwt>
<clustering>
<clus scale="   37.080">  1  6  2 -1</clus>
<clus scale="  472.043">  4  5 -1 -1</clus>
<clus scale="  300.000">  1  4  2 -1</clus>
</clustering>
</event>
<event>
 6    1  0.9462926E-012  0.3000000E+03  0.7818608E-02  0.1093470E+00
          1   -1    0    0  502    0  0.00000000000E+00  0.00000000000E+00  0.23152070854E+03  0.23152070854E+03  0.00000000000E+00 0.  1.
         13   -1    0    0    0    0 -0.00000000000E+00 -0.00000000000E+00 -0.27500000000E+03  0.27500000000E+03  0.00000000000E+00 0.  1.
    9000005    2    1    2  501    0  0.30868981631E+02 -0.73542861295E+01 -0.61054579807E+02  0.47024578177E+03  0.46518432262E+03 0.  0.
         13    1    3    3    0    0 -0.68520266624E+02  0.19278170395E+03 -0.12253783700E+03  0.23848550021E+03  0.00000000000E+00 0.  1.
          1    1    3    3  501    0  0.99389248255E+02 -0.20013599007E+03  0.61483257198E+02  0.23176028156E+03  0.00000000000E+00 0.  1.
         21    1    1    2  502  501 -0.30868981631E+02  0.73542861295E+01  0.17575288342E+02  0.36274926764E+02  0.00000000000E+00 0.  1.
<scales pt_clust_4="550.00000" pt_clust_5="550.00000" pt_clust_6="31.73294"></scales>
<mgrwt>
<rscale>  0 0.30000000E+03</rscale>
<asrwt>  1 0.31732941E+02</asrwt>
<pdfrwt beam="1">  1        1 0.84189349E+00 0.30000000E+03</pdfrwt>
<pdfrwt beam="2">0</pdfrwt>
<totfact> 0.48909944E-04</totfact>
</mgrwt>
<clustering>
<clus scale="   31.733">  1  6  2 -1</clus>
<clus scale="  465.184">  4  5 -1 -1</clus>
<clus scale="  300.000">  1  4  2 -1</clus>
</clustering>
</event>
<event>
 6    1  0.9462926E-012  0.3000000E+03  0.7818608E-02  0.1093470E+00
          1   -1    0    0  502    0  0.00000000000E+00  0.00000000000E+00  0.25975310694E+03  0.25975310694E+03  0.00000000000E+00 0.  1.
         13   -1    0    0    0    0 -0.00000000000E+00 -0.00000000000E+00 -0.27500000000E+03  0.27500000000E+03  0.00000000000E+00 0.  1.
    9000005    2    1    2  501    0  0.19437905930E+02 -0.27900437950E+02 -0.34804185257E+02  0.49552614806E+03  0.49313138764E+03 0.  0.
         13    1    3    3    0    0  0.17371648598E+02  0.19712868377E+02  0.22745718061E+03  0.22896973679E+03  0.00000000000E+00 0.  1.
          1    1    3    3  501    0  0.20662573321E+01 -0.47613306327E+02 -0.26226136587E+03  0.26655641127E+03  0.00000000000E+00 0.  1.
         21    1    1    2  502  501 -0.19437905930E+02  0.27900437950E+02  0.19557292193E+02  0.39226958876E+02  0.00000000000E+00 0. -1.
<scales pt_clust_4="550.00000" pt_clust_5="550.00000" pt_clust_6="34.00392"></scales>
<mgrwt>
<rscale>  0 0.30000000E+03</rscale>
<asrwt>  1 0.34003921E+02</asrwt>
<pdfrwt beam="1">  1        1 0.94455675E+00 0.30000000E+03</pdfrwt>
<pdfrwt beam="2">0</pdfrwt>
<totfact> 0.15941698E-05</totfact>
</mgrwt>
<clustering>
<clus scale="   34.004">  1  6  2 -1</clus>
<clus scale="  493.131">  4  5 -1 -1</clus>
<clus scale="  300.000">  1  4  2 -1</clus>
</clustering>
</event>
<event>
 6    1  0.9462926E-012  0.3000000E+03  0.7818608E-02  0.1093470E+00
          1   -1    0    0  502    0  0.00000000000E+00  0.00000000000E+00  0.23997032596E+03  0.23997032596E+03  0.00000000000E+00 0.  1.
         13   -1    0    0    0    0 -0.00000000000E+00 -0.00000000000E+00 -0.27500000000E+03  0.27500000000E+03  0.00000000000E+00 0.  1.
    9000005    2    1    2  501    0 -0.18631637472E+02 -0.35258695855E+02 -0.21358770906E+02  0.47281339128E+03  0.47064423117E+03 0.  0.
         13    1    3    3    0    0 -0.11202193711E+02  0.10127339446E+03 -0.21374396252E+03  0.23678739638E+03  0.00000000000E+00 0.  1.
          3    1    3    3  501    0 -0.74294437611E+01 -0.13653209032E+03  0.19238519161E+03  0.23602599491E+03  0.00000000000E+00 0.  1.
         21    1    1    2  502  501  0.18631637472E+02  0.35258695855E+02 -0.13670903139E+02  0.42156934672E+02  0.00000000000E+00 0. -1.
<scales pt_clust_4="550.00000" pt_clust_5="550.00000" pt_clust_6="39.87876"></scales>
<mgrwt>
<rscale>  0 0.30000000E+03</rscale>
<asrwt>  1 0.39878755E+02</asrwt>
<pdfrwt beam="1">  1        1 0.87261937E+00 0.30000000E+03</pdfrwt>
<pdfrwt beam="2">0</pdfrwt>
<totfact> 0.23244092E-04</totfact>
</mgrwt>
<clustering>
<clus scale="   39.879">  1  6  2 -1</clus>
<clus scale="  470.644">  4  5 -1 -1</clus>
<clus scale="  300.000">  1  4  2 -1</clus>
</clustering>
</event>
<event>
 6    1  0.9462926E-012  0.3000000E+03  0.7818608E-02  0.1093470E+00
          1   -1    0    0  502    0  0.00000000000E+00  0.00000000000E+00  0.24105211816E+03  0.24105211816E+03  0.00000000000E+00 0.  1.
         13   -1    0    0    0    0 -0.00000000000E+00 -0.00000000000E+00 -0.27500000000E+03  0.27500000000E+03  0.00000000000E+00 0.  1.
    9000005    2    1    2  501    0 -0.22662730401E+02 -0.31364943117E+02 -0.54774950487E+02  0.47210754177E+03  0.46731988700E+03 0.  0.
         13    1    3    3    0    0 -0.15365058197E+03 -0.15986656118E+03 -0.14770160612E+03  0.26642369109E+03  0.00000000000E+00 0.  1.
          3    1    3    3  501    0  0.13098785157E+03  0.12850161806E+03  0.92926655631E+02  0.20568385068E+03  0.00000000000E+00 0.  1.
         21    1    1    2  502  501  0.22662730401E+02  0.31364943117E+02  0.20827068644E+02  0.43944576392E+02  0.00000000000E+00 0.  1.
<scales pt_clust_4="550.00000" pt_clust_5="550.00000" pt_clust_6="38.69572"></scales>
<mgrwt>
<rscale>  0 0.30000000E+03</rscale>
<asrwt>  1 0.38695723E+02</asrwt>
<pdfrwt beam="1">  1        1 0.87655316E+00 0.30000000E+03</pdfrwt>
<pdfrwt beam="2">0</pdfrwt>
<totfact> 0.21244584E-04</totfact>
</mgrwt>
<clustering>
<clus scale="   38.696">  1  6  2 -1</clus>
<clus scale="  467.320">  4  5 -1 -1</clus>
<clus scale="  300.000">  1  4  2 -1</clus>
</clustering>
</event>
<event>
 6    1  0.9462926E-012  0.3000000E+03  0.7818608E-02  0.1093470E+00
          1   -1    0    0  502    0  0.00000000000E+00  0.00000000000E+00  0.23600281244E+03  0.23600281244E+03  0.00000000000E+00 0.  1.
         13   -1    0    0    0    0 -0.00000000000E+00 -0.00000000000E+00 -0.27500000000E+03  0.27500000000E+03  0.00000000000E+00 0.  1.
    9000005    2    1    2  501    0  0.22169279809E+02  0.44612710403E+02 -0.41032092095E+02  0.46114389415E+03  0.45660517697E+03 0.  0.
         13    1    3    3    0    0  0.19657379620E+03  0.71454348914E+02  0.10320708323E+03  0.23323525325E+03  0.00000000000E+00 0.  1.
          3    1    3    3  501    0 -0.17440451639E+03 -0.26841638511E+02 -0.14423917533E+03  0.22790864090E+03  0.00000000000E+00 0.  1.
         21    1    1    2  502  501 -0.22169279809E+02 -0.44612710403E+02  0.20349045365E+01  0.49858918292E+02  0.00000000000E+00 0.  1.
<scales pt_clust_4="550.00000" pt_clust_5="550.00000" pt_clust_6="49.81738"></scales>
<mgrwt>
<rscale>  0 0.30000000E+03</rscale>
<asrwt>  1 0.49817375E+02</asrwt>
<pdfrwt beam="1">  1        1 0.85819205E+00 0.30000000E+03</pdfrwt>
<pdfrwt beam="2">0</pdfrwt>
<totfact> 0.31707798E-04</totfact>
</mgrwt>
<clustering>
<clus scale="   49.817">  1  6  2 -1</clus>
<clus scale="  456.605">  4  5 -1 -1</clus>
<clus scale="  300.000">  1  4  2 -1</clus>
</clustering>
</event>
<event>
 6    1  0.9462926E-012  0.3000000E+03  0.7818608E-02  0.1093470E+00
          1   -1    0    0  502    0  0.00000000000E+00  0.00000000000E+00  0.23606029547E+03  0.23606029547E+03  0.00000000000E+00 0.  1.
         13   -1    0    0    0    0 -0.00000000000E+00 -0.00000000000E+00 -0.27500000000E+03  0.27500000000E+03  0.00000000000E+00 0.  1.
    9000005    2    1    2  501    0  0.23863465181E+02  0.24823113990E+02 -0.57337600936E+02  0.47202012961E+03  0.46725769155E+03 0.  0.
         13    1    3    3    0    0 -0.20886941038E+03 -0.29841426094E+02  0.38472705560E+02  0.21446932270E+03  0.00000000000E+00 0.  1.
          3    1    3    3  501    0  0.23273287556E+03  0.54664540083E+02 -0.95810306496E+02  0.25755080691E+03  0.00000000000E+00 0.  1.
         21    1    1    2  502  501 -0.23863465181E+02 -0.24823113990E+02  0.18397896411E+02  0.39040165868E+02  0.00000000000E+00 0. -1.
<scales pt_clust_4="550.00000" pt_clust_5="550.00000" pt_clust_6="34.43330"></scales>
<mgrwt>
<rscale>  0 0.30000000E+03</rscale>
<asrwt>  1 0.34433297E+02</asrwt>
<pdfrwt beam="1">  1        1 0.85840107E+00 0.30000000E+03</pdfrwt>
<pdfrwt beam="2">0</pdfrwt>
<totfact> 0.33734503E-04</totfact>
</mgrwt>
<clustering>
<clus scale="   34.433">  1  6  2 -1</clus>
<clus scale="  467.258">  4  5 -1 -1</clus>
<clus scale="  300.000">  1  4  2 -1</clus>
</clustering>
</event>
<event>
 6    1  0.9462926E-012  0.3000000E+03  0.7818608E-02  0.1093470E+00
          1   -1    0    0  502    0  0.00000000000E+00  0.00000000000E+00  0.24301395499E+03  0.24301395499E+03  0.00000000000E+00 0.  1.
         13   -1    0    0    0    0 -0.00000000000E+00 -0.00000000000E+00 -0.27500000000E+03  0.27500000000E+03  0.00000000000E+00 0.  1.
    9000005    2    1    2  501    0  0.31509364786E+02  0.12482517039E+02 -0.55674988591E+02  0.47666399309E+03  0.47218662058E+03 0.  0.
         13    1    3    3    0    0  0.80415835313E+02  0.25546767047E+02 -0.25625815844E+03  0.26979174866E+03  0.00000000000E+00 0.  1.
          1    1    3    3  501    0 -0.48906470527E+02 -0.13064250008E+02  0.20058316985E+03  0.20687224443E+03  0.00000000000E+00 0.  1.
         21    1    1    2  502  501 -0.31509364786E+02 -0.12482517039E+02  0.23688943576E+02  0.41349961894E+02  0.00000000000E+00 0. -1.
<scales pt_clust_4="550.00000" pt_clust_5="550.00000" pt_clust_6="33.89179"></scales>
<mgrwt>
<rscale>  0 0.30000000E+03</rscale>
<asrwt>  1 0.33891788E+02</asrwt>
<pdfrwt beam="1">  1        1 0.88368711E+00 0.30000000E+03</pdfrwt>
<pdfrwt beam="2">0</pdfrwt>
<totfact> 0.17789766E-04</totfact>
</mgrwt>
<clustering>
<clus scale="   33.892">  1  6  2 -1</clus>
<clus scale="  472.187">  4  5 -1 -1</clus>
<clus scale="  300.000">  1  4  2 -1</clus>
</clustering>
</event>
<event>
 6    1  0.9462926E-012  0.3000000E+03  0.7818608E-02  0.1093470E+00
          1   -1    0    0  502    0  0.00000000000E+00  0.00000000000E+00  0.23625421319E+03  0.23625421319E+03  0.00000000000E+00 0.  1.
         13   -1    0    0    0    0 -0.00000000000E+00 -0.00000000000E+00 -0.27500000000E+03  0.27500000000E+03  0.00000000000E+00 0.  1.
    9000005    2    1    2  501    0 -0.11806423300E+02  0.30362045654E+02 -0.57780695898E+02  0.47352394402E+03  0.46885506427E+03 0.  0.
         13    1    3    3    0    0  0.18000985268E+03 -0.12194122113E+03  0.15198298323E+02  0.21795457496E+03  0.00000000000E+00 0.  1.
          1    1    3    3  501    0 -0.19181627598E+03  0.15230326678E+03 -0.72978994222E+02  0.25556936906E+03  0.00000000000E+00 0.  1.
         21    1    1    2  502  501  0.11806423300E+02 -0.30362045654E+02  0.19034909087E+02  0.37730269167E+02  0.00000000000E+00 0. -1.
<scales pt_clust_4="550.00000" pt_clust_5="550.00000" pt_clust_6="32.57676"></scales>
<mgrwt>
<rscale>  0 0.30000000E+03</rscale>
<asrwt>  1 0.32576762E+02</asrwt>
<pdfrwt beam="1">  1        1 0.85910623E+00 0.30000000E+03</pdfrwt>
<pdfrwt beam="2">0</pdfrwt>
<totfact> 0.33510936E-04</totfact>
</mgrwt>
<clustering>
<clus scale="   32.577">  1  6  2 -1</clus>
<clus scale="  468.855">  4  5 -1 -1</clus>
<clus scale="  300.000">  1  4  2 -1</clus>
</clustering>
</event>
<event>
 6    1  0.9462926E-012  0.3000000E+03  0.7818608E-02  0.1093470E+00
          1   -1    0    0  502    0  0.00000000000E+00  0.00000000000E+00  0.23146962240E+03  0.23146962240E+03  0.00000000000E+00 0.  1.
         13   -1    0    0    0    0 -0.00000000000E+00 -0.00000000000E+00 -0.27500000000E+03  0.27500000000E+03  0.00000000000E+00 0.  1.
    9000005    2    1    2  501    0 -0.20603360975E+02  0.21818889490E+02 -0.68170907387E+02  0.46764027615E+03  0.46167043748E+03 0.  0.
         13    1    3    3    0    0  0.11432130133E+03 -0.94572244735E+02  0.13274976701E+03  0.19908734277E+03  0.00000000000E+00 0.  1.
          1    1    3    3  501    0 -0.13492466231E+03  0.11639113423E+03 -0.20092067439E+03  0.26855293337E+03  0.00000000000E+00 0.  1.
         21    1    1    2  502  501  0.20603360975E+02 -0.21818889490E+02  0.24640529782E+02  0.38829346247E+02  0.00000000000E+00 0. -1.
<scales pt_clust_4="550.00000" pt_clust_5="550.00000" pt_clust_6="30.00937"></scales>
<mgrwt>
<rscale>  0 0.30000000E+03</rscale>
<asrwt>  1 0.30009372E+02</asrwt>
<pdfrwt beam="1">  1        1 0.84170772E+00 0.30000000E+03</pdfrwt>
<pdfrwt beam="2">0</pdfrwt>
<totfact> 0.49610045E-04</totfact>
</mgrwt>
<clustering>
<clus scale="   30.009">  1  6  2 -1</clus>
<clus scale="  461.670">  4  5 -1 -1</clus>
<clus scale="  300.000">  1  4  2 -1</clus>
</clustering>
</event>
<event>
 6    1  0.9462926E-012  0.3000000E+03  0.7818608E-02  0.1093470E+00
          1   -1    0    0  502    0  0.00000000000E+00  0.00000000000E+00  0.23820872600E+03  0.23820872600E+03  0.00000000000E+00 0.  1.
         13   -1    0    0    0    0 -0.00000000000E+00 -0.00000000000E+00 -0.27500000000E+03  0.27500000000E+03  0.00000000000E+00 0.  1.
    9000005    2    1    2  501    0 -0.34110596861E+02  0.21546045532E+02 -0.32733425689E+02  0.47265960728E+03  0.46979555372E+03 0.  0.
         13    1    3    3    0    0 -0.36541402451E+02 -0.11782062336E+02  0.21716702537E+03  0.22053482264E+03  0.00000000000E+00 0.  1.
          1    1    3    3  501    0  0.24308055897E+01  0.33328107868E+02 -0.24990045106E+03  0.25212478464E+03  0.00000000000E+00 0.  1.
         21    1    1    2  502  501  0.34110596861E+02 -0.21546045532E+02 -0.40578483115E+01  0.40549118723E+02  0.00000000000E+00 0. -1.
<scales pt_clust_4="550.00000" pt_clust_5="550.00000" pt_clust_6="40.34559"></scales>
<mgrwt>
<rscale>  0 0.30000000E+03</rscale>
<asrwt>  1 0.40345589E+02</asrwt>
<pdfrwt beam="1">  1        1 0.86621355E+00 0.30000000E+03</pdfrwt>
<pdfrwt beam="2">0</pdfrwt>
<totfact> 0.27009880E-04</totfact>
</mgrwt>
<clustering>
<clus scale="   40.346">  1  6  2 -1</clus>
<clus scale="  469.796">  4  5 -1 -1</clus>
<clus scale="  300.000">  1  4  2 -1</clus>
</clustering>
</event>
<event>
 6    1  0.9462926E-012  0.3000000E+03  0.7818608E-02  0.1093470E+00
          1   -1    0    0  502    0  0.00000000000E+00  0.00000000000E+00  0.21858319004E+03  0.21858319004E+03  0.00000000000E+00 0.  1.
         13   -1    0    0    0    0 -0.00000000000E+00 -0.00000000000E+00 -0.27500000000E+03  0.27500000000E+03  0.00000000000E+00 0.  1.
    9000005    2    1    2  501    0 -0.28387207059E+02  0.14700975173E+02 -0.50632068262E+02  0.46109603209E+03  0.45719141754E+03 0.  0.
         13    1    3    3    0    0  0.99570050573E+02 -0.18579723819E+03  0.23155180865E+02  0.21206360152E+03  0.00000000000E+00 0.  1.
          3    1    3    3  501    0 -0.12795725763E+03  0.20049821336E+03 -0.73787249127E+02  0.24903243057E+03  0.00000000000E+00 0.  1.
         21    1    1    2  502  501  0.28387207059E+02 -0.14700975173E+02 -0.57847416943E+01  0.32487157956E+02  0.00000000000E+00 0.  1.
<scales pt_clust_4="550.00000" pt_clust_5="550.00000" pt_clust_6="31.96800"></scales>
<mgrwt>
<rscale>  0 0.30000000E+03</rscale>
<asrwt>  1 0.31968003E+02</asrwt>
<pdfrwt beam="1">  1        1 0.79484796E+00 0.30000000E+03</pdfrwt>
<pdfrwt beam="2">0</pdfrwt>
<totfact> 0.11505534E-03</totfact>
</mgrwt>
<clustering>
<clus scale="   31.968">  1  6  2 -1</clus>
<clus scale="  457.191">  4  5 -1 -1</clus>
<clus scale="  300.000">  1  4  2 -1</clus>
</clustering>
</event>
<event>
 6    1  0.9462926E-012  0.3000000E+03  0.7818608E-02  0.1093470E+00
          1   -1    0    0  502    0  0.00000000000E+00  0.00000000000E+00  0.24596757656E+03  0.24596757656E+03  0.00000000000E+00 0.  1.
         13   -1    0    0    0    0 -0.00000000000E+00 -0.00000000000E+00 -0.27500000000E+03  0.27500000000E+03  0.00000000000E+00 0.  1.
    9000005    2    1    2  501    0 -0.31289256229E+02 -0.31333388661E+01 -0.37481708758E+02  0.48840646801E+03  0.48594975474E+03 0.  0.
         13    1    3    3    0    0  0.18398167564E+03 -0.10636415609E+03  0.73850241733E+02  0.22498099670E+03  0.00000000000E+00 0.  1.
          3    1    3    3  501    0 -0.21527093187E+03  0.10323081723E+03 -0.11133195049E+03  0.26342547131E+03  0.00000000000E+00 0.  1.
         21    1    1    2  502  501  0.31289256229E+02  0.31333388661E+01  0.84492853210E+01  0.32561108554E+02  0.00000000000E+00 0. -1.
<scales pt_clust_4="550.00000" pt_clust_5="550.00000" pt_clust_6="31.44575"></scales>
<mgrwt>
<rscale>  0 0.30000000E+03</rscale>
<asrwt>  1 0.31445753E+02</asrwt>
<pdfrwt beam="1">  1        1 0.89442755E+00 0.30000000E+03</pdfrwt>
<pdfrwt beam="2">0</pdfrwt>
<totfact> 0.13059454E-04</totfact>
</mgrwt>
<clustering>
<clus scale="   31.446">  1  6  2 -1</clus>
<clus scale="  485.950">  4  5 -1 -1</clus>
<clus scale="  300.000">  1  4  2 -1</clus>
</clustering>
</event>
<event>
 6    1  0.9462926E-012  0.3000000E+03  0.7818608E-02  0.1093470E+00
          1   -1    0    0  502    0  0.00000000000E+00  0.00000000000E+00  0.22221695328E+03  0.22221695328E+03  0.00000000000E+00 0.  1.
         13   -1    0    0    0    0 -0.00000000000E+00 -0.00000000000E+00 -0.27500000000E+03  0.27500000000E+03  0.00000000000E+00 0.  1.
    9000005    2    1    2  501    0  0.29601140463E+02 -0.66022219897E+01 -0.54881531545E+02  0.46681595839E+03  0.46258549442E+03 0.  0.
         13    1    3    3    0    0  0.14575269009E+03  0.51892497939E+02  0.15558211833E+03  0.21941393200E+03  0.00000000000E+00 0.  1.
          1    1    3    3  501    0 -0.11615154963E+03 -0.58494719929E+02 -0.21046364988E+03  0.24740202639E+03  0.00000000000E+00 0.  1.
         21    1    1    2  502  501 -0.29601140463E+02  0.66022219897E+01  0.20984848272E+01  0.30400994893E+02  0.00000000000E+00 0. -1.
<scales pt_clust_4="550.00000" pt_clust_5="550.00000" pt_clust_6="30.32848"></scales>
<mgrwt>
<rscale>  0 0.30000000E+03</rscale>
<asrwt>  1 0.30328483E+02</asrwt>
<pdfrwt beam="1">  1        1 0.80806165E+00 0.30000000E+03</pdfrwt>
<pdfrwt beam="2">0</pdfrwt>
<totfact> 0.92771956E-04</totfact>
</mgrwt>
<clustering>
<clus scale="   30.328">  1  6  2 -1</clus>
<clus scale="  462.585">  4  5 -1 -1</clus>
<clus scale="  300.000">  1  4  2 -1</clus>
</clustering>
</event>
<event>
 6    1  0.9462926E-012  0.3000000E+03  0.7818608E-02  0.1093470E+00
          1   -1    0    0  502    0  0.00000000000E+00  0.00000000000E+00  0.22581993949E+03  0.22581993949E+03  0.00000000000E+00 0.  1.
         13   -1    0    0    0    0 -0.00000000000E+00 -0.00000000000E+00 -0.27500000000E+03  0.27500000000E+03  0.00000000000E+00 0.  1.
    9000005    2    1    2  501    0  0.27368332136E+02 -0.13321403276E+02 -0.58285424076E+02  0.46904899310E+03  0.46441714210E+03 0.  0.
         13    1    3    3    0    0  0.21922085880E+02  0.21193034139E+03  0.50320038630E+02  0.21892271179E+03  0.00000000000E+00 0.  1.
          3    1    3    3  501    0  0.54462462561E+01 -0.22525174466E+03 -0.10860546271E+03  0.25012628131E+03  0.00000000000E+00 0.  1.
         21    1    1    2  502  501 -0.27368332136E+02  0.13321403276E+02  0.91053635683E+01  0.31770946396E+02  0.00000000000E+00 0. -1.
<scales pt_clust_4="550.00000" pt_clust_5="550.00000" pt_clust_6="30.43822"></scales>
<mgrwt>
<rscale>  0 0.30000000E+03</rscale>
<asrwt>  1 0.30438223E+02</asrwt>
<pdfrwt beam="1">  1        1 0.82116342E+00 0.30000000E+03</pdfrwt>
<pdfrwt beam="2">0</pdfrwt>
<totfact> 0.72552769E-04</totfact>
</mgrwt>
<clustering>
<clus scale="   30.438">  1  6  2 -1</clus>
<clus scale="  464.417">  4  5 -1 -1</clus>
<clus scale="  300.000">  1  4  2 -1</clus>
</clustering>
</event>
<event>
 6    1  0.9462926E-012  0.3000000E+03  0.7818608E-02  0.1093470E+00
          1   -1    0    0  502    0  0.00000000000E+00  0.00000000000E+00  0.25201019715E+03  0.25201019715E+03  0.00000000000E+00 0.  1.
         13   -1    0    0    0    0 -0.00000000000E+00 -0.00000000000E+00 -0.27500000000E+03  0.27500000000E+03  0.00000000000E+00 0.  1.
    9000005    2    1    2  501    0 -0.22479931849E+01  0.35264207519E+02 -0.33717497612E+02  0.49008187143E+03  0.48764203393E+03 0.  0.
         13    1    3    3    0    0 -0.83075783143E+02 -0.16169167382E+03  0.12833971775E+03  0.22252385553E+03  0.00000000000E+00 0.  1.
          3    1    3    3  501    0  0.80827789959E+02  0.19695588134E+03 -0.16205721536E+03  0.26755801590E+03  0.00000000000E+00 0.  1.
         21    1    1    2  502  501  0.22479931849E+01 -0.35264207519E+02  0.10727694762E+02  0.36928325716E+02  0.00000000000E+00 0.  1.
<scales pt_clust_4="550.00000" pt_clust_5="550.00000" pt_clust_6="35.33579"></scales>
<mgrwt>
<rscale>  0 0.30000000E+03</rscale>
<asrwt>  1 0.35335786E+02</asrwt>
<pdfrwt beam="1">  1        1 0.91640072E+00 0.30000000E+03</pdfrwt>
<pdfrwt beam="2">0</pdfrwt>
<totfact> 0.50180758E-05</totfact>
</mgrwt>
<clustering>
<clus scale="   35.336">  1  6  2 -1</clus>
<clus scale="  487.642">  4  5 -1 -1</clus>
<clus scale="  300.000">  1  4  2 -1</clus>
</clustering>
</event>
<event>
 6    1  0.9462926E-012  0.3000000E+03  0.7818608E-02  0.1093470E+00
          1   -1    0    0  502    0  0.00000000000E+00  0.00000000000E+00  0.22721308395E+03  0.22721308395E+03  0.00000000000E+00 0.  1.
         13   -1    0    0    0    0 -0.00000000000E+00 -0.00000000000E+00 -0.27500000000E+03  0.27500000000E+03  0.00000000000E+00 0.  1.
    9000005    2    1    2  501    0 -0.18671416837E+01  0.35635999774E+02 -0.58765268844E+02  0.46487764598E+03  0.45976565576E+03 0.  0.
         13    1    3    3    0    0  0.21080706884E+03 -0.59517333279E+02  0.17441453952E+02  0.21974106933E+03  0.00000000000E+00 0.  1.
          3    1    3    3  501    0 -0.21267421052E+03  0.95153333053E+02 -0.76206722796E+02  0.24513657665E+03  0.00000000000E+00 0.  1.
         21    1    1    2  502  501  0.18671416837E+01 -0.35635999774E+02  0.10978352789E+02  0.37335437963E+02  0.00000000000E+00 0. -1.
<scales pt_clust_4="550.00000" pt_clust_5="550.00000" pt_clust_6="35.68488"></scales>
<mgrwt>
<rscale>  0 0.30000000E+03</rscale>
<asrwt>  1 0.35684881E+02</asrwt>
<pdfrwt beam="1">  1        1 0.82622940E+00 0.30000000E+03</pdfrwt>
<pdfrwt beam="2">0</pdfrwt>
<totfact> 0.63462394E-04</totfact>
</mgrwt>
<clustering>
<clus scale="   35.685">  1  6  2 -1</clus>
<clus scale="  459.766">  4  5 -1 -1</clus>
<clus scale="  300.000">  1  4  2 -1</clus>
</clustering>
</event>
<event>
 6    1  0.9462926E-012  0.3000000E+03  0.7818608E-02  0.1093470E+00
          1   -1    0    0  502    0  0.00000000000E+00  0.00000000000E+00  0.22400532119E+03  0.22400532119E+03  0.00000000000E+00 0.  1.
         13   -1    0    0    0    0 -0.00000000000E+00 -0.00000000000E+00 -0.27500000000E+03  0.27500000000E+03  0.00000000000E+00 0.  1.
    9000005    2    1    2  501    0  0.20765776497E+02  0.21894005577E+02 -0.70963157526E+02  0.46282100006E+03  0.45635177595E+03 0.  0.
         13    1    3    3    0    0  0.17464839995E+03  0.67580840515E+02 -0.18708021775E+03  0.26470406397E+03  0.00000000000E+00 0.  1.
          1    1    3    3  501    0 -0.15388262345E+03 -0.45686834938E+02  0.11611706023E+03  0.19811693608E+03  0.00000000000E+00 0.  1.
         21    1    1    2  502  501 -0.20765776497E+02 -0.21894005577E+02  0.19968478717E+02  0.36184321135E+02  0.00000000000E+00 0.  1.
<scales pt_clust_4="550.00000" pt_clust_5="550.00000" pt_clust_6="30.17557"></scales>
<mgrwt>
<rscale>  0 0.30000000E+03</rscale>
<asrwt>  1 0.30175569E+02</asrwt>
<pdfrwt beam="1">  1        1 0.81456480E+00 0.30000000E+03</pdfrwt>
<pdfrwt beam="2">0</pdfrwt>
<totfact> 0.82540023E-04</totfact>
</mgrwt>
<clustering>
<clus scale="   30.176">  1  6  2 -1</clus>
<clus scale="  456.352">  4  5 -1 -1</clus>
<clus scale="  300.000">  1  4  2 -1</clus>
</clustering>
</event>
<event>
 6    1  0.9462926E-012  0.3000000E+03  0.7818608E-02  0.1093470E+00
          1   -1    0    0  502    0  0.00000000000E+00  0.00000000000E+00  0.22557342839E+03  0.22557342839E+03  0.00000000000E+00 0.  1.
         13   -1    0    0    0    0 -0.00000000000E+00 -0.00000000000E+00 -0.27500000000E+03  0.27500000000E+03  0.00000000000E+00 0.  1.
    9000005    2    1    2  501    0  0.23005038289E+02  0.19635146981E+02 -0.67873991970E+02  0.46514634692E+03  0.45917259771E+03 0.  0.
         13    1    3    3    0    0 -0.12184317774E+03  0.87810916789E+02  0.13826674507E+03  0.20414262138E+03  0.00000000000E+00 0.  1.
          1    1    3    3  501    0  0.14484821603E+03 -0.68175769808E+02 -0.20614073705E+03  0.26100372554E+03  0.00000000000E+00 0.  1.
         21    1    1    2  502  501 -0.23005038289E+02 -0.19635146981E+02  0.18447420364E+02  0.35427081473E+02  0.00000000000E+00 0. -1.
<scales pt_clust_4="550.00000" pt_clust_5="550.00000" pt_clust_6="30.24518"></scales>
<mgrwt>
<rscale>  0 0.30000000E+03</rscale>
<asrwt>  1 0.30245178E+02</asrwt>
<pdfrwt beam="1">  1        1 0.82026701E+00 0.30000000E+03</pdfrwt>
<pdfrwt beam="2">0</pdfrwt>
<totfact> 0.73964157E-04</totfact>
</mgrwt>
<clustering>
<clus scale="   30.245">  1  6  2 -1</clus>
<clus scale="  459.173">  4  5 -1 -1</clus>
<clus scale="  300.000">  1  4  2 -1</clus>
</clustering>
</event>
<event>
 6    1  0.9462926E-012  0.3000000E+03  0.7818608E-02  0.1093470E+00
          1   -1    0    0  502    0  0.00000000000E+00  0.00000000000E+00  0.23546654027E+03  0.23546654027E+03  0.00000000000E+00 0.  1.
         13   -1    0    0    0    0 -0.00000000000E+00 -0.00000000000E+00 -0.27500000000E+03  0.27500000000E+03  0.00000000000E+00 0.  1.
    9000005    2    1    2  501    0  0.32222283823E+02  0.33418099343E+01 -0.59739559307E+02  0.47228631334E+03  0.46737148346E+03 0.  0.
         13    1    3    3    0    0  0.98959029765E+02 -0.21686544409E+03 -0.32476206081E+02  0.24057891507E+03  0.00000000000E+00 0.  1.
          3    1    3    3  501    0 -0.66736745942E+02  0.22020725403E+03 -0.27263353226E+02  0.23170739827E+03  0.00000000000E+00 0.  1.
         21    1    1    2  502  501 -0.32222283823E+02 -0.33418099343E+01  0.20206099580E+02  0.38180226933E+02  0.00000000000E+00 0.  1.
<scales pt_clust_4="550.00000" pt_clust_5="550.00000" pt_clust_6="32.39511"></scales>
<mgrwt>
<rscale>  0 0.30000000E+03</rscale>
<asrwt>  1 0.32395112E+02</asrwt>
<pdfrwt beam="1">  1        1 0.85624196E+00 0.30000000E+03</pdfrwt>
<pdfrwt beam="2">0</pdfrwt>
<totfact> 0.35922564E-04</totfact>
</mgrwt>
<clustering>
<clus scale="   32.395">  1  6  2 -1</clus>
<clus scale="  467.371">  4  5 -1 -1</clus>
<clus scale="  300.000">  1  4  2 -1</clus>
</clustering>
</event>
<event>
 6    1  0.9462926E-012  0.3000000E+03  0.7818608E-02  0.1093470E+00
          1   -1    0    0  502    0  0.00000000000E+00  0.00000000000E+00  0.23950459282E+03  0.23950459282E+03  0.00000000000E+00 0.  1.
         13   -1    0    0    0    0 -0.00000000000E+00 -0.00000000000E+00 -0.27500000000E+03  0.27500000000E+03  0.00000000000E+00 0.  1.
    9000005    2    1    2  501    0  0.51533927214E+02 -0.10003594393E+02 -0.42502984753E+02  0.46154306246E+03  0.45657384642E+03 0.  0.
         13    1    3    3    0    0 -0.25642310952E+02  0.17113270380E+03  0.11638176929E+03  0.20853931678E+03  0.00000000000E+00 0.  1.
          3    1    3    3  501    0  0.77176238166E+02 -0.18113629819E+03 -0.15888475404E+03  0.25300374568E+03  0.00000000000E+00 0.  1.
         21    1    1    2  502  501 -0.51533927214E+02  0.10003594393E+02  0.70075775723E+01  0.52961530362E+02  0.00000000000E+00 0.  1.
<scales pt_clust_4="550.00000" pt_clust_5="550.00000" pt_clust_6="52.49588"></scales>
<mgrwt>
<rscale>  0 0.30000000E+03</rscale>
<asrwt>  1 0.52495881E+02</asrwt>
<pdfrwt beam="1">  1        1 0.87092579E+00 0.30000000E+03</pdfrwt>
<pdfrwt beam="2">0</pdfrwt>
<totfact> 0.23033280E-04</totfact>
</mgrwt>
<clustering>
<clus scale="   52.496">  1  6  2 -1</clus>
<clus scale="  456.574">  4  5 -1 -1</clus>
<clus scale="  300.000">  1  4  2 -1</clus>
</clustering>
</event>
<event>
 6    1  0.9462926E-012  0.3000000E+03  0.7818608E-02  0.1093470E+00
          1   -1    0    0  502    0  0.00000000000E+00  0.00000000000E+00  0.24778301565E+03  0.24778301565E+03  0.00000000000E+00 0.  1.
         13   -1    0    0    0    0 -0.00000000000E+00 -0.00000000000E+00 -0.27500000000E+03  0.27500000000E+03  0.00000000000E+00 0.  1.
    9000005    2    1    2  501    0 -0.28135142187E+02  0.22707776686E+02 -0.44301524679E+02  0.48279413137E+03  0.47939578518E+03 0.  0.
         13    1    3    3    0    0 -0.17642969990E+03 -0.16346532045E+03 -0.45459011890E+02  0.24477514531E+03  0.00000000000E+00 0.  1.
          3    1    3    3  501    0  0.14829455772E+03  0.18617309714E+03  0.11574872107E+01  0.23801898606E+03  0.00000000000E+00 0.  1.
         21    1    1    2  502  501  0.28135142187E+02 -0.22707776686E+02  0.17084540331E+02  0.39988884284E+02  0.00000000000E+00 0.  1.
<scales pt_clust_4="550.00000" pt_clust_5="550.00000" pt_clust_6="36.15563"></scales>
<mgrwt>
<rscale>  0 0.30000000E+03</rscale>
<asrwt>  1 0.36155627E+02</asrwt>
<pdfrwt beam="1">  1        1 0.90102915E+00 0.30000000E+03</pdfrwt>
<pdfrwt beam="2">0</pdfrwt>
<totfact> 0.10644809E-04</totfact>
</mgrwt>
<clustering>
<clus scale="   36.156">  1  6  2 -1</clus>
<clus scale="  479.396">  4  5 -1 -1</clus>
<clus scale="  300.000">  1  4  2 -1</clus>
</clustering>
</event>
<event>
 6    1  0.9462926E-012  0.3000000E+03  0.7818608E-02  0.1093470E+00
          1   -1    0    0  502    0  0.00000000000E+00  0.00000000000E+00  0.23397757378E+03  0.23397757378E+03  0.00000000000E+00 0.  1.
         13   -1    0    0    0    0 -0.00000000000E+00 -0.00000000000E+00 -0.27500000000E+03  0.27500000000E+03  0.00000000000E+00 0.  1.
    9000005    2    1    2  501    0  0.13194162839E+02  0.33696112249E+02 -0.27803359317E+02  0.47045150931E+03  0.46823293553E+03 0.  0.
         13    1    3    3    0    0 -0.12746067076E+03  0.10219450503E+01  0.17806775667E+03  0.21898719810E+03  0.00000000000E+00 0.  1.
          1    1    3    3  501    0  0.14065483360E+03  0.32674167199E+02 -0.20587111599E+03  0.25146431122E+03  0.00000000000E+00 0.  1.
         21    1    1    2  502  501 -0.13194162839E+02 -0.33696112249E+02 -0.13219066900E+02  0.38526064469E+02  0.00000000000E+00 0. -1.
<scales pt_clust_4="550.00000" pt_clust_5="550.00000" pt_clust_6="36.18722"></scales>
<mgrwt>
<rscale>  0 0.30000000E+03</rscale>
<asrwt>  1 0.36187225E+02</asrwt>
<pdfrwt beam="1">  1        1 0.85082754E+00 0.30000000E+03</pdfrwt>
<pdfrwt beam="2">0</pdfrwt>
<totfact> 0.39726356E-04</totfact>
</mgrwt>
<clustering>
<clus scale="   36.187">  1  6  2 -1</clus>
<clus scale="  468.233">  4  5 -1 -1</clus>
<clus scale="  300.000">  1  4  2 -1</clus>
</clustering>
</event>
<event>
 6    1  0.9462926E-012  0.3000000E+03  0.7818608E-02  0.1093470E+00
          1   -1    0    0  502    0  0.00000000000E+00  0.00000000000E+00  0.24434062253E+03  0.24434062253E+03  0.00000000000E+00 0.  1.
         13   -1    0    0    0    0 -0.00000000000E+00 -0.00000000000E+00 -0.27500000000E+03  0.27500000000E+03  0.00000000000E+00 0.  1.
    9000005    2    1    2  501    0  0.26157456922E+02 -0.41304555556E+02 -0.49609177514E+02  0.46690615120E+03  0.46168171360E+03 0.  0.
         13    1    3    3    0    0 -0.19154579067E+03 -0.70816606909E+02  0.71092255915E+02  0.21623804150E+03  0.00000000000E+00 0.  1.
          1    1    3    3  501    0  0.21770324760E+03  0.29512051353E+02 -0.12070143343E+03  0.25066810970E+03  0.00000000000E+00 0.  1.
         21    1    1    2  502  501 -0.26157456922E+02  0.41304555556E+02  0.18949800042E+02  0.52434471333E+02  0.00000000000E+00 0. -1.
<scales pt_clust_4="550.00000" pt_clust_5="550.00000" pt_clust_6="48.89048"></scales>
<mgrwt>
<rscale>  0 0.30000000E+03</rscale>
<asrwt>  1 0.48890478E+02</asrwt>
<pdfrwt beam="1">  1        1 0.88851135E+00 0.30000000E+03</pdfrwt>
<pdfrwt beam="2">0</pdfrwt>
<totfact> 0.14289160E-04</totfact>
</mgrwt>
<clustering>
<clus scale="   48.890">  1  6  2 -1</clus>
<clus scale="  461.682">  4  5 -1 -1</clus>
<clus scale="  300.000">  1  4  2 -1</clus>
</clustering>
</event>
<event>
 6    1  0.9462926E-012  0.3000000E+03  0.7818608E-02  0.1093470E+00
          1   -1    0    0  502    0  0.00000000000E+00  0.00000000000E+00  0.22797664167E+03  0.22797664167E+03  0.00000000000E+00 0.  1.
         13   -1    0    0    0    0 -0.00000000000E+00 -0.00000000000E+00 -0.27500000000E+03  0.27500000000E+03  0.00000000000E+00 0.  1.
    9000005    2    1    2  501    0 -0.33689932902E+02  0.42992852546E+01 -0.32355741343E+02  0.46598158227E+03  0.46361454419E+03 0.  0.
         13    1    3    3    0    0  0.58411857205E+02 -0.12474169688E+03  0.16363960072E+03  0.21389332605E+03  0.00000000000E+00 0.  1.
          3    1    3    3  501    0 -0.92101790106E+02  0.12904098214E+03 -0.19599534207E+03  0.25208825622E+03  0.00000000000E+00 0.  1.
         21    1    1    2  502  501  0.33689932902E+02 -0.42992852546E+01 -0.14667616983E+02  0.36995059407E+02  0.00000000000E+00 0. -1.
<scales pt_clust_4="550.00000" pt_clust_5="550.00000" pt_clust_6="33.96317"></scales>
<mgrwt>
<rscale>  0 0.30000000E+03</rscale>
<asrwt>  1 0.33963165E+02</asrwt>
<pdfrwt beam="1">  1        1 0.82900597E+00 0.30000000E+03</pdfrwt>
<pdfrwt beam="2">0</pdfrwt>
<totfact> 0.60586204E-04</totfact>
</mgrwt>
<clustering>
<clus scale="   33.963">  1  6  2 -1</clus>
<clus scale="  463.615">  4  5 -1 -1</clus>
<clus scale="  300.000">  1  4  2 -1</clus>
</clustering>
</event>
<event>
 6    1  0.9462926E-012  0.3000000E+03  0.7818608E-02  0.1093470E+00
          1   -1    0    0  502    0  0.00000000000E+00  0.00000000000E+00  0.22377032308E+03  0.22377032308E+03  0.00000000000E+00 0.  1.
         13   -1    0    0    0    0 -0.00000000000E+00 -0.00000000000E+00 -0.27500000000E+03  0.27500000000E+03  0.00000000000E+00 0.  1.
    9000005    2    1    2  501    0  0.22031828336E+02 -0.20666180597E+02 -0.71016521959E+02  0.46265922068E+03  0.45617728528E+03 0.  0.
         13    1    3    3    0    0  0.14270345330E+03 -0.42336712775E+02  0.14911166097E+03  0.21069162364E+03  0.00000000000E+00 0.  1.
          1    1    3    3  501    0 -0.12067162496E+03  0.21670532178E+02 -0.22012818293E+03  0.25196759704E+03  0.00000000000E+00 0.  1.
         21    1    1    2  502  501 -0.22031828336E+02  0.20666180597E+02  0.19786845040E+02  0.36111102406E+02  0.00000000000E+00 0. -1.
<scales pt_clust_4="550.00000" pt_clust_5="550.00000" pt_clust_6="30.20749"></scales>
<mgrwt>
<rscale>  0 0.30000000E+03</rscale>
<asrwt>  1 0.30207490E+02</asrwt>
<pdfrwt beam="1">  1        1 0.81371027E+00 0.30000000E+03</pdfrwt>
<pdfrwt beam="2">0</pdfrwt>
<totfact> 0.83836701E-04</totfact>
</mgrwt>
<clustering>
<clus scale="   30.207">  1  6  2 -1</clus>
<clus scale="  456.177">  4  5 -1 -1</clus>
<clus scale="  300.000">  1  4  2 -1</clus>
</clustering>
</event>
<event>
 6    1  0.9462926E-012  0.3000000E+03  0.7818608E-02  0.1093470E+00
          1   -1    0    0  502    0  0.00000000000E+00  0.00000000000E+00  0.22809254051E+03  0.22809254051E+03  0.00000000000E+00 0.  1.
         13   -1    0    0    0    0 -0.00000000000E+00 -0.00000000000E+00 -0.27500000000E+03  0.27500000000E+03  0.00000000000E+00 0.  1.
    9000005    2    1    2  501    0  0.37173892584E+02  0.26862208489E+01 -0.60031898288E+02  0.46357842954E+03  0.45816156261E+03 0.  0.
         13    1    3    3    0    0 -0.17999928351E+03  0.94442393955E+02 -0.96498630054E+02  0.22501354058E+03  0.00000000000E+00 0.  1.
          1    1    3    3  501    0  0.21717317610E+03 -0.91756173106E+02  0.36466731766E+02  0.23856488896E+03  0.00000000000E+00 0.  1.
         21    1    1    2  502  501 -0.37173892584E+02 -0.26862208489E+01  0.13124438800E+02  0.39514110974E+02  0.00000000000E+00 0. -1.
<scales pt_clust_4="550.00000" pt_clust_5="550.00000" pt_clust_6="37.27082"></scales>
<mgrwt>
<rscale>  0 0.30000000E+03</rscale>
<asrwt>  1 0.37270821E+02</asrwt>
<pdfrwt beam="1">  1        1 0.82942742E+00 0.30000000E+03</pdfrwt>
<pdfrwt beam="2">0</pdfrwt>
<totfact> 0.59059209E-04</totfact>
</mgrwt>
<clustering>
<clus scale="   37.271">  1  6  2 -1</clus>
<clus scale="  458.162">  4  5 -1 -1</clus>
<clus scale="  300.000">  1  4  2 -1</clus>
</clustering>
</event>
<event>
 6    1  0.9462926E-012  0.3000000E+03  0.7818608E-02  0.1093470E+00
          1   -1    0    0  502    0  0.00000000000E+00  0.00000000000E+00  0.21927396550E+03  0.21927396550E+03  0.00000000000E+00 0.  1.
         13   -1    0    0    0    0 -0.00000000000E+00 -0.00000000000E+00 -0.27500000000E+03  0.27500000000E+03  0.00000000000E+00 0.  1.
    9000005    2    1    2  501    0  0.36857419623E+01  0.31692834295E+02 -0.56495998109E+02  0.46235824393E+03  0.45778305723E+03 0.  0.
         13    1    3    3    0    0 -0.16852432398E+03 -0.12588033918E+03 -0.85661763507E+02  0.22712165307E+03  0.00000000000E+00 0.  1.
          3    1    3    3  501    0  0.17221006594E+03  0.15757317347E+03  0.29165765399E+02  0.23523659086E+03  0.00000000000E+00 0.  1.
         21    1    1    2  502  501 -0.36857419623E+01 -0.31692834295E+02  0.76996361134E+00  0.31915721571E+02  0.00000000000E+00 0.  1.
<scales pt_clust_4="550.00000" pt_clust_5="550.00000" pt_clust_6="31.90643"></scales>
<mgrwt>
<rscale>  0 0.30000000E+03</rscale>
<asrwt>  1 0.31906433E+02</asrwt>
<pdfrwt beam="1">  1        1 0.79735987E+00 0.30000000E+03</pdfrwt>
<pdfrwt beam="2">0</pdfrwt>
<totfact> 0.11028532E-03</totfact>
</mgrwt>
<clustering>
<clus scale="   31.906">  1  6  2 -1</clus>
<clus scale="  457.783">  4  5 -1 -1</clus>
<clus scale="  300.000">  1  4  2 -1</clus>
</clustering>
</event>
<event>
 6    1  0.9462926E-012  0.3000000E+03  0.7818608E-02  0.1093470E+00
          1   -1    0    0  502    0  0.00000000000E+00  0.00000000000E+00  0.25195582997E+03  0.25195582997E+03  0.00000000000E+00 0.  1.
         13   -1    0    0    0    0 -0.00000000000E+00 -0.00000000000E+00 -0.27500000000E+03  0.27500000000E+03  0.00000000000E+00 0.  1.
    9000005    2    1    2  501    0  0.16898971099E+02  0.50450704550E+02 -0.35854959888E+02  0.47222955520E+03  0.46785075167E+03 0.  0.
         13    1    3    3    0    0 -0.63964028466E+02 -0.58715220413E+02 -0.22395666208E+03  0.24019879379E+03  0.00000000000E+00 0.  1.
          1    1    3    3  501    0  0.80862999565E+02  0.10916592496E+03  0.18810170220E+03  0.23203076141E+03  0.00000000000E+00 0.  1.
         21    1    1    2  502  501 -0.16898971099E+02 -0.50450704550E+02  0.12810789859E+02  0.54726274773E+02  0.00000000000E+00 0. -1.
<scales pt_clust_4="550.00000" pt_clust_5="550.00000" pt_clust_6="53.20572"></scales>
<mgrwt>
<rscale>  0 0.30000000E+03</rscale>
<asrwt>  1 0.53205722E+02</asrwt>
<pdfrwt beam="1">  1        1 0.91620302E+00 0.30000000E+03</pdfrwt>
<pdfrwt beam="2">0</pdfrwt>
<totfact> 0.47105992E-05</totfact>
</mgrwt>
<clustering>
<clus scale="   53.206">  1  6  2 -1</clus>
<clus scale="  467.851">  4  5 -1 -1</clus>
<clus scale="  300.000">  1  4  2 -1</clus>
</clustering>
</event>
<event>
 6    1  0.9462926E-012  0.3000000E+03  0.7818608E-02  0.1093470E+00
          1   -1    0    0  502    0  0.00000000000E+00  0.00000000000E+00  0.22143167572E+03  0.22143167572E+03  0.00000000000E+00 0.  1.
         13   -1    0    0    0    0 -0.00000000000E+00 -0.00000000000E+00 -0.27500000000E+03  0.27500000000E+03  0.00000000000E+00 0.  1.
    9000005    2    1    2  501    0 -0.22771727517E+02 -0.26167401597E+02 -0.43141264193E+02  0.46021002387E+03  0.45686848536E+03 0.  0.
         13    1    3    3    0    0  0.13988622435E+02 -0.16652234733E+03 -0.19050270518E+03  0.25341005189E+03  0.00000000000E+00 0.  1.
          1    1    3    3  501    0 -0.36760349952E+02  0.14035494573E+03  0.14736144099E+03  0.20679997198E+03  0.00000000000E+00 0.  1.
         21    1    1    2  502  501  0.22771727517E+02  0.26167401597E+02 -0.10427060086E+02  0.36221651847E+02  0.00000000000E+00 0.  1.
<scales pt_clust_4="550.00000" pt_clust_5="550.00000" pt_clust_6="34.68841"></scales>
<mgrwt>
<rscale>  0 0.30000000E+03</rscale>
<asrwt>  1 0.34688408E+02</asrwt>
<pdfrwt beam="1">  1        1 0.80520609E+00 0.30000000E+03</pdfrwt>
<pdfrwt beam="2">0</pdfrwt>
<totfact> 0.95111646E-04</totfact>
</mgrwt>
<clustering>
<clus scale="   34.688">  1  6  2 -1</clus>
<clus scale="  456.868">  4  5 -1 -1</clus>
<clus scale="  300.000">  1  4  2 -1</clus>
</clustering>
</event>
<event>
 6    1  0.9462926E-012  0.3000000E+03  0.7818608E-02  0.1093470E+00
          1   -1    0    0  502    0  0.00000000000E+00  0.00000000000E+00  0.24304954893E+03  0.24304954893E+03  0.00000000000E+00 0.  1.
         13   -1    0    0    0    0 -0.00000000000E+00 -0.00000000000E+00 -0.27500000000E+03  0.27500000000E+03  0.00000000000E+00 0.  1.
    9000005    2    1    2  501    0 -0.51298246174E+01  0.29562962029E+02 -0.49604192762E+02  0.48323664299E+03  0.47974659286E+03 0.  0.
         13    1    3    3    0    0  0.21084495023E+03 -0.82784500947E+02 -0.74662084026E+02  0.23850218746E+03  0.00000000000E+00 0.  1.
          3    1    3    3  501    0 -0.21597477485E+03  0.11234746298E+03  0.25057891264E+02  0.24473445553E+03  0.00000000000E+00 0.  1.
         21    1    1    2  502  501  0.51298246174E+01 -0.29562962029E+02  0.17653741695E+02  0.34812905946E+02  0.00000000000E+00 0. -1.
<scales pt_clust_4="550.00000" pt_clust_5="550.00000" pt_clust_6="30.00473"></scales>
<mgrwt>
<rscale>  0 0.30000000E+03</rscale>
<asrwt>  1 0.30004730E+02</asrwt>
<pdfrwt beam="1">  1        1 0.88381654E+00 0.30000000E+03</pdfrwt>
<pdfrwt beam="2">0</pdfrwt>
<totfact> 0.18134098E-04</totfact>
</mgrwt>
<clustering>
<clus scale="   30.005">  1  6  2 -1</clus>
<clus scale="  479.747">  4  5 -1 -1</clus>
<clus scale="  300.000">  1  4  2 -1</clus>
</clustering>
</event>
<event>
 6    1  0.9462926E-012  0.3000000E+03  0.7818608E-02  0.1093470E+00
          1   -1    0    0  502    0  0.00000000000E+00  0.00000000000E+00  0.22564219010E+03  0.22564219010E+03  0.00000000000E+00 0.  1.
         13   -1    0    0    0    0 -0.00000000000E+00 -0.00000000000E+00 -0.27500000000E+03  0.27500000000E+03  0.00000000000E+00 0.  1.
    9000005    2    1    2  501    0 -0.52913956445E+01  0.33662620490E+02 -0.67020811396E+02  0.46226052119E+03  0.45610506400E+03 0.  0.
         13    1    3    3    0    0 -0.62554276753E+02  0.52825086757E+02  0.18542320831E+03  0.20269507520E+03  0.00000000000E+00 0.  1.
          1    1    3    3  501    0  0.57262881108E+02 -0.19162466267E+02 -0.25244401971E+03  0.25956544599E+03  0.00000000000E+00 0.  1.
         21    1    1    2  502  501  0.52913956445E+01 -0.33662620490E+02  0.17663001496E+02  0.38381668905E+02  0.00000000000E+00 0. -1.
<scales pt_clust_4="550.00000" pt_clust_5="550.00000" pt_clust_6="34.07596"></scales>
<mgrwt>
<rscale>  0 0.30000000E+03</rscale>
<asrwt>  1 0.34075958E+02</asrwt>
<pdfrwt beam="1">  1        1 0.82051705E+00 0.30000000E+03</pdfrwt>
<pdfrwt beam="2">0</pdfrwt>
<totfact> 0.71944635E-04</totfact>
</mgrwt>
<clustering>
<clus scale="   34.076">  1  6  2 -1</clus>
<clus scale="  456.105">  4  5 -1 -1</clus>
<clus scale="  300.000">  1  4  2 -1</clus>
</clustering>
</event>
<event>
 6    1  0.9462926E-012  0.3000000E+03  0.7818608E-02  0.1093470E+00
          1   -1    0    0  502    0  0.00000000000E+00  0.00000000000E+00  0.23765079566E+03  0.23765079566E+03  0.00000000000E+00 0.  1.
         13   -1    0    0    0    0 -0.00000000000E+00 -0.00000000000E+00 -0.27500000000E+03  0.27500000000E+03  0.00000000000E+00 0.  1.
    9000005    2    1    2  501    0  0.14029459528E+02 -0.32785688742E+02 -0.52006235447E+02  0.47409491827E+03  0.46988255541E+03 0.  0.
         13    1    3    3    0    0  0.21354163210E+03  0.93934266027E+02 -0.45298963620E+02  0.23764610470E+03  0.00000000000E+00 0.  1.
          1    1    3    3  501    0 -0.19951217257E+03 -0.12671995477E+03 -0.67072718273E+01  0.23644881357E+03  0.00000000000E+00 0.  1.
         21    1    1    2  502  501 -0.14029459528E+02  0.32785688742E+02  0.14657031109E+02  0.38555877397E+02  0.00000000000E+00 0.  1.
<scales pt_clust_4="550.00000" pt_clust_5="550.00000" pt_clust_6="35.66128"></scales>
<mgrwt>
<rscale>  0 0.30000000E+03</rscale>
<asrwt>  1 0.35661283E+02</asrwt>
<pdfrwt beam="1">  1        1 0.86418471E+00 0.30000000E+03</pdfrwt>
<pdfrwt beam="2">0</pdfrwt>
<totfact> 0.29052752E-04</totfact>
</mgrwt>
<clustering>
<clus scale="   35.661">  1  6  2 -1</clus>
<clus scale="  469.883">  4  5 -1 -1</clus>
<clus scale="  300.000">  1  4  2 -1</clus>
</clustering>
</event>
<event>
 6    1  0.9462926E-012  0.3000000E+03  0.7818608E-02  0.1093470E+00
          1   -1    0    0  502    0  0.00000000000E+00  0.00000000000E+00  0.22924160992E+03  0.22924160992E+03  0.00000000000E+00 0.  1.
         13   -1    0    0    0    0 -0.00000000000E+00 -0.00000000000E+00 -0.27500000000E+03  0.27500000000E+03  0.00000000000E+00 0.  1.
    9000005    2    1    2  501    0  0.18215009743E+01 -0.33578437659E+02 -0.57213462208E+02  0.46871629474E+03  0.46399434841E+03 0.  0.
         13    1    3    3    0    0  0.11101622800E+03 -0.20158366793E+03 -0.11894069880E+03  0.25905109127E+03  0.00000000000E+00 0.  1.
          1    1    3    3  501    0 -0.10919472703E+03  0.16800523027E+03  0.61727236588E+02  0.20966520347E+03  0.00000000000E+00 0.  1.
         21    1    1    2  502  501 -0.18215009743E+01  0.33578437659E+02  0.11455072130E+02  0.35525315184E+02  0.00000000000E+00 0. -1.
<scales pt_clust_4="550.00000" pt_clust_5="550.00000" pt_clust_6="33.62781"></scales>
<mgrwt>
<rscale>  0 0.30000000E+03</rscale>
<asrwt>  1 0.33627806E+02</asrwt>
<pdfrwt beam="1">  1        1 0.83360585E+00 0.30000000E+03</pdfrwt>
<pdfrwt beam="2">0</pdfrwt>
<totfact> 0.55810902E-04</totfact>
</mgrwt>
<clustering>
<clus scale="   33.628">  1  6  2 -1</clus>
<clus scale="  463.994">  4  5 -1 -1</clus>
<clus scale="  300.000">  1  4  2 -1</clus>
</clustering>
</event>
<event>
 6    1  0.9462926E-012  0.3000000E+03  0.7818608E-02  0.1093470E+00
          1   -1    0    0  502    0  0.00000000000E+00  0.00000000000E+00  0.23692918515E+03  0.23692918515E+03  0.00000000000E+00 0.  1.
         13   -1    0    0    0    0 -0.00000000000E+00 -0.00000000000E+00 -0.27500000000E+03  0.27500000000E+03  0.00000000000E+00 0.  1.
    9000005    2    1    2  501    0  0.13620285177E+01 -0.30569081683E+02 -0.53273487268E+02  0.47776128903E+03  0.47379474562E+03 0.  0.
         13    1    3    3    0    0 -0.19033376556E+03 -0.16214754438E+02 -0.16757941564E+03  0.25411163122E+03  0.00000000000E+00 0.  1.
          1    1    3    3  501    0  0.19169579408E+03 -0.14354327245E+02  0.11430592837E+03  0.22364965781E+03  0.00000000000E+00 0.  1.
         21    1    1    2  502  501 -0.13620285177E+01  0.30569081683E+02  0.15202672422E+02  0.34167896122E+02  0.00000000000E+00 0.  1.
<scales pt_clust_4="550.00000" pt_clust_5="550.00000" pt_clust_6="30.59941"></scales>
<mgrwt>
<rscale>  0 0.30000000E+03</rscale>
<asrwt>  1 0.30599410E+02</asrwt>
<pdfrwt beam="1">  1        1 0.86156067E+00 0.30000000E+03</pdfrwt>
<pdfrwt beam="2">0</pdfrwt>
<totfact> 0.31924954E-04</totfact>
</mgrwt>
<clustering>
<clus scale="   30.599">  1  6  2 -1</clus>
<clus scale="  473.795">  4  5 -1 -1</clus>
<clus scale="  300.000">  1  4  2 -1</clus>
</clustering>
</event>
<event>
 6    1  0.9462926E-012  0.3000000E+03  0.7818608E-02  0.1093470E+00
          1   -1    0    0  502    0  0.00000000000E+00  0.00000000000E+00  0.23835862000E+03  0.23835862000E+03  0.00000000000E+00 0.  1.
         13   -1    0    0    0    0 -0.00000000000E+00 -0.00000000000E+00 -0.27500000000E+03  0.27500000000E+03  0.00000000000E+00 0.  1.
    9000005    2    1    2  501    0 -0.18519016338E+02  0.32206868218E+02 -0.29034241276E+02  0.47543626661E+03  0.47309240125E+03 0.  0.
         13    1    3    3    0    0 -0.14867994023E+03  0.16741681569E+03 -0.13345724760E+03  0.26066252461E+03  0.00000000000E+00 0.  1.
          3    1    3    3  501    0  0.13016092389E+03 -0.13520994747E+03  0.10442300632E+03  0.21477374200E+03  0.00000000000E+00 0.  1.
         21    1    1    2  502  501  0.18519016338E+02 -0.32206868218E+02 -0.76071387275E+01  0.37922353384E+02  0.00000000000E+00 0. -1.
<scales pt_clust_4="550.00000" pt_clust_5="550.00000" pt_clust_6="37.15155"></scales>
<mgrwt>
<rscale>  0 0.30000000E+03</rscale>
<asrwt>  1 0.37151551E+02</asrwt>
<pdfrwt beam="1">  1        1 0.86675862E+00 0.30000000E+03</pdfrwt>
<pdfrwt beam="2">0</pdfrwt>
<totfact> 0.27059501E-04</totfact>
</mgrwt>
<clustering>
<clus scale="   37.152">  1  6  2 -1</clus>
<clus scale="  473.092">  4  5 -1 -1</clus>
<clus scale="  300.000">  1  4  2 -1</clus>
</clustering>
</event>
<event>
 6    1  0.9462926E-012  0.3000000E+03  0.7818608E-02  0.1093470E+00
          1   -1    0    0  502    0  0.00000000000E+00  0.00000000000E+00  0.25073682703E+03  0.25073682703E+03  0.00000000000E+00 0.  1.
         13   -1    0    0    0    0 -0.00000000000E+00 -0.00000000000E+00 -0.27500000000E+03  0.27500000000E+03  0.00000000000E+00 0.  1.
    9000005    2    1    2  501    0  0.26708591838E+02  0.44599170765E+02 -0.22623095093E+02  0.47372601309E+03  0.47032126907E+03 0.  0.
         13    1    3    3    0    0 -0.91657717056E+02  0.21761046815E+03  0.67444122622E+02  0.24556905876E+03  0.00000000000E+00 0.  1.
          1    1    3    3  501    0  0.11836630889E+03 -0.17301129738E+03 -0.90067217715E+02  0.22815695433E+03  0.00000000000E+00 0.  1.
         21    1    1    2  502  501 -0.26708591838E+02 -0.44599170765E+02 -0.16400778765E+01  0.52010813937E+02  0.00000000000E+00 0. -1.
<scales pt_clust_4="550.00000" pt_clust_5="550.00000" pt_clust_6="51.98495"></scales>
<mgrwt>
<rscale>  0 0.30000000E+03</rscale>
<asrwt>  1 0.51984949E+02</asrwt>
<pdfrwt beam="1">  1        1 0.91177028E+00 0.30000000E+03</pdfrwt>
<pdfrwt beam="2">0</pdfrwt>
<totfact> 0.60487508E-05</totfact>
</mgrwt>
<clustering>
<clus scale="   51.985">  1  6  2 -1</clus>
<clus scale="  470.321">  4  5 -1 -1</clus>
<clus scale="  300.000">  1  4  2 -1</clus>
</clustering>
</event>
<event>
 6    1  0.9462926E-012  0.3000000E+03  0.7818608E-02  0.1093470E+00
          1   -1    0    0  502    0  0.00000000000E+00  0.00000000000E+00  0.22575323197E+03  0.22575323197E+03  0.00000000000E+00 0.  1.
         13   -1    0    0    0    0 -0.00000000000E+00 -0.00000000000E+00 -0.27500000000E+03  0.27500000000E+03  0.00000000000E+00 0.  1.
    9000005    2    1    2  501    0 -0.19084299514E+02 -0.27160100132E+02 -0.43430213992E+02  0.46705287844E+03  0.46384299741E+03 0.  0.
         13    1    3    3    0    0  0.19147110538E+03  0.44180130381E+02 -0.12196518916E+03  0.23127597256E+03  0.00000000000E+00 0.  1.
          1    1    3    3  501    0 -0.21055540490E+03 -0.71340230512E+02  0.78534975166E+02  0.23577690588E+03  0.00000000000E+00 0.  1.
         21    1    1    2  502  501  0.19084299514E+02  0.27160100132E+02 -0.58165540401E+01  0.33700353530E+02  0.00000000000E+00 0. -1.
<scales pt_clust_4="550.00000" pt_clust_5="550.00000" pt_clust_6="33.19462"></scales>
<mgrwt>
<rscale>  0 0.30000000E+03</rscale>
<asrwt>  1 0.33194617E+02</asrwt>
<pdfrwt beam="1">  1        1 0.82092084E+00 0.30000000E+03</pdfrwt>
<pdfrwt beam="2">0</pdfrwt>
<totfact> 0.71715349E-04</totfact>
</mgrwt>
<clustering>
<clus scale="   33.195">  1  6  2 -1</clus>
<clus scale="  463.843">  4  5 -1 -1</clus>
<clus scale="  300.000">  1  4  2 -1</clus>
</clustering>
</event>
<event>
 6    1  0.9462926E-012  0.3000000E+03  0.7818608E-02  0.1093470E+00
          1   -1    0    0  502    0  0.00000000000E+00  0.00000000000E+00  0.24068662301E+03  0.24068662301E+03  0.00000000000E+00 0.  1.
         13   -1    0    0    0    0 -0.00000000000E+00 -0.00000000000E+00 -0.27500000000E+03  0.27500000000E+03  0.00000000000E+00 0.  1.
    9000005    2    1    2  501    0  0.32184759926E+02 -0.81602035239E+01 -0.49922870294E+02  0.47899733337E+03  0.47523015971E+03 0.  0.
         13    1    3    3    0    0  0.25148849518E+03 -0.39100156652E+02 -0.16862560844E+02  0.25506789570E+03  0.00000000000E+00 0.  1.
          1    1    3    3  501    0 -0.21930373525E+03  0.30939953128E+02 -0.33060309451E+02  0.22392943767E+03  0.00000000000E+00 0.  1.
         21    1    1    2  502  501 -0.32184759926E+02  0.81602035239E+01  0.15609493301E+02  0.36689289639E+02  0.00000000000E+00 0.  1.
<scales pt_clust_4="550.00000" pt_clust_5="550.00000" pt_clust_6="33.20313"></scales>
<mgrwt>
<rscale>  0 0.30000000E+03</rscale>
<asrwt>  1 0.33203128E+02</asrwt>
<pdfrwt beam="1">  1        1 0.87522408E+00 0.30000000E+03</pdfrwt>
<pdfrwt beam="2">0</pdfrwt>
<totfact> 0.22592683E-04</totfact>
</mgrwt>
<clustering>
<clus scale="   33.203">  1  6  2 -1</clus>
<clus scale="  475.230">  4  5 -1 -1</clus>
<clus scale="  300.000">  1  4  2 -1</clus>
</clustering>
</event>
<event>
 6    1  0.9462926E-012  0.3000000E+03  0.7818608E-02  0.1093470E+00
          1   -1    0    0  502    0  0.00000000000E+00  0.00000000000E+00  0.24245520375E+03  0.24245520375E+03  0.00000000000E+00 0.  1.
         13   -1    0    0    0    0 -0.00000000000E+00 -0.00000000000E+00 -0.27500000000E+03  0.27500000000E+03  0.00000000000E+00 0.  1.
    9000005    2    1    2  501    0 -0.33829994614E+02  0.20803991419E+02 -0.25830311934E+02  0.47717668721E+03  0.47481902996E+03 0.  0.
         13    1    3    3    0    0 -0.18160728136E+03 -0.15797168062E+03  0.17041455422E+02  0.24130202594E+03  0.00000000000E+00 0.  1.
          3    1    3    3  501    0  0.14777728675E+03  0.17877567204E+03 -0.42871767356E+02  0.23587466127E+03  0.00000000000E+00 0.  1.
         21    1    1    2  502  501  0.33829994614E+02 -0.20803991419E+02 -0.67144843191E+01  0.40278516534E+02  0.00000000000E+00 0. -1.
<scales pt_clust_4="550.00000" pt_clust_5="550.00000" pt_clust_6="39.71494"></scales>
<mgrwt>
<rscale>  0 0.30000000E+03</rscale>
<asrwt>  1 0.39714936E+02</asrwt>
<pdfrwt beam="1">  1        1 0.88165529E+00 0.30000000E+03</pdfrwt>
<pdfrwt beam="2">0</pdfrwt>
<totfact> 0.18375715E-04</totfact>
</mgrwt>
<clustering>
<clus scale="   39.715">  1  6  2 -1</clus>
<clus scale="  474.819">  4  5 -1 -1</clus>
<clus scale="  300.000">  1  4  2 -1</clus>
</clustering>
</event>
<event>
 6    1  0.9462926E-012  0.3000000E+03  0.7818608E-02  0.1093470E+00
          1   -1    0    0  502    0  0.00000000000E+00  0.00000000000E+00  0.23316467706E+03  0.23316467706E+03  0.00000000000E+00 0.  1.
         13   -1    0    0    0    0 -0.00000000000E+00 -0.00000000000E+00 -0.27500000000E+03  0.27500000000E+03  0.00000000000E+00 0.  1.
    9000005    2    1    2  501    0 -0.26521035461E+02 -0.14871537942E+02 -0.48059893124E+02  0.47712803361E+03  0.47372658693E+03 0.  0.
         13    1    3    3    0    0 -0.27238921114E+02 -0.13359457888E+03  0.17655138010E+03  0.22306918242E+03  0.00000000000E+00 0.  1.
          3    1    3    3  501    0  0.71788565370E+00  0.11872304094E+03 -0.22461127322E+03  0.25405885119E+03  0.00000000000E+00 0.  1.
         21    1    1    2  502  501  0.26521035461E+02  0.14871537942E+02  0.62245701832E+01  0.31036643450E+02  0.00000000000E+00 0.  1.
<scales pt_clust_4="550.00000" pt_clust_5="550.00000" pt_clust_6="30.40605"></scales>
<mgrwt>
<rscale>  0 0.30000000E+03</rscale>
<asrwt>  1 0.30406051E+02</asrwt>
<pdfrwt beam="1">  1        1 0.84787155E+00 0.30000000E+03</pdfrwt>
<pdfrwt beam="2">0</pdfrwt>
<totfact> 0.43739713E-04</totfact>
</mgrwt>
<clustering>
<clus scale="   30.406">  1  6  2 -1</clus>
<clus scale="  473.727">  4  5 -1 -1</clus>
<clus scale="  300.000">  1  4  2 -1</clus>
</clustering>
</event>
<event>
 6    1  0.9462926E-012  0.3000000E+03  0.7818608E-02  0.1093470E+00
          1   -1    0    0  502    0  0.00000000000E+00  0.00000000000E+00  0.23448587399E+03  0.23448587399E+03  0.00000000000E+00 0.  1.
         13   -1    0    0    0    0 -0.00000000000E+00 -0.00000000000E+00 -0.27500000000E+03  0.27500000000E+03  0.00000000000E+00 0.  1.
    9000005    2    1    2  501    0  0.26475187183E+01 -0.36676851938E+02 -0.48897293300E+02  0.47177011711E+03  0.46778616619E+03 0.  0.
         13    1    3    3    0    0  0.14770090445E+03 -0.19861715816E+03 -0.57825870891E+02  0.25418136052E+03  0.00000000000E+00 0.  1.
          1    1    3    3  501    0 -0.14505338574E+03  0.16194030623E+03  0.89285775914E+01  0.21758875658E+03  0.00000000000E+00 0.  1.
         21    1    1    2  502  501 -0.26475187183E+01  0.36676851938E+02  0.83831672912E+01  0.37715756883E+02  0.00000000000E+00 0.  1.
<scales pt_clust_4="550.00000" pt_clust_5="550.00000" pt_clust_6="36.77228"></scales>
<mgrwt>
<rscale>  0 0.30000000E+03</rscale>
<asrwt>  1 0.36772283E+02</asrwt>
<pdfrwt beam="1">  1        1 0.85267591E+00 0.30000000E+03</pdfrwt>
<pdfrwt beam="2">0</pdfrwt>
<totfact> 0.38030427E-04</totfact>
</mgrwt>
<clustering>
<clus scale="   36.772">  1  6  2 -1</clus>
<clus scale="  467.786">  4  5 -1 -1</clus>
<clus scale="  300.000">  1  4  2 -1</clus>
</clustering>
</event>
<event>
 6    1  0.9462926E-012  0.3000000E+03  0.7818608E-02  0.1093470E+00
          1   -1    0    0  502    0  0.00000000000E+00  0.00000000000E+00  0.22868726687E+03  0.22868726687E+03  0.00000000000E+00 0.  1.
         13   -1    0    0    0    0 -0.00000000000E+00 -0.00000000000E+00 -0.27500000000E+03  0.27500000000E+03  0.00000000000E+00 0.  1.
    9000005    2    1    2  501    0 -0.38439390980E+02 -0.15722664154E+02 -0.50598900049E+02  0.46193609714E+03  0.45727444736E+03 0.  0.
         13    1    3    3    0    0  0.16336132583E+02 -0.23376522475E+03 -0.26746636495E+02  0.23585680421E+03  0.00000000000E+00 0.  1.
          3    1    3    3  501    0 -0.54775523563E+02  0.21804256060E+03 -0.23852263554E+02  0.22607929293E+03  0.00000000000E+00 0.  1.
         21    1    1    2  502  501  0.38439390980E+02  0.15722664154E+02  0.42861669204E+01  0.41751169731E+02  0.00000000000E+00 0. -1.
<scales pt_clust_4="550.00000" pt_clust_5="550.00000" pt_clust_6="41.53058"></scales>
<mgrwt>
<rscale>  0 0.30000000E+03</rscale>
<asrwt>  1 0.41530578E+02</asrwt>
<pdfrwt beam="1">  1        1 0.83159006E+00 0.30000000E+03</pdfrwt>
<pdfrwt beam="2">0</pdfrwt>
<totfact> 0.55609080E-04</totfact>
</mgrwt>
<clustering>
<clus scale="   41.531">  1  6  2 -1</clus>
<clus scale="  457.274">  4  5 -1 -1</clus>
<clus scale="  300.000">  1  4  2 -1</clus>
</clustering>
</event>
<event>
 6    1  0.9462926E-012  0.3000000E+03  0.7818608E-02  0.1093470E+00
          1   -1    0    0  502    0  0.00000000000E+00  0.00000000000E+00  0.23181886089E+03  0.23181886089E+03  0.00000000000E+00 0.  1.
         13   -1    0    0    0    0 -0.00000000000E+00 -0.00000000000E+00 -0.27500000000E+03  0.27500000000E+03  0.00000000000E+00 0.  1.
    9000005    2    1    2  501    0 -0.29929726656E+02  0.73918863983E+01 -0.64419997410E+02  0.46938201241E+03  0.46391713590E+03 0.  0.
         13    1    3    3    0    0 -0.13437695576E+02  0.17992311244E+03 -0.18486903270E+03  0.25832045468E+03  0.00000000000E+00 0.  1.
          3    1    3    3  501    0 -0.16492031080E+02 -0.17253122604E+03  0.12044903529E+03  0.21106155773E+03  0.00000000000E+00 0.  1.
         21    1    1    2  502  501  0.29929726656E+02 -0.73918863983E+01  0.21238858297E+02  0.37436848478E+02  0.00000000000E+00 0. -1.
<scales pt_clust_4="550.00000" pt_clust_5="550.00000" pt_clust_6="30.82902"></scales>
<mgrwt>
<rscale>  0 0.30000000E+03</rscale>
<asrwt>  1 0.30829021E+02</asrwt>
<pdfrwt beam="1">  1        1 0.84297768E+00 0.30000000E+03</pdfrwt>
<pdfrwt beam="2">0</pdfrwt>
<totfact> 0.48167924E-04</totfact>
</mgrwt>
<clustering>
<clus scale="   30.829">  1  6  2 -1</clus>
<clus scale="  463.917">  4  5 -1 -1</clus>
<clus scale="  300.000">  1  4  2 -1</clus>
</clustering>
</event>
<event>
 6    1  0.9462926E-012  0.3000000E+03  0.7818608E-02  0.1093470E+00
          1   -1    0    0  502    0  0.00000000000E+00  0.00000000000E+00  0.25250895518E+03  0.25250895518E+03  0.00000000000E+00 0.  1.
         13   -1    0    0    0    0 -0.00000000000E+00 -0.00000000000E+00 -0.27500000000E+03  0.27500000000E+03  0.00000000000E+00 0.  1.
    9000005    2    1    2  501    0 -0.30127134964E+02 -0.64728386471E+01 -0.21823930254E+02  0.49668709697E+03  0.49524968093E+03 0.  0.
         13    1    3    3    0    0  0.59420296218E+02  0.12272492562E+02 -0.24662676245E+03  0.25398060090E+03  0.00000000000E+00 0.  1.
          3    1    3    3  501    0 -0.89547431181E+02 -0.18745331209E+02  0.22480283220E+03  0.24270649607E+03  0.00000000000E+00 0.  1.
         21    1    1    2  502  501  0.30127134964E+02  0.64728386471E+01 -0.66711457089E+00  0.30821858204E+02  0.00000000000E+00 0. -1.
<scales pt_clust_4="550.00000" pt_clust_5="550.00000" pt_clust_6="30.81464"></scales>
<mgrwt>
<rscale>  0 0.30000000E+03</rscale>
<asrwt>  1 0.30814638E+02</asrwt>
<pdfrwt beam="1">  1        1 0.91821438E+00 0.30000000E+03</pdfrwt>
<pdfrwt beam="2">0</pdfrwt>
<totfact> 0.46870210E-05</totfact>
</mgrwt>
<clustering>
<clus scale="   30.815">  1  6  2 -1</clus>
<clus scale="  495.250">  4  5 -1 -1</clus>
<clus scale="  300.000">  1  4  2 -1</clus>
</clustering>
</event>
<event>
 6    1  0.9462926E-012  0.3000000E+03  0.7818608E-02  0.1093470E+00
          1   -1    0    0  502    0  0.00000000000E+00  0.00000000000E+00  0.22962868991E+03  0.22962868991E+03  0.00000000000E+00 0.  1.
         13   -1    0    0    0    0 -0.00000000000E+00 -0.00000000000E+00 -0.27500000000E+03  0.27500000000E+03  0.00000000000E+00 0.  1.
    9000005    2    1    2  501    0  0.16983289691E+02 -0.33292397941E+02 -0.58867384955E+02  0.46489256119E+03  0.45963345020E+03 0.  0.
         13    1    3    3    0    0 -0.10600009119E+03  0.16621852153E+03  0.54510929660E+02  0.20453864594E+03  0.00000000000E+00 0.  1.
          3    1    3    3  501    0  0.12298338088E+03 -0.19951091947E+03 -0.11337831461E+03  0.26035391525E+03  0.00000000000E+00 0.  1.
         21    1    1    2  502  501 -0.16983289691E+02  0.33292397941E+02  0.13496074869E+02  0.39736128728E+02  0.00000000000E+00 0. -1.
<scales pt_clust_4="550.00000" pt_clust_5="550.00000" pt_clust_6="37.37400"></scales>
<mgrwt>
<rscale>  0 0.30000000E+03</rscale>
<asrwt>  1 0.37374000E+02</asrwt>
<pdfrwt beam="1">  1        1 0.83501342E+00 0.30000000E+03</pdfrwt>
<pdfrwt beam="2">0</pdfrwt>
<totfact> 0.53430800E-04</totfact>
</mgrwt>
<clustering>
<clus scale="   37.374">  1  6  2 -1</clus>
<clus scale="  459.633">  4  5 -1 -1</clus>
<clus scale="  300.000">  1  4  2 -1</clus>
</clustering>
</event>
<event>
 6    1  0.9462926E-012  0.3000000E+03  0.7818608E-02  0.1093470E+00
          1   -1    0    0  502    0  0.00000000000E+00  0.00000000000E+00  0.22812312229E+03  0.22812312229E+03  0.00000000000E+00 0.  1.
         13   -1    0    0    0    0 -0.00000000000E+00 -0.00000000000E+00 -0.27500000000E+03  0.27500000000E+03  0.00000000000E+00 0.  1.
    9000005    2    1    2  501    0 -0.23385306501E+02 -0.18889761388E+02 -0.48352042669E+02  0.47302541877E+03  0.46958644691E+03 0.  0.
         13    1    3    3    0    0  0.11320011707E+03 -0.49220629139E+02 -0.21958417094E+03  0.25190106185E+03  0.00000000000E+00 0.  1.
          3    1    3    3  501    0 -0.13658542357E+03  0.30330867751E+02  0.17123212827E+03  0.22112435691E+03  0.00000000000E+00 0.  1.
         21    1    1    2  502  501  0.23385306501E+02  0.18889761388E+02  0.14751649559E+01  0.30097703519E+02  0.00000000000E+00 0. -1.
<scales pt_clust_4="550.00000" pt_clust_5="550.00000" pt_clust_6="30.06153"></scales>
<mgrwt>
<rscale>  0 0.30000000E+03</rscale>
<asrwt>  1 0.30061531E+02</asrwt>
<pdfrwt beam="1">  1        1 0.82953863E+00 0.30000000E+03</pdfrwt>
<pdfrwt beam="2">0</pdfrwt>
<totfact> 0.61371476E-04</totfact>
</mgrwt>
<clustering>
<clus scale="   30.062">  1  6  2 -1</clus>
<clus scale="  469.586">  4  5 -1 -1</clus>
<clus scale="  300.000">  1  4  2 -1</clus>
</clustering>
</event>
<event>
 6    1  0.9462926E-012  0.3000000E+03  0.7818608E-02  0.1093470E+00
          1   -1    0    0  502    0  0.00000000000E+00  0.00000000000E+00  0.25280649452E+03  0.25280649452E+03  0.00000000000E+00 0.  1.
         13   -1    0    0    0    0 -0.00000000000E+00 -0.00000000000E+00 -0.27500000000E+03  0.27500000000E+03  0.00000000000E+00 0.  1.
    9000005    2    1    2  501    0  0.23335918163E+02 -0.33044626182E+02 -0.53415721865E+02  0.47670523043E+03  0.47197258922E+03 0.  0.
         13    1    3    3    0    0 -0.15141518084E+03  0.60291574959E+02  0.12865152112E+03  0.20763632844E+03  0.00000000000E+00 0.  1.
          1    1    3    3  501    0  0.17475109901E+03 -0.93336201141E+02 -0.18206724299E+03  0.26906890199E+03  0.00000000000E+00 0.  1.
         21    1    1    2  502  501 -0.23335918163E+02  0.33044626182E+02  0.31222216385E+02  0.51101264094E+02  0.00000000000E+00 0.  1.
<scales pt_clust_4="550.00000" pt_clust_5="550.00000" pt_clust_6="40.45383"></scales>
<mgrwt>
<rscale>  0 0.30000000E+03</rscale>
<asrwt>  1 0.40453830E+02</asrwt>
<pdfrwt beam="1">  1        1 0.91929634E+00 0.30000000E+03</pdfrwt>
<pdfrwt beam="2">0</pdfrwt>
<totfact> 0.42161874E-05</totfact>
</mgrwt>
<clustering>
<clus scale="   40.454">  1  6  2 -1</clus>
<clus scale="  471.973">  4  5 -1 -1</clus>
<clus scale="  300.000">  1  4  2 -1</clus>
</clustering>
</event>
<event>
 6    1  0.9462926E-012  0.3000000E+03  0.7818608E-02  0.1093470E+00
          1   -1    0    0  502    0  0.00000000000E+00  0.00000000000E+00  0.22398458939E+03  0.22398458939E+03  0.00000000000E+00 0.  1.
         13   -1    0    0    0    0 -0.00000000000E+00 -0.00000000000E+00 -0.27500000000E+03  0.27500000000E+03  0.00000000000E+00 0.  1.
    9000005    2    1    2  501    0 -0.28317428667E+02 -0.20443686700E+02 -0.42334727488E+02  0.46299604466E+03  0.45973175562E+03 0.  0.
         13    1    3    3    0    0  0.28766594058E+02 -0.73982026243E+02  0.19636072578E+03  0.21179799756E+03  0.00000000000E+00 0.  1.
          1    1    3    3  501    0 -0.57084022725E+02  0.53538339543E+02 -0.23869545327E+03  0.25119804710E+03  0.00000000000E+00 0.  1.
         21    1    1    2  502  501  0.28317428667E+02  0.20443686700E+02 -0.86806831250E+01  0.35988544729E+02  0.00000000000E+00 0. -1.
<scales pt_clust_4="550.00000" pt_clust_5="550.00000" pt_clust_6="34.92595"></scales>
<mgrwt>
<rscale>  0 0.30000000E+03</rscale>
<asrwt>  1 0.34925955E+02</asrwt>
<pdfrwt beam="1">  1        1 0.81448942E+00 0.30000000E+03</pdfrwt>
<pdfrwt beam="2">0</pdfrwt>
<totfact> 0.80394543E-04</totfact>
</mgrwt>
<clustering>
<clus scale="   34.926">  1  6  2 -1</clus>
<clus scale="  459.732">  4  5 -1 -1</clus>
<clus scale="  300.000">  1  4  2 -1</clus>
</clustering>
</event>
<event>
 6    1  0.9462926E-012  0.3000000E+03  0.7818608E-02  0.1093470E+00
          1   -1    0    0  502    0  0.00000000000E+00  0.00000000000E+00  0.25635354396E+03  0.25635354396E+03  0.00000000000E+00 0.  1.
         13   -1    0    0    0    0 -0.00000000000E+00 -0.00000000000E+00 -0.27500000000E+03  0.27500000000E+03  0.00000000000E+00 0.  1.
    9000005    2    1    2  501    0  0.44186602780E+01 -0.33958806502E+02 -0.58965371969E+02  0.47845420484E+03  0.47357025449E+03 0.  0.
         13    1    3    3    0    0 -0.17685434389E+03 -0.15912204860E+03 -0.93234478423E+02  0.25551898808E+03  0.00000000000E+00 0.  1.
          1    1    3    3  501    0  0.18127300417E+03  0.12516324210E+03  0.34269106454E+02  0.22293521676E+03  0.00000000000E+00 0.  1.
         21    1    1    2  502  501 -0.44186602780E+01  0.33958806502E+02  0.40318915932E+02  0.52899339123E+02  0.00000000000E+00 0. -1.
<scales pt_clust_4="550.00000" pt_clust_5="550.00000" pt_clust_6="34.24507"></scales>
<mgrwt>
<rscale>  0 0.30000000E+03</rscale>
<asrwt>  1 0.34245074E+02</asrwt>
<pdfrwt beam="1">  1        1 0.93219471E+00 0.30000000E+03</pdfrwt>
<pdfrwt beam="2">0</pdfrwt>
<totfact> 0.24527062E-05</totfact>
</mgrwt>
<clustering>
<clus scale="   34.245">  1  6  2 -1</clus>
<clus scale="  473.570">  4  5 -1 -1</clus>
<clus scale="  300.000">  1  4  2 -1</clus>
</clustering>
</event>
<event>
 6    1  0.9462926E-012  0.3000000E+03  0.7818608E-02  0.1093470E+00
          1   -1    0    0  502    0  0.00000000000E+00  0.00000000000E+00  0.23498248163E+03  0.23498248163E+03  0.00000000000E+00 0.  1.
         13   -1    0    0    0    0 -0.00000000000E+00 -0.00000000000E+00 -0.27500000000E+03  0.27500000000E+03  0.00000000000E+00 0.  1.
    9000005    2    1    2  501    0 -0.34946998501E+02  0.27317495974E+01 -0.67382616212E+02  0.46551222483E+03  0.45927383916E+03 0.  0.
         13    1    3    3    0    0 -0.13800423460E+03 -0.19287772035E+03 -0.58318994187E+02  0.24422958228E+03  0.00000000000E+00 0.  1.
          1    1    3    3  501    0  0.10305723610E+03  0.19560946995E+03 -0.90636220244E+01  0.22128264255E+03  0.00000000000E+00 0.  1.
         21    1    1    2  502  501  0.34946998501E+02 -0.27317495974E+01  0.27365097838E+02  0.44470256799E+02  0.00000000000E+00 0. -1.
<scales pt_clust_4="550.00000" pt_clust_5="550.00000" pt_clust_6="35.05360"></scales>
<mgrwt>
<rscale>  0 0.30000000E+03</rscale>
<asrwt>  1 0.35053604E+02</asrwt>
<pdfrwt beam="1">  1        1 0.85448175E+00 0.30000000E+03</pdfrwt>
<pdfrwt beam="2">0</pdfrwt>
<totfact> 0.36854491E-04</totfact>
</mgrwt>
<clustering>
<clus scale="   35.054">  1  6  2 -1</clus>
<clus scale="  459.274">  4  5 -1 -1</clus>
<clus scale="  300.000">  1  4  2 -1</clus>
</clustering>
</event>
<event>
 6    1  0.9462926E-012  0.3000000E+03  0.7818608E-02  0.1093470E+00
          1   -1    0    0  502    0  0.00000000000E+00  0.00000000000E+00  0.23157503504E+03  0.23157503504E+03  0.00000000000E+00 0.  1.
         13   -1    0    0    0    0 -0.00000000000E+00 -0.00000000000E+00 -0.27500000000E+03  0.27500000000E+03  0.00000000000E+00 0.  1.
    9000005    2    1    2  501    0  0.25824057349E+02 -0.18883955795E+02 -0.58477889640E+02  0.47121861744E+03  0.46648026337E+03 0.  0.
         13    1    3    3    0    0  0.92173639119E+02  0.20510039165E+03 -0.74978980122E+02  0.23703163895E+03  0.00000000000E+00 0.  1.
          3    1    3    3  501    0 -0.66349581770E+02 -0.22398434745E+03  0.16501090481E+02  0.23418697848E+03  0.00000000000E+00 0.  1.
         21    1    1    2  502  501 -0.25824057349E+02  0.18883955795E+02  0.15052924681E+02  0.35356417606E+02  0.00000000000E+00 0.  1.
<scales pt_clust_4="550.00000" pt_clust_5="550.00000" pt_clust_6="31.99196"></scales>
<mgrwt>
<rscale>  0 0.30000000E+03</rscale>
<asrwt>  1 0.31991963E+02</asrwt>
<pdfrwt beam="1">  1        1 0.84209104E+00 0.30000000E+03</pdfrwt>
<pdfrwt beam="2">0</pdfrwt>
<totfact> 0.48651120E-04</totfact>
</mgrwt>
<clustering>
<clus scale="   31.992">  1  6  2 -1</clus>
<clus scale="  466.480">  4  5 -1 -1</clus>
<clus scale="  300.000">  1  4  2 -1</clus>
</clustering>
</event>
<event>
 6    1  0.9462926E-012  0.3000000E+03  0.7818608E-02  0.1093470E+00
          1   -1    0    0  502    0  0.00000000000E+00  0.00000000000E+00  0.23638380009E+03  0.23638380009E+03  0.00000000000E+00 0.  1.
         13   -1    0    0    0    0 -0.00000000000E+00 -0.00000000000E+00 -0.27500000000E+03  0.27500000000E+03  0.00000000000E+00 0.  1.
    9000005    2    1    2  501    0  0.27340202568E+02  0.20043951444E+02 -0.60022656985E+02  0.47129037082E+03  0.46622167218E+03 0.  0.
         13    1    3    3    0    0 -0.99194078439E+02  0.12234769184E+03  0.14187565286E+03  0.21198378185E+03  0.00000000000E+00 0.  1.
          1    1    3    3  501    0  0.12653428101E+03 -0.10230374039E+03 -0.20189830984E+03  0.25930658897E+03  0.00000000000E+00 0.  1.
         21    1    1    2  502  501 -0.27340202568E+02 -0.20043951444E+02  0.21406457080E+02  0.40093429270E+02  0.00000000000E+00 0.  1.
<scales pt_clust_4="550.00000" pt_clust_5="550.00000" pt_clust_6="33.90054"></scales>
<mgrwt>
<rscale>  0 0.30000000E+03</rscale>
<asrwt>  1 0.33900541E+02</asrwt>
<pdfrwt beam="1">  1        1 0.85957745E+00 0.30000000E+03</pdfrwt>
<pdfrwt beam="2">0</pdfrwt>
<totfact> 0.32879478E-04</totfact>
</mgrwt>
<clustering>
<clus scale="   33.901">  1  6  2 -1</clus>
<clus scale="  466.222">  4  5 -1 -1</clus>
<clus scale="  300.000">  1  4  2 -1</clus>
</clustering>
</event>
<event>
 6    1  0.9462926E-012  0.3000000E+03  0.7818608E-02  0.1093470E+00
          1   -1    0    0  502    0  0.00000000000E+00  0.00000000000E+00  0.23286981905E+03  0.23286981905E+03  0.00000000000E+00 0.  1.
         13   -1    0    0    0    0 -0.00000000000E+00 -0.00000000000E+00 -0.27500000000E+03  0.27500000000E+03  0.00000000000E+00 0.  1.
    9000005    2    1    2  501    0  0.13663434452E+01 -0.35703380021E+02 -0.28125331592E+02  0.46949360187E+03  0.46728643216E+03 0.  0.
         13    1    3    3    0    0 -0.19744511295E+03  0.97242507697E+02 -0.60222663213E+02  0.22818292463E+03  0.00000000000E+00 0.  1.
          1    1    3    3  501    0  0.19881145639E+03 -0.13294588772E+03  0.32097331620E+02  0.24131067724E+03  0.00000000000E+00 0.  1.
         21    1    1    2  502  501 -0.13663434452E+01  0.35703380021E+02 -0.14004849357E+02  0.38376217177E+02  0.00000000000E+00 0.  1.
<scales pt_clust_4="550.00000" pt_clust_5="550.00000" pt_clust_6="35.72953"></scales>
<mgrwt>
<rscale>  0 0.30000000E+03</rscale>
<asrwt>  1 0.35729533E+02</asrwt>
<pdfrwt beam="1">  1        1 0.84679934E+00 0.30000000E+03</pdfrwt>
<pdfrwt beam="2">0</pdfrwt>
<totfact> 0.43385162E-04</totfact>
</mgrwt>
<clustering>
<clus scale="   35.730">  1  6  2 -1</clus>
<clus scale="  467.286">  4  5 -1 -1</clus>
<clus scale="  300.000">  1  4  2 -1</clus>
</clustering>
</event>
<event>
 6    1  0.9462926E-012  0.3000000E+03  0.7818608E-02  0.1093470E+00
          1   -1    0    0  502    0  0.00000000000E+00  0.00000000000E+00  0.23416905827E+03  0.23416905827E+03  0.00000000000E+00 0.  1.
         13   -1    0    0    0    0 -0.00000000000E+00 -0.00000000000E+00 -0.27500000000E+03  0.27500000000E+03  0.00000000000E+00 0.  1.
    9000005    2    1    2  501    0  0.21777029502E+02 -0.24038040661E+02 -0.66021802706E+02  0.46810026368E+03  0.46228444924E+03 0.  0.
         13    1    3    3    0    0 -0.16285671693E+03 -0.16255887707E+03 -0.57227775690E+02  0.23711330008E+03  0.00000000000E+00 0.  1.
          1    1    3    3  501    0  0.18463374643E+03  0.13852083641E+03 -0.87940270161E+01  0.23098696360E+03  0.00000000000E+00 0.  1.
         21    1    1    2  502  501 -0.21777029502E+02  0.24038040661E+02  0.25190860976E+02  0.41068794595E+02  0.00000000000E+00 0. -1.
<scales pt_clust_4="550.00000" pt_clust_5="550.00000" pt_clust_6="32.43557"></scales>
<mgrwt>
<rscale>  0 0.30000000E+03</rscale>
<asrwt>  1 0.32435573E+02</asrwt>
<pdfrwt beam="1">  1        1 0.85152385E+00 0.30000000E+03</pdfrwt>
<pdfrwt beam="2">0</pdfrwt>
<totfact> 0.39938241E-04</totfact>
</mgrwt>
<clustering>
<clus scale="   32.436">  1  6  2 -1</clus>
<clus scale="  462.284">  4  5 -1 -1</clus>
<clus scale="  300.000">  1  4  2 -1</clus>
</clustering>
</event>
<event>
 6    1  0.9462926E-012  0.3000000E+03  0.7818608E-02  0.1093470E+00
          1   -1    0    0  502    0  0.00000000000E+00  0.00000000000E+00  0.23504766301E+03  0.23504766301E+03  0.00000000000E+00 0.  1.
         13   -1    0    0    0    0 -0.00000000000E+00 -0.00000000000E+00 -0.27500000000E+03  0.27500000000E+03  0.00000000000E+00 0.  1.
    9000005    2    1    2  501    0 -0.21288651376E+02 -0.34014163126E+02 -0.27177379515E+02  0.46793626895E+03  0.46541978028E+03 0.  0.
         13    1    3    3    0    0 -0.13399944799E+03  0.17728650947E+03 -0.48650491737E+02  0.22749336001E+03  0.00000000000E+00 0.  1.
          3    1    3    3  501    0  0.11271079661E+03 -0.21130067260E+03  0.21473112222E+02  0.24044290894E+03  0.00000000000E+00 0.  1.
         21    1    1    2  502  501  0.21288651376E+02  0.34014163126E+02 -0.12774957478E+02  0.42111394054E+02  0.00000000000E+00 0. -1.
<scales pt_clust_4="550.00000" pt_clust_5="550.00000" pt_clust_6="40.12694"></scales>
<mgrwt>
<rscale>  0 0.30000000E+03</rscale>
<asrwt>  1 0.40126943E+02</asrwt>
<pdfrwt beam="1">  1        1 0.85471877E+00 0.30000000E+03</pdfrwt>
<pdfrwt beam="2">0</pdfrwt>
<totfact> 0.35753454E-04</totfact>
</mgrwt>
<clustering>
<clus scale="   40.127">  1  6  2 -1</clus>
<clus scale="  465.420">  4  5 -1 -1</clus>
<clus scale="  300.000">  1  4  2 -1</clus>
</clustering>
</event>
<event>
 6    1  0.9462926E-012  0.3000000E+03  0.7818608E-02  0.1093470E+00
          1   -1    0    0  502    0  0.00000000000E+00  0.00000000000E+00  0.23961286590E+03  0.23961286590E+03  0.00000000000E+00 0.  1.
         13   -1    0    0    0    0 -0.00000000000E+00 -0.00000000000E+00 -0.27500000000E+03  0.27500000000E+03  0.00000000000E+00 0.  1.
    9000005    2    1    2  501    0  0.19569609687E+02  0.31261530291E+02 -0.32379534324E+02  0.47760883158E+03  0.47508052881E+03 0.  0.
         13    1    3    3    0    0  0.27854417907E+02  0.24680259670E+03 -0.71353686427E+02  0.25841582556E+03  0.00000000000E+00 0.  1.
          1    1    3    3  501    0 -0.82848082200E+01 -0.21554106641E+03  0.38974152103E+02  0.21919300602E+03  0.00000000000E+00 0.  1.
         21    1    1    2  502  501 -0.19569609687E+02 -0.31261530291E+02 -0.30075997799E+01  0.37004034319E+02  0.00000000000E+00 0. -1.
<scales pt_clust_4="550.00000" pt_clust_5="550.00000" pt_clust_6="36.88162"></scales>
<mgrwt>
<rscale>  0 0.30000000E+03</rscale>
<asrwt>  1 0.36881625E+02</asrwt>
<pdfrwt beam="1">  1        1 0.87131951E+00 0.30000000E+03</pdfrwt>
<pdfrwt beam="2">0</pdfrwt>
<totfact> 0.24313345E-04</totfact>
</mgrwt>
<clustering>
<clus scale="   36.882">  1  6  2 -1</clus>
<clus scale="  475.081">  4  5 -1 -1</clus>
<clus scale="  300.000">  1  4  2 -1</clus>
</clustering>
</event>
<event>
 6    1  0.9462926E-012  0.3000000E+03  0.7818608E-02  0.1093470E+00
          1   -1    0    0  502    0  0.00000000000E+00  0.00000000000E+00  0.22146104482E+03  0.22146104482E+03  0.00000000000E+00 0.  1.
         13   -1    0    0    0    0 -0.00000000000E+00 -0.00000000000E+00 -0.27500000000E+03  0.27500000000E+03  0.00000000000E+00 0.  1.
    9000005    2    1    2  501    0  0.28270983529E+02  0.18052234991E+02 -0.49481443417E+02  0.46267354566E+03  0.45879544997E+03 0.  0.
         13    1    3    3    0    0 -0.19675009736E+03  0.97237701232E+02 -0.21588665259E+01  0.21947763453E+03  0.00000000000E+00 0.  1.
          3    1    3    3  501    0  0.22502108089E+03 -0.79185466240E+02 -0.47322576891E+02  0.24319591113E+03  0.00000000000E+00 0.  1.
         21    1    1    2  502  501 -0.28270983529E+02 -0.18052234991E+02 -0.40575117604E+01  0.33787499161E+02  0.00000000000E+00 0. -1.
<scales pt_clust_4="550.00000" pt_clust_5="550.00000" pt_clust_6="33.54300"></scales>
<mgrwt>
<rscale>  0 0.30000000E+03</rscale>
<asrwt>  1 0.33543000E+02</asrwt>
<pdfrwt beam="1">  1        1 0.80531289E+00 0.30000000E+03</pdfrwt>
<pdfrwt beam="2">0</pdfrwt>
<totfact> 0.95534828E-04</totfact>
</mgrwt>
<clustering>
<clus scale="   33.543">  1  6  2 -1</clus>
<clus scale="  458.795">  4  5 -1 -1</clus>
<clus scale="  300.000">  1  4  2 -1</clus>
</clustering>
</event>
<event>
 6    1  0.9462926E-012  0.3000000E+03  0.7818608E-02  0.1093470E+00
          1   -1    0    0  502    0  0.00000000000E+00  0.00000000000E+00  0.23854104822E+03  0.23854104822E+03  0.00000000000E+00 0.  1.
         13   -1    0    0    0    0 -0.00000000000E+00 -0.00000000000E+00 -0.27500000000E+03  0.27500000000E+03  0.00000000000E+00 0.  1.
    9000005    2    1    2  501    0  0.33509384654E+02  0.30683831236E+02 -0.47128310467E+02  0.46686973397E+03  0.46225738987E+03 0.  0.
         13    1    3    3    0    0 -0.84539275043E+02 -0.60668564804E+02  0.17241948412E+03  0.20138530801E+03  0.00000000000E+00 0.  1.
          3    1    3    3  501    0  0.11804865970E+03  0.91352396039E+02 -0.21954779459E+03  0.26548442596E+03  0.00000000000E+00 0.  1.
         21    1    1    2  502  501 -0.33509384654E+02 -0.30683831236E+02  0.10669358690E+02  0.46671314252E+02  0.00000000000E+00 0. -1.
<scales pt_clust_4="550.00000" pt_clust_5="550.00000" pt_clust_6="45.43541"></scales>
<mgrwt>
<rscale>  0 0.30000000E+03</rscale>
<asrwt>  1 0.45435409E+02</asrwt>
<pdfrwt beam="1">  1        1 0.86742199E+00 0.30000000E+03</pdfrwt>
<pdfrwt beam="2">0</pdfrwt>
<totfact> 0.25672766E-04</totfact>
</mgrwt>
<clustering>
<clus scale="   45.435">  1  6  2 -1</clus>
<clus scale="  462.257">  4  5 -1 -1</clus>
<clus scale="  300.000">  1  4  2 -1</clus>
</clustering>
</event>
<event>
 6    1  0.9462926E-012  0.3000000E+03  0.7818608E-02  0.1093470E+00
          1   -1    0    0  502    0  0.00000000000E+00  0.00000000000E+00  0.23562234361E+03  0.23562234361E+03  0.00000000000E+00 0.  1.
         13   -1    0    0    0    0 -0.00000000000E+00 -0.00000000000E+00 -0.27500000000E+03  0.27500000000E+03  0.00000000000E+00 0.  1.
    9000005    2    1    2  501    0 -0.41188347883E+02  0.48641771645E+01 -0.46884738434E+02  0.46847383827E+03  0.46427299968E+03 0.  0.
         13    1    3    3    0    0 -0.17814600335E+03 -0.15125028799E+03 -0.99880315115E+02  0.25414312006E+03  0.00000000000E+00 0.  1.
          3    1    3    3  501    0  0.13695765546E+03  0.15611446516E+03  0.52995576681E+02  0.21433071821E+03  0.00000000000E+00 0.  1.
         21    1    1    2  502  501  0.41188347883E+02 -0.48641771645E+01  0.75070820394E+01  0.42148505330E+02  0.00000000000E+00 0.  1.
<scales pt_clust_4="550.00000" pt_clust_5="550.00000" pt_clust_6="41.47457"></scales>
<mgrwt>
<rscale>  0 0.30000000E+03</rscale>
<asrwt>  1 0.41474573E+02</asrwt>
<pdfrwt beam="1">  1        1 0.85680852E+00 0.30000000E+03</pdfrwt>
<pdfrwt beam="2">0</pdfrwt>
<totfact> 0.33860173E-04</totfact>
</mgrwt>
<clustering>
<clus scale="   41.475">  1  6  2 -1</clus>
<clus scale="  464.273">  4  5 -1 -1</clus>
<clus scale="  300.000">  1  4  2 -1</clus>
</clustering>
</event>
<event>
 6    1  0.9462926E-012  0.3000000E+03  0.7818608E-02  0.1093470E+00
          1   -1    0    0  502    0  0.00000000000E+00  0.00000000000E+00  0.23436951031E+03  0.23436951031E+03  0.00000000000E+00 0.  1.
         13   -1    0    0    0    0 -0.00000000000E+00 -0.00000000000E+00 -0.27500000000E+03  0.27500000000E+03  0.00000000000E+00 0.  1.
    9000005    2    1    2  501    0 -0.19553341360E+02 -0.25416285848E+02 -0.63154192868E+02  0.47018229365E+03  0.46481675577E+03 0.  0.
         13    1    3    3    0    0  0.18853862199E+03  0.16592115853E+02 -0.14931405426E+03  0.24107425639E+03  0.00000000000E+00 0.  1.
          1    1    3    3  501    0 -0.20809196335E+03 -0.42008401701E+02  0.86159861396E+02  0.22910803727E+03  0.00000000000E+00 0.  1.
         21    1    1    2  502  501  0.19553341360E+02  0.25416285848E+02  0.22523703182E+02  0.39187216662E+02  0.00000000000E+00 0. -1.
<scales pt_clust_4="550.00000" pt_clust_5="550.00000" pt_clust_6="32.06744"></scales>
<mgrwt>
<rscale>  0 0.30000000E+03</rscale>
<asrwt>  1 0.32067441E+02</asrwt>
<pdfrwt beam="1">  1        1 0.85225276E+00 0.30000000E+03</pdfrwt>
<pdfrwt beam="2">0</pdfrwt>
<totfact> 0.39387526E-04</totfact>
</mgrwt>
<clustering>
<clus scale="   32.067">  1  6  2 -1</clus>
<clus scale="  464.817">  4  5 -1 -1</clus>
<clus scale="  300.000">  1  4  2 -1</clus>
</clustering>
</event>
<event>
 6    1  0.9462926E-012  0.3000000E+03  0.7818608E-02  0.1093470E+00
          1   -1    0    0  502    0  0.00000000000E+00  0.00000000000E+00  0.23735003802E+03  0.23735003802E+03  0.00000000000E+00 0.  1.
         13   -1    0    0    0    0 -0.00000000000E+00 -0.00000000000E+00 -0.27500000000E+03  0.27500000000E+03  0.00000000000E+00 0.  1.
    9000005    2    1    2  501    0 -0.35891248481E+02  0.24231843249E+00 -0.28313067332E+02  0.47526340920E+03  0.47305965576E+03 0.  0.
         13    1    3    3    0    0 -0.95786661183E+02  0.14749597524E+03  0.15372491193E+03  0.23358402283E+03  0.00000000000E+00 0.  1.
          1    1    3    3  501    0  0.59895412702E+02 -0.14725365680E+03 -0.18203797926E+03  0.24167938638E+03  0.00000000000E+00 0.  1.
         21    1    1    2  502  501  0.35891248481E+02 -0.24231843249E+00 -0.93368946441E+01  0.37086628822E+02  0.00000000000E+00 0.  1.
<scales pt_clust_4="550.00000" pt_clust_5="550.00000" pt_clust_6="35.89208"></scales>
<mgrwt>
<rscale>  0 0.30000000E+03</rscale>
<asrwt>  1 0.35892084E+02</asrwt>
<pdfrwt beam="1">  1        1 0.86309105E+00 0.30000000E+03</pdfrwt>
<pdfrwt beam="2">0</pdfrwt>
<totfact> 0.29819172E-04</totfact>
</mgrwt>
<clustering>
<clus scale="   35.892">  1  6  2 -1</clus>
<clus scale="  473.060">  4  5 -1 -1</clus>
<clus scale="  300.000">  1  4  2 -1</clus>
</clustering>
</event>
<event>
 6    1  0.9462926E-012  0.3000000E+03  0.7818608E-02  0.1093470E+00
          1   -1    0    0  502    0  0.00000000000E+00  0.00000000000E+00  0.23994446130E+03  0.23994446130E+03  0.00000000000E+00 0.  1.
         13   -1    0    0    0    0 -0.00000000000E+00 -0.00000000000E+00 -0.27500000000E+03  0.27500000000E+03  0.00000000000E+00 0.  1.
    9000005    2    1    2  501    0 -0.29956617814E+02  0.30151347390E+02 -0.30608069712E+02  0.47220943257E+03  0.46929563345E+03 0.  0.
         13    1    3    3    0    0  0.11084611414E+03 -0.15324366920E+03 -0.12036823700E+03  0.22418518160E+03  0.00000000000E+00 0.  1.
          3    1    3    3  501    0 -0.14080273196E+03  0.18339501659E+03  0.89760167285E+02  0.24802425097E+03  0.00000000000E+00 0.  1.
         21    1    1    2  502  501  0.29956617814E+02 -0.30151347390E+02 -0.44474689896E+01  0.42735028732E+02  0.00000000000E+00 0.  1.
<scales pt_clust_4="550.00000" pt_clust_5="550.00000" pt_clust_6="42.50299"></scales>
<mgrwt>
<rscale>  0 0.30000000E+03</rscale>
<asrwt>  1 0.42502994E+02</asrwt>
<pdfrwt beam="1">  1        1 0.87252531E+00 0.30000000E+03</pdfrwt>
<pdfrwt beam="2">0</pdfrwt>
<totfact> 0.23027892E-04</totfact>
</mgrwt>
<clustering>
<clus scale="   42.503">  1  6  2 -1</clus>
<clus scale="  469.296">  4  5 -1 -1</clus>
<clus scale="  300.000">  1  4  2 -1</clus>
</clustering>
</event>
<event>
 6    1  0.9462926E-012  0.3000000E+03  0.7818608E-02  0.1093470E+00
          1   -1    0    0  502    0  0.00000000000E+00  0.00000000000E+00  0.22167204025E+03  0.22167204025E+03  0.00000000000E+00 0.  1.
         13   -1    0    0    0    0 -0.00000000000E+00 -0.00000000000E+00 -0.27500000000E+03  0.27500000000E+03  0.00000000000E+00 0.  1.
    9000005    2    1    2  501    0 -0.63440114925E+01 -0.29726014129E+02 -0.62187174569E+02  0.46501184308E+03  0.45983136814E+03 0.  0.
         13    1    3    3    0    0  0.76073620947E+02  0.14069242327E+03 -0.18097757033E+03  0.24152522587E+03  0.00000000000E+00 0.  1.
          3    1    3    3  501    0 -0.82417632439E+02 -0.17041843740E+03  0.11879039576E+03  0.22348661720E+03  0.00000000000E+00 0.  1.
         21    1    1    2  502  501  0.63440114925E+01  0.29726014129E+02  0.88592148164E+01  0.31660197172E+02  0.00000000000E+00 0. -1.
<scales pt_clust_4="550.00000" pt_clust_5="550.00000" pt_clust_6="30.39543"></scales>
<mgrwt>
<rscale>  0 0.30000000E+03</rscale>
<asrwt>  1 0.30395434E+02</asrwt>
<pdfrwt beam="1">  1        1 0.80608015E+00 0.30000000E+03</pdfrwt>
<pdfrwt beam="2">0</pdfrwt>
<totfact> 0.96039314E-04</totfact>
</mgrwt>
<clustering>
<clus scale="   30.395">  1  6  2 -1</clus>
<clus scale="  459.831">  4  5 -1 -1</clus>
<clus scale="  300.000">  1  4  2 -1</clus>
</clustering>
</event>
<event>
 6    1  0.9462926E-012  0.3000000E+03  0.7818608E-02  0.1093470E+00
          1   -1    0    0  502    0  0.00000000000E+00  0.00000000000E+00  0.21802102184E+03  0.21802102184E+03  0.00000000000E+00 0.  1.
         13   -1    0    0    0    0 -0.00000000000E+00 -0.00000000000E+00 -0.27500000000E+03  0.27500000000E+03  0.00000000000E+00 0.  1.
    9000005    2    1    2  501    0  0.60762112342E+01 -0.29571726060E+02 -0.46422692240E+02  0.46103911294E+03  0.45770142012E+03 0.  0.
         13    1    3    3    0    0  0.10213253704E+03 -0.99110563004E+02  0.16545007181E+03  0.21823768025E+03  0.00000000000E+00 0.  1.
          1    1    3    3  501    0 -0.96056325802E+02  0.69538836944E+02 -0.21187276405E+03  0.24280143269E+03  0.00000000000E+00 0.  1.
         21    1    1    2  502  501 -0.60762112342E+01  0.29571726060E+02 -0.10556285916E+02  0.31981908909E+02  0.00000000000E+00 0. -1.
<scales pt_clust_4="550.00000" pt_clust_5="550.00000" pt_clust_6="30.18954"></scales>
<mgrwt>
<rscale>  0 0.30000000E+03</rscale>
<asrwt>  1 0.30189539E+02</asrwt>
<pdfrwt beam="1">  1        1 0.79280372E+00 0.30000000E+03</pdfrwt>
<pdfrwt beam="2">0</pdfrwt>
<totfact> 0.12056024E-03</totfact>
</mgrwt>
<clustering>
<clus scale="   30.190">  1  6  2 -1</clus>
<clus scale="  457.701">  4  5 -1 -1</clus>
<clus scale="  300.000">  1  4  2 -1</clus>
</clustering>
</event>
<event>
 6    1  0.9462926E-012  0.3000000E+03  0.7818608E-02  0.1093470E+00
          1   -1    0    0  502    0  0.00000000000E+00  0.00000000000E+00  0.23216943899E+03  0.23216943899E+03  0.00000000000E+00 0.  1.
         13   -1    0    0    0    0 -0.00000000000E+00 -0.00000000000E+00 -0.27500000000E+03  0.27500000000E+03  0.00000000000E+00 0.  1.
    9000005    2    1    2  501    0 -0.28851190173E+02 -0.93308886117E+01 -0.43592955695E+02  0.47683731241E+03  0.47387131172E+03 0.  0.
         13    1    3    3    0    0 -0.43781135298E+02  0.36610623658E+02 -0.25431967534E+03  0.26064462941E+03  0.00000000000E+00 0.  1.
          1    1    3    3  501    0  0.14929945125E+02 -0.45941512270E+02  0.21072671965E+03  0.21619268301E+03  0.00000000000E+00 0.  1.
         21    1    1    2  502  501  0.28851190173E+02  0.93308886117E+01  0.76239467983E+00  0.30332126571E+02  0.00000000000E+00 0.  1.
<scales pt_clust_4="550.00000" pt_clust_5="550.00000" pt_clust_6="30.32254"></scales>
<mgrwt>
<rscale>  0 0.30000000E+03</rscale>
<asrwt>  1 0.30322544E+02</asrwt>
<pdfrwt beam="1">  1        1 0.84425251E+00 0.30000000E+03</pdfrwt>
<pdfrwt beam="2">0</pdfrwt>
<totfact> 0.47127082E-04</totfact>
</mgrwt>
<clustering>
<clus scale="   30.323">  1  6  2 -1</clus>
<clus scale="  473.871">  4  5 -1 -1</clus>
<clus scale="  300.000">  1  4  2 -1</clus>
</clustering>
</event>
<event>
 6    1  0.9462926E-012  0.3000000E+03  0.7818608E-02  0.1093470E+00
          1   -1    0    0  502    0  0.00000000000E+00  0.00000000000E+00  0.23211921269E+03  0.23211921269E+03  0.00000000000E+00 0.  1.
         13   -1    0    0    0    0 -0.00000000000E+00 -0.00000000000E+00 -0.27500000000E+03  0.27500000000E+03  0.00000000000E+00 0.  1.
    9000005    2    1    2  501    0 -0.31058707068E+02  0.59602518583E+01 -0.33798130850E+02  0.47421537499E+03  0.47195099358E+03 0.  0.
         13    1    3    3    0    0  0.36367182476E+02  0.14118731922E+03  0.16778914391E+03  0.22228276560E+03  0.00000000000E+00 0.  1.
          3    1    3    3  501    0 -0.67425889544E+02 -0.13522706736E+03 -0.20158727476E+03  0.25193260939E+03  0.00000000000E+00 0.  1.
         21    1    1    2  502  501  0.31058707068E+02 -0.59602518583E+01 -0.90826564624E+01  0.32903837700E+02  0.00000000000E+00 0. -1.
<scales pt_clust_4="550.00000" pt_clust_5="550.00000" pt_clust_6="31.62545"></scales>
<mgrwt>
<rscale>  0 0.30000000E+03</rscale>
<asrwt>  1 0.31625447E+02</asrwt>
<pdfrwt beam="1">  1        1 0.84406986E+00 0.30000000E+03</pdfrwt>
<pdfrwt beam="2">0</pdfrwt>
<totfact> 0.46918599E-04</totfact>
</mgrwt>
<clustering>
<clus scale="   31.625">  1  6  2 -1</clus>
<clus scale="  471.951">  4  5 -1 -1</clus>
<clus scale="  300.000">  1  4  2 -1</clus>
</clustering>
</event>
<event>
 6    1  0.9462926E-012  0.3000000E+03  0.7818608E-02  0.1093470E+00
          1   -1    0    0  502    0  0.00000000000E+00  0.00000000000E+00  0.25981894672E+03  0.25981894672E+03  0.00000000000E+00 0.  1.
         13   -1    0    0    0    0 -0.00000000000E+00 -0.00000000000E+00 -0.27500000000E+03  0.27500000000E+03  0.00000000000E+00 0.  1.
    9000005    2    1    2  501    0 -0.25151649461E+02  0.17724759624E+02 -0.46192608948E+02  0.49113268848E+03  0.48798646292E+03 0.  0.
         13    1    3    3    0    0  0.32965124365E+02  0.21647500314E+03  0.96875410480E+02  0.23944304451E+03  0.00000000000E+00 0.  1.
          3    1    3    3  501    0 -0.58116773826E+02 -0.19875024351E+03 -0.14306801943E+03  0.25168964397E+03  0.00000000000E+00 0.  1.
         21    1    1    2  502  501  0.25151649461E+02 -0.17724759624E+02  0.31011555664E+02  0.43686258241E+02  0.00000000000E+00 0. -1.
<scales pt_clust_4="550.00000" pt_clust_5="550.00000" pt_clust_6="30.76967"></scales>
<mgrwt>
<rscale>  0 0.30000000E+03</rscale>
<asrwt>  1 0.30769670E+02</asrwt>
<pdfrwt beam="1">  1        1 0.94479617E+00 0.30000000E+03</pdfrwt>
<pdfrwt beam="2">0</pdfrwt>
<totfact> 0.16076286E-05</totfact>
</mgrwt>
<clustering>
<clus scale="   30.770">  1  6  2 -1</clus>
<clus scale="  487.986">  4  5 -1 -1</clus>
<clus scale="  300.000">  1  4  2 -1</clus>
</clustering>
</event>
<event>
 6    1  0.9462926E-012  0.3000000E+03  0.7818608E-02  0.1093470E+00
          1   -1    0    0  502    0  0.00000000000E+00  0.00000000000E+00  0.24375945309E+03  0.24375945309E+03  0.00000000000E+00 0.  1.
         13   -1    0    0    0    0 -0.00000000000E+00 -0.00000000000E+00 -0.27500000000E+03  0.27500000000E+03  0.00000000000E+00 0.  1.
    9000005    2    1    2  501    0  0.57544348106E+01 -0.31689525558E+02 -0.35964257433E+02  0.48620714148E+03  0.48380431691E+03 0.  0.
         13    1    3    3    0    0  0.12532671381E+03 -0.19488789403E+03 -0.12714016637E+03  0.26429661053E+03  0.00000000000E+00 0.  1.
          3    1    3    3  501    0 -0.11957227900E+03  0.16319836847E+03  0.91175908939E+02  0.22191053095E+03  0.00000000000E+00 0.  1.
         21    1    1    2  502  501 -0.57544348106E+01  0.31689525558E+02  0.47237105226E+01  0.32552311610E+02  0.00000000000E+00 0. -1.
<scales pt_clust_4="550.00000" pt_clust_5="550.00000" pt_clust_6="32.20776"></scales>
<mgrwt>
<rscale>  0 0.30000000E+03</rscale>
<asrwt>  1 0.32207756E+02</asrwt>
<pdfrwt beam="1">  1        1 0.88639801E+00 0.30000000E+03</pdfrwt>
<pdfrwt beam="2">0</pdfrwt>
<totfact> 0.16491497E-04</totfact>
</mgrwt>
<clustering>
<clus scale="   32.208">  1  6  2 -1</clus>
<clus scale="  483.804">  4  5 -1 -1</clus>
<clus scale="  300.000">  1  4  2 -1</clus>
</clustering>
</event>
<event>
 6    1  0.9462926E-012  0.3000000E+03  0.7818608E-02  0.1093470E+00
          1   -1    0    0  502    0  0.00000000000E+00  0.00000000000E+00  0.23353516363E+03  0.23353516363E+03  0.00000000000E+00 0.  1.
         13   -1    0    0    0    0 -0.00000000000E+00 -0.00000000000E+00 -0.27500000000E+03  0.27500000000E+03  0.00000000000E+00 0.  1.
    9000005    2    1    2  501    0 -0.19407044070E+02  0.25887418411E+02 -0.55146925557E+02  0.47340695052E+03  0.46906946779E+03 0.  0.
         13    1    3    3    0    0 -0.60116503392E+02  0.18925913846E+03  0.11873582613E+03  0.23136813065E+03  0.00000000000E+00 0.  1.
          1    1    3    3  501    0  0.40709459322E+02 -0.16337172005E+03 -0.17388275169E+03  0.24203881987E+03  0.00000000000E+00 0.  1.
         21    1    1    2  502  501  0.19407044070E+02 -0.25887418411E+02  0.13682089184E+02  0.35128213105E+02  0.00000000000E+00 0.  1.
<scales pt_clust_4="550.00000" pt_clust_5="550.00000" pt_clust_6="32.35416"></scales>
<mgrwt>
<rscale>  0 0.30000000E+03</rscale>
<asrwt>  1 0.32354162E+02</asrwt>
<pdfrwt beam="1">  1        1 0.84921878E+00 0.30000000E+03</pdfrwt>
<pdfrwt beam="2">0</pdfrwt>
<totfact> 0.42005712E-04</totfact>
</mgrwt>
<clustering>
<clus scale="   32.354">  1  6  2 -1</clus>
<clus scale="  469.069">  4  5 -1 -1</clus>
<clus scale="  300.000">  1  4  2 -1</clus>
</clustering>
</event>
<event>
 6    1  0.9462926E-012  0.3000000E+03  0.7818608E-02  0.1093470E+00
          1   -1    0    0  502    0  0.00000000000E+00  0.00000000000E+00  0.23201740105E+03  0.23201740105E+03  0.00000000000E+00 0.  1.
         13   -1    0    0    0    0 -0.00000000000E+00 -0.00000000000E+00 -0.27500000000E+03  0.27500000000E+03  0.00000000000E+00 0.  1.
    9000005    2    1    2  501    0  0.33696590848E+02  0.60427755123E+01 -0.67931945505E+02  0.46465650795E+03  0.45838733162E+03 0.  0.
         13    1    3    3    0    0 -0.12939816162E+03 -0.16269186697E+03  0.30640034886E+02  0.21012220147E+03  0.00000000000E+00 0.  1.
          1    1    3    3  501    0  0.16309475247E+03  0.16873464249E+03 -0.98571980391E+02  0.25453430648E+03  0.00000000000E+00 0.  1.
         21    1    1    2  502  501 -0.33696590848E+02 -0.60427755123E+01  0.24949346557E+02  0.42360893100E+02  0.00000000000E+00 0.  1.
<scales pt_clust_4="550.00000" pt_clust_5="550.00000" pt_clust_6="34.23413"></scales>
<mgrwt>
<rscale>  0 0.30000000E+03</rscale>
<asrwt>  1 0.34234126E+02</asrwt>
<pdfrwt beam="1">  1        1 0.84369964E+00 0.30000000E+03</pdfrwt>
<pdfrwt beam="2">0</pdfrwt>
<totfact> 0.46559143E-04</totfact>
</mgrwt>
<clustering>
<clus scale="   34.234">  1  6  2 -1</clus>
<clus scale="  458.387">  4  5 -1 -1</clus>
<clus scale="  300.000">  1  4  2 -1</clus>
</clustering>
</event>
<event>
 6    1  0.9462926E-012  0.3000000E+03  0.7818608E-02  0.1093470E+00
          1   -1    0    0  502    0  0.00000000000E+00  0.00000000000E+00  0.23754440143E+03  0.23754440143E+03  0.00000000000E+00 0.  1.
         13   -1    0    0    0    0 -0.00000000000E+00 -0.00000000000E+00 -0.27500000000E+03  0.27500000000E+03  0.00000000000E+00 0.  1.
    9000005    2    1    2  501    0  0.30827749279E+02 -0.40406843416E+02 -0.33336947763E+02  0.46155394737E+03  0.45753429503E+03 0.  0.
         13    1    3    3    0    0 -0.11976777158E+03 -0.18136953123E+03  0.73263824535E+02  0.22936175346E+03  0.00000000000E+00 0.  1.
          1    1    3    3  501    0  0.15059552086E+03  0.14096268781E+03 -0.10660077230E+03  0.23219219391E+03  0.00000000000E+00 0.  1.
         21    1    1    2  502  501 -0.30827749279E+02  0.40406843416E+02 -0.41186508089E+01  0.50990454057E+02  0.00000000000E+00 0. -1.
<scales pt_clust_4="550.00000" pt_clust_5="550.00000" pt_clust_6="50.82387"></scales>
<mgrwt>
<rscale>  0 0.30000000E+03</rscale>
<asrwt>  1 0.50823869E+02</asrwt>
<pdfrwt beam="1">  1        1 0.86379782E+00 0.30000000E+03</pdfrwt>
<pdfrwt beam="2">0</pdfrwt>
<totfact> 0.27516746E-04</totfact>
</mgrwt>
<clustering>
<clus scale="   50.824">  1  6  2 -1</clus>
<clus scale="  457.534">  4  5 -1 -1</clus>
<clus scale="  300.000">  1  4  2 -1</clus>
</clustering>
</event>
<event>
 6    1  0.9462926E-012  0.3000000E+03  0.7818608E-02  0.1093470E+00
          1   -1    0    0  502    0  0.00000000000E+00  0.00000000000E+00  0.24125205331E+03  0.24125205331E+03  0.00000000000E+00 0.  1.
         13   -1    0    0    0    0 -0.00000000000E+00 -0.00000000000E+00 -0.27500000000E+03  0.27500000000E+03  0.00000000000E+00 0.  1.
    9000005    2    1    2  501    0  0.31872810287E+02  0.20989878707E+02 -0.69020582899E+02  0.46428466056E+03  0.45753683363E+03 0.  0.
         13    1    3    3    0    0 -0.16743113126E+02 -0.15859477123E+03  0.11960477430E+03  0.19934376172E+03  0.00000000000E+00 0.  1.
          1    1    3    3  501    0  0.48615923413E+02  0.17958464994E+03 -0.18862535720E+03  0.26494089885E+03  0.00000000000E+00 0.  1.
         21    1    1    2  502  501 -0.31872810287E+02 -0.20989878707E+02  0.35272636206E+02  0.51967392744E+02  0.00000000000E+00 0. -1.
<scales pt_clust_4="550.00000" pt_clust_5="550.00000" pt_clust_6="38.16348"></scales>
<mgrwt>
<rscale>  0 0.30000000E+03</rscale>
<asrwt>  1 0.38163478E+02</asrwt>
<pdfrwt beam="1">  1        1 0.87728019E+00 0.30000000E+03</pdfrwt>
<pdfrwt beam="2">0</pdfrwt>
<totfact> 0.20907191E-04</totfact>
</mgrwt>
<clustering>
<clus scale="   38.163">  1  6  2 -1</clus>
<clus scale="  457.537">  4  5 -1 -1</clus>
<clus scale="  300.000">  1  4  2 -1</clus>
</clustering>
</event>
<event>
 6    1  0.9462926E-012  0.3000000E+03  0.7818608E-02  0.1093470E+00
          1   -1    0    0  502    0  0.00000000000E+00  0.00000000000E+00  0.23359647513E+03  0.23359647513E+03  0.00000000000E+00 0.  1.
         13   -1    0    0    0    0 -0.00000000000E+00 -0.00000000000E+00 -0.27500000000E+03  0.27500000000E+03  0.00000000000E+00 0.  1.
    9000005    2    1    2  501    0 -0.11131702879E+02  0.31656624127E+02 -0.42701781768E+02  0.47501460307E+03  0.47189975027E+03 0.  0.
         13    1    3    3    0    0  0.11499500395E+03  0.19457313452E+03  0.74502816027E+02  0.23797736280E+03  0.00000000000E+00 0.  1.
          1    1    3    3  501    0 -0.12612670683E+03 -0.16291651039E+03 -0.11720459780E+03  0.23703724027E+03  0.00000000000E+00 0.  1.
         21    1    1    2  502  501  0.11131702879E+02 -0.31656624127E+02  0.12982569026E+01  0.33581872060E+02  0.00000000000E+00 0. -1.
<scales pt_clust_4="550.00000" pt_clust_5="550.00000" pt_clust_6="33.55677"></scales>
<mgrwt>
<rscale>  0 0.30000000E+03</rscale>
<asrwt>  1 0.33556768E+02</asrwt>
<pdfrwt beam="1">  1        1 0.84944173E+00 0.30000000E+03</pdfrwt>
<pdfrwt beam="2">0</pdfrwt>
<totfact> 0.41517890E-04</totfact>
</mgrwt>
<clustering>
<clus scale="   33.557">  1  6  2 -1</clus>
<clus scale="  471.900">  4  5 -1 -1</clus>
<clus scale="  300.000">  1  4  2 -1</clus>
</clustering>
</event>
<event>
 6    1  0.9462926E-012  0.3000000E+03  0.7818608E-02  0.1093470E+00
          1   -1    0    0  502    0  0.00000000000E+00  0.00000000000E+00  0.24820543155E+03  0.24820543155E+03  0.00000000000E+00 0.  1.
         13   -1    0    0    0    0 -0.00000000000E+00 -0.00000000000E+00 -0.27500000000E+03  0.27500000000E+03  0.00000000000E+00 0.  1.
    9000005    2    1    2  501    0  0.36485220843E+02 -0.88427339975E+01 -0.31265866405E+02  0.48539858310E+03  0.48293360288E+03 0.  0.
         13    1    3    3    0    0 -0.39931240185E+02 -0.10631094040E+03  0.19603040058E+03  0.22654897471E+03  0.00000000000E+00 0.  1.
          1    1    3    3  501    0  0.76416461028E+02  0.97468206405E+02 -0.22729626698E+03  0.25884960839E+03  0.00000000000E+00 0.  1.
         21    1    1    2  502  501 -0.36485220843E+02  0.88427339975E+01  0.44712979560E+01  0.37806848453E+02  0.00000000000E+00 0.  1.
<scales pt_clust_4="550.00000" pt_clust_5="550.00000" pt_clust_6="37.54151"></scales>
<mgrwt>
<rscale>  0 0.30000000E+03</rscale>
<asrwt>  1 0.37541514E+02</asrwt>
<pdfrwt beam="1">  1        1 0.90256521E+00 0.30000000E+03</pdfrwt>
<pdfrwt beam="2">0</pdfrwt>
<totfact> 0.10047939E-04</totfact>
</mgrwt>
<clustering>
<clus scale="   37.542">  1  6  2 -1</clus>
<clus scale="  482.934">  4  5 -1 -1</clus>
<clus scale="  300.000">  1  4  2 -1</clus>
</clustering>
</event>
<event>
 6    1  0.9462926E-012  0.3000000E+03  0.7818608E-02  0.1093470E+00
          1   -1    0    0  502    0  0.00000000000E+00  0.00000000000E+00  0.24058850546E+03  0.24058850546E+03  0.00000000000E+00 0.  1.
         13   -1    0    0    0    0 -0.00000000000E+00 -0.00000000000E+00 -0.27500000000E+03  0.27500000000E+03  0.00000000000E+00 0.  1.
    9000005    2    1    2  501    0 -0.25356081915E+02  0.26459246731E+02 -0.32283363073E+02  0.47887949333E+03  0.47638254688E+03 0.  0.
         13    1    3    3    0    0 -0.14037001638E+02  0.24541884042E+03 -0.71808086988E+02  0.25609343217E+03  0.00000000000E+00 0.  1.
          3    1    3    3  501    0 -0.11319080276E+02 -0.21895959369E+03  0.39524723914E+02  0.22278606116E+03  0.00000000000E+00 0.  1.
         21    1    1    2  502  501  0.25356081915E+02 -0.26459246731E+02 -0.21281314701E+01  0.36709012125E+02  0.00000000000E+00 0.  1.
<scales pt_clust_4="550.00000" pt_clust_5="550.00000" pt_clust_6="36.64727"></scales>
<mgrwt>
<rscale>  0 0.30000000E+03</rscale>
<asrwt>  1 0.36647273E+02</asrwt>
<pdfrwt beam="1">  1        1 0.87486729E+00 0.30000000E+03</pdfrwt>
<pdfrwt beam="2">0</pdfrwt>
<totfact> 0.22372984E-04</totfact>
</mgrwt>
<clustering>
<clus scale="   36.647">  1  6  2 -1</clus>
<clus scale="  476.383">  4  5 -1 -1</clus>
<clus scale="  300.000">  1  4  2 -1</clus>
</clustering>
</event>
<event>
 6    1  0.9462926E-012  0.3000000E+03  0.7818608E-02  0.1093470E+00
          1   -1    0    0  502    0  0.00000000000E+00  0.00000000000E+00  0.25825917735E+03  0.25825917735E+03  0.00000000000E+00 0.  1.
         13   -1    0    0    0    0 -0.00000000000E+00 -0.00000000000E+00 -0.27500000000E+03  0.27500000000E+03  0.00000000000E+00 0.  1.
    9000005    2    1    2  501    0  0.32333858921E+02  0.11780473015E+02 -0.39461296195E+02  0.49202232617E+03  0.48922849219E+03 0.  0.
         13    1    3    3    0    0 -0.87800078216E+02 -0.76026914848E+02  0.18754361821E+03  0.22059364054E+03  0.00000000000E+00 0.  1.
          1    1    3    3  501    0  0.12013393714E+03  0.87807387863E+02 -0.22700491441E+03  0.27142868563E+03  0.00000000000E+00 0.  1.
         21    1    1    2  502  501 -0.32333858921E+02 -0.11780473015E+02  0.22720473543E+02  0.41236851180E+02  0.00000000000E+00 0. -1.
<scales pt_clust_4="550.00000" pt_clust_5="550.00000" pt_clust_6="34.41305"></scales>
<mgrwt>
<rscale>  0 0.30000000E+03</rscale>
<asrwt>  1 0.34413050E+02</asrwt>
<pdfrwt beam="1">  1        1 0.93912428E+00 0.30000000E+03</pdfrwt>
<pdfrwt beam="2">0</pdfrwt>
<totfact> 0.19873534E-05</totfact>
</mgrwt>
<clustering>
<clus scale="   34.413">  1  6  2 -1</clus>
<clus scale="  489.228">  4  5 -1 -1</clus>
<clus scale="  300.000">  1  4  2 -1</clus>
</clustering>
</event>
<event>
 6    1  0.9462926E-012  0.3000000E+03  0.7818608E-02  0.1093470E+00
          1   -1    0    0  502    0  0.00000000000E+00  0.00000000000E+00  0.23493089580E+03  0.23493089580E+03  0.00000000000E+00 0.  1.
         13   -1    0    0    0    0 -0.00000000000E+00 -0.00000000000E+00 -0.27500000000E+03  0.27500000000E+03  0.00000000000E+00 0.  1.
    9000005    2    1    2  501    0 -0.35880939039E+02 -0.29820569321E+02 -0.43780194329E+02  0.46312832824E+03  0.45868773131E+03 0.  0.
         13    1    3    3    0    0  0.12858175207E+03 -0.55431203977E+02  0.15166210623E+03  0.20641530904E+03  0.00000000000E+00 0.  1.
          1    1    3    3  501    0 -0.16446269111E+03  0.25610634656E+02 -0.19544230056E+03  0.25671301919E+03  0.00000000000E+00 0.  1.
         21    1    1    2  502  501  0.35880939039E+02  0.29820569321E+02  0.37110901327E+01  0.46802567568E+02  0.00000000000E+00 0. -1.
<scales pt_clust_4="550.00000" pt_clust_5="550.00000" pt_clust_6="46.65520"></scales>
<mgrwt>
<rscale>  0 0.30000000E+03</rscale>
<asrwt>  1 0.46655205E+02</asrwt>
<pdfrwt beam="1">  1        1 0.85429417E+00 0.30000000E+03</pdfrwt>
<pdfrwt beam="2">0</pdfrwt>
<totfact> 0.35132330E-04</totfact>
</mgrwt>
<clustering>
<clus scale="   46.655">  1  6  2 -1</clus>
<clus scale="  458.688">  4  5 -1 -1</clus>
<clus scale="  300.000">  1  4  2 -1</clus>
</clustering>
</event>
<event>
 6    1  0.9462926E-012  0.3000000E+03  0.7818608E-02  0.1093470E+00
          1   -1    0    0  502    0  0.00000000000E+00  0.00000000000E+00  0.23211907018E+03  0.23211907018E+03  0.00000000000E+00 0.  1.
         13   -1    0    0    0    0 -0.00000000000E+00 -0.00000000000E+00 -0.27500000000E+03  0.27500000000E+03  0.00000000000E+00 0.  1.
    9000005    2    1    2  501    0 -0.15040495194E+02  0.27610164855E+02 -0.46248782145E+02  0.47549818897E+03  0.47219809420E+03 0.  0.
         13    1    3    3    0    0  0.19826969296E+03  0.36635919075E+02  0.91500051829E+02  0.22141662358E+03  0.00000000000E+00 0.  1.
          3    1    3    3  501    0 -0.21331018816E+03 -0.90257542194E+01 -0.13774883397E+03  0.25408156539E+03  0.00000000000E+00 0.  1.
         21    1    1    2  502  501  0.15040495194E+02 -0.27610164855E+02  0.33678523244E+01  0.31620881207E+02  0.00000000000E+00 0.  1.
<scales pt_clust_4="550.00000" pt_clust_5="550.00000" pt_clust_6="31.44102"></scales>
<mgrwt>
<rscale>  0 0.30000000E+03</rscale>
<asrwt>  1 0.31441019E+02</asrwt>
<pdfrwt beam="1">  1        1 0.84406935E+00 0.30000000E+03</pdfrwt>
<pdfrwt beam="2">0</pdfrwt>
<totfact> 0.46971456E-04</totfact>
</mgrwt>
<clustering>
<clus scale="   31.441">  1  6  2 -1</clus>
<clus scale="  472.198">  4  5 -1 -1</clus>
<clus scale="  300.000">  1  4  2 -1</clus>
</clustering>
</event>
<event>
 6    1  0.9462926E-012  0.3000000E+03  0.7818608E-02  0.1093470E+00
          1   -1    0    0  502    0  0.00000000000E+00  0.00000000000E+00  0.23729423230E+03  0.23729423230E+03  0.00000000000E+00 0.  1.
         13   -1    0    0    0    0 -0.00000000000E+00 -0.00000000000E+00 -0.27500000000E+03  0.27500000000E+03  0.00000000000E+00 0.  1.
    9000005    2    1    2  501    0  0.19275570118E+02 -0.27837529480E+02 -0.52627131678E+02  0.47529257350E+03  0.47115489999E+03 0.  0.
         13    1    3    3    0    0  0.18014222509E+03  0.11845032655E+03  0.68725751999E+02  0.22628506382E+03  0.00000000000E+00 0.  1.
          1    1    3    3  501    0 -0.16086665497E+03 -0.14628785603E+03 -0.12135288368E+03  0.24900750969E+03  0.00000000000E+00 0.  1.
         21    1    1    2  502  501 -0.19275570118E+02  0.27837529480E+02  0.14921363981E+02  0.37001658800E+02  0.00000000000E+00 0.  1.
<scales pt_clust_4="550.00000" pt_clust_5="550.00000" pt_clust_6="33.85965"></scales>
<mgrwt>
<rscale>  0 0.30000000E+03</rscale>
<asrwt>  1 0.33859646E+02</asrwt>
<pdfrwt beam="1">  1        1 0.86288812E+00 0.30000000E+03</pdfrwt>
<pdfrwt beam="2">0</pdfrwt>
<totfact> 0.30299136E-04</totfact>
</mgrwt>
<clustering>
<clus scale="   33.860">  1  6  2 -1</clus>
<clus scale="  471.155">  4  5 -1 -1</clus>
<clus scale="  300.000">  1  4  2 -1</clus>
</clustering>
</event>
<event>
 6    1  0.9462926E-012  0.3000000E+03  0.7818608E-02  0.1093470E+00
          1   -1    0    0  502    0  0.00000000000E+00  0.00000000000E+00  0.22302145062E+03  0.22302145062E+03  0.00000000000E+00 0.  1.
         13   -1    0    0    0    0 -0.00000000000E+00 -0.00000000000E+00 -0.27500000000E+03  0.27500000000E+03  0.00000000000E+00 0.  1.
    9000005    2    1    2  501    0  0.20382889786E+02 -0.23212184936E+02 -0.32777616732E+02  0.46164915979E+03  0.45944673995E+03 0.  0.
         13    1    3    3    0    0 -0.19892818068E+03 -0.92229272708E+02 -0.66829518014E+02  0.22922662213E+03  0.00000000000E+00 0.  1.
          3    1    3    3  501    0  0.21931107047E+03  0.69017087772E+02  0.34051901282E+02  0.23242253766E+03  0.00000000000E+00 0.  1.
         21    1    1    2  502  501 -0.20382889786E+02  0.23212184936E+02 -0.19200932649E+02  0.36372290829E+02  0.00000000000E+00 0. -1.
<scales pt_clust_4="550.00000" pt_clust_5="550.00000" pt_clust_6="30.89124"></scales>
<mgrwt>
<rscale>  0 0.30000000E+03</rscale>
<asrwt>  1 0.30891240E+02</asrwt>
<pdfrwt beam="1">  1        1 0.81098709E+00 0.30000000E+03</pdfrwt>
<pdfrwt beam="2">0</pdfrwt>
<totfact> 0.87726724E-04</totfact>
</mgrwt>
<clustering>
<clus scale="   30.891">  1  6  2 -1</clus>
<clus scale="  459.447">  4  5 -1 -1</clus>
<clus scale="  300.000">  1  4  2 -1</clus>
</clustering>
</event>
<event>
 6    1  0.9462926E-012  0.3000000E+03  0.7818608E-02  0.1093470E+00
          1   -1    0    0  502    0  0.00000000000E+00  0.00000000000E+00  0.23140284991E+03  0.23140284991E+03  0.00000000000E+00 0.  1.
         13   -1    0    0    0    0 -0.00000000000E+00 -0.00000000000E+00 -0.27500000000E+03  0.27500000000E+03  0.00000000000E+00 0.  1.
    9000005    2    1    2  501    0 -0.39191720496E+02  0.83114424109E+01 -0.48201568084E+02  0.46607579081E+03  0.46184215981E+03 0.  0.
         13    1    3    3    0    0  0.20981928446E+03 -0.27826573088E+02 -0.30382910346E+02  0.21382603102E+03  0.00000000000E+00 0.  1.
          3    1    3    3  501    0 -0.24901100495E+03  0.36138015499E+02 -0.17818657737E+02  0.25224975979E+03  0.00000000000E+00 0.  1.
         21    1    1    2  502  501  0.39191720496E+02 -0.83114424109E+01  0.46044179894E+01  0.40327059097E+02  0.00000000000E+00 0. -1.
<scales pt_clust_4="550.00000" pt_clust_5="550.00000" pt_clust_6="40.06334"></scales>
<mgrwt>
<rscale>  0 0.30000000E+03</rscale>
<asrwt>  1 0.40063338E+02</asrwt>
<pdfrwt beam="1">  1        1 0.84146491E+00 0.30000000E+03</pdfrwt>
<pdfrwt beam="2">0</pdfrwt>
<totfact> 0.47209112E-04</totfact>
</mgrwt>
<clustering>
<clus scale="   40.063">  1  6  2 -1</clus>
<clus scale="  461.842">  4  5 -1 -1</clus>
<clus scale="  300.000">  1  4  2 -1</clus>
</clustering>
</event>
<event>
 6    1  0.9462926E-012  0.3000000E+03  0.7818608E-02  0.1093470E+00
          1   -1    0    0  502    0  0.00000000000E+00  0.00000000000E+00  0.23752680911E+03  0.23752680911E+03  0.00000000000E+00 0.  1.
         13   -1    0    0    0    0 -0.00000000000E+00 -0.00000000000E+00 -0.27500000000E+03  0.27500000000E+03  0.00000000000E+00 0.  1.
    9000005    2    1    2  501    0  0.64349687032E+01  0.30957958286E+02 -0.43079165570E+02  0.48041402419E+03  0.47743273466E+03 0.  0.
         13    1    3    3    0    0  0.10513689271E+03  0.19129088321E+03  0.10372114877E+03  0.24166928831E+03  0.00000000000E+00 0.  1.
          1    1    3    3  501    0 -0.98701924011E+02 -0.16033292493E+03 -0.14680031434E+03  0.23874473588E+03  0.00000000000E+00 0.  1.
         21    1    1    2  502  501 -0.64349687032E+01 -0.30957958286E+02  0.56059746830E+01  0.32112784924E+02  0.00000000000E+00 0. -1.
<scales pt_clust_4="550.00000" pt_clust_5="550.00000" pt_clust_6="31.61968"></scales>
<mgrwt>
<rscale>  0 0.30000000E+03</rscale>
<asrwt>  1 0.31619677E+02</asrwt>
<pdfrwt beam="1">  1        1 0.86373385E+00 0.30000000E+03</pdfrwt>
<pdfrwt beam="2">0</pdfrwt>
<totfact> 0.30054346E-04</totfact>
</mgrwt>
<clustering>
<clus scale="   31.620">  1  6  2 -1</clus>
<clus scale="  477.433">  4  5 -1 -1</clus>
<clus scale="  300.000">  1  4  2 -1</clus>
</clustering>
</event>
<event>
 6    1  0.9462926E-012  0.3000000E+03  0.7818608E-02  0.1093470E+00
          1   -1    0    0  502    0  0.00000000000E+00  0.00000000000E+00  0.25307448859E+03  0.25307448859E+03  0.00000000000E+00 0.  1.
         13   -1    0    0    0    0 -0.00000000000E+00 -0.00000000000E+00 -0.27500000000E+03  0.27500000000E+03  0.00000000000E+00 0.  1.
    9000005    2    1    2  501    0 -0.21474632894E+02  0.29105060623E+02 -0.30029967279E+02  0.49100770269E+03  0.48875198286E+03 0.  0.
         13    1    3    3    0    0  0.18483376443E+02 -0.20857798500E+03 -0.11068850520E+03  0.23685091559E+03  0.00000000000E+00 0.  1.
          1    1    3    3  501    0 -0.39958009338E+02  0.23768304562E+03  0.80658537925E+02  0.25415678710E+03  0.00000000000E+00 0.  1.
         21    1    1    2  502  501  0.21474632894E+02 -0.29105060623E+02  0.81044558656E+01  0.37066785896E+02  0.00000000000E+00 0.  1.
<scales pt_clust_4="550.00000" pt_clust_5="550.00000" pt_clust_6="36.16994"></scales>
<mgrwt>
<rscale>  0 0.30000000E+03</rscale>
<asrwt>  1 0.36169938E+02</asrwt>
<pdfrwt beam="1">  1        1 0.92027087E+00 0.30000000E+03</pdfrwt>
<pdfrwt beam="2">0</pdfrwt>
<totfact> 0.40987053E-05</totfact>
</mgrwt>
<clustering>
<clus scale="   36.170">  1  6  2 -1</clus>
<clus scale="  488.752">  4  5 -1 -1</clus>
<clus scale="  300.000">  1  4  2 -1</clus>
</clustering>
</event>
<event>
 6    1  0.9462926E-012  0.3000000E+03  0.7818608E-02  0.1093470E+00
          1   -1    0    0  502    0  0.00000000000E+00  0.00000000000E+00  0.23881459452E+03  0.23881459452E+03  0.00000000000E+00 0.  1.
         13   -1    0    0    0    0 -0.00000000000E+00 -0.00000000000E+00 -0.27500000000E+03  0.27500000000E+03  0.00000000000E+00 0.  1.
    9000005    2    1    2  501    0 -0.29363476363E+02 -0.75685349376E+01 -0.53252125859E+02  0.47901848253E+03  0.47508254149E+03 0.  0.
         13    1    3    3    0    0  0.56201415715E+02 -0.10740871579E+03  0.17660668593E+03  0.21420819982E+03  0.00000000000E+00 0.  1.
          1    1    3    3  501    0 -0.85564892078E+02  0.99840180850E+02 -0.22985881179E+03  0.26481028271E+03  0.00000000000E+00 0.  1.
         21    1    1    2  502  501  0.29363476363E+02  0.75685349376E+01  0.17066720381E+02  0.34796111993E+02  0.00000000000E+00 0. -1.
<scales pt_clust_4="550.00000" pt_clust_5="550.00000" pt_clust_6="30.32320"></scales>
<mgrwt>
<rscale>  0 0.30000000E+03</rscale>
<asrwt>  1 0.30323200E+02</asrwt>
<pdfrwt beam="1">  1        1 0.86841671E+00 0.30000000E+03</pdfrwt>
<pdfrwt beam="2">0</pdfrwt>
<totfact> 0.27016790E-04</totfact>
</mgrwt>
<clustering>
<clus scale="   30.323">  1  6  2 -1</clus>
<clus scale="  475.083">  4  5 -1 -1</clus>
<clus scale="  300.000">  1  4  2 -1</clus>
</clustering>
</event>
<event>
 6    1  0.9462926E-012  0.3000000E+03  0.7818608E-02  0.1093470E+00
          1   -1    0    0  502    0  0.00000000000E+00  0.00000000000E+00  0.25497144421E+03  0.25497144421E+03  0.00000000000E+00 0.  1.
         13   -1    0    0    0    0 -0.00000000000E+00 -0.00000000000E+00 -0.27500000000E+03  0.27500000000E+03  0.00000000000E+00 0.  1.
    9000005    2    1    2  501    0 -0.35977091656E+02  0.14232722700E+02 -0.46620684332E+02  0.48302399678E+03  0.47920952801E+03 0.  0.
         13    1    3    3    0    0 -0.20743934038E+03 -0.10106630702E+03 -0.12452052347E+03  0.26220381217E+03  0.00000000000E+00 0.  1.
          3    1    3    3  501    0  0.17146224872E+03  0.11529902972E+03  0.77899839142E+02  0.22082018461E+03  0.00000000000E+00 0.  1.
         21    1    1    2  502  501  0.35977091656E+02 -0.14232722700E+02  0.26592128538E+02  0.46947447424E+02  0.00000000000E+00 0.  1.
<scales pt_clust_4="550.00000" pt_clust_5="550.00000" pt_clust_6="38.69007"></scales>
<mgrwt>
<rscale>  0 0.30000000E+03</rscale>
<asrwt>  1 0.38690070E+02</asrwt>
<pdfrwt beam="1">  1        1 0.92716889E+00 0.30000000E+03</pdfrwt>
<pdfrwt beam="2">0</pdfrwt>
<totfact> 0.29041510E-05</totfact>
</mgrwt>
<clustering>
<clus scale="   38.690">  1  6  2 -1</clus>
<clus scale="  479.210">  4  5 -1 -1</clus>
<clus scale="  300.000">  1  4  2 -1</clus>
</clustering>
</event>
<event>
 6    1  0.9462926E-012  0.3000000E+03  0.7818608E-02  0.1093470E+00
          1   -1    0    0  502    0  0.00000000000E+00  0.00000000000E+00  0.24936761298E+03  0.24936761298E+03  0.00000000000E+00 0.  1.
         13   -1    0    0    0    0 -0.00000000000E+00 -0.00000000000E+00 -0.27500000000E+03  0.27500000000E+03  0.00000000000E+00 0.  1.
    9000005    2    1    2  501    0  0.29638969994E+02 -0.14346220658E+02 -0.34956798649E+02  0.49014441556E+03  0.48778610860E+03 0.  0.
         13    1    3    3    0    0 -0.63699609647E+02  0.18178111038E+03 -0.15020193496E+03  0.24425935730E+03  0.00000000000E+00 0.  1.
          1    1    3    3  501    0  0.93338579641E+02 -0.19612733104E+03  0.11524513631E+03  0.24588505826E+03  0.00000000000E+00 0.  1.
         21    1    1    2  502  501 -0.29638969994E+02  0.14346220658E+02  0.93244116256E+01  0.34223197420E+02  0.00000000000E+00 0. -1.
<scales pt_clust_4="550.00000" pt_clust_5="550.00000" pt_clust_6="32.92845"></scales>
<mgrwt>
<rscale>  0 0.30000000E+03</rscale>
<asrwt>  1 0.32928447E+02</asrwt>
<pdfrwt beam="1">  1        1 0.90679132E+00 0.30000000E+03</pdfrwt>
<pdfrwt beam="2">0</pdfrwt>
<totfact> 0.86094419E-05</totfact>
</mgrwt>
<clustering>
<clus scale="   32.928">  1  6  2 -1</clus>
<clus scale="  487.786">  4  5 -1 -1</clus>
<clus scale="  300.000">  1  4  2 -1</clus>
</clustering>
</event>
<event>
 6    1  0.9462926E-012  0.3000000E+03  0.7818608E-02  0.1093470E+00
          1   -1    0    0  502    0  0.00000000000E+00  0.00000000000E+00  0.23074241616E+03  0.23074241616E+03  0.00000000000E+00 0.  1.
         13   -1    0    0    0    0 -0.00000000000E+00 -0.00000000000E+00 -0.27500000000E+03  0.27500000000E+03  0.00000000000E+00 0.  1.
    9000005    2    1    2  501    0  0.55467195085E+01  0.31249414578E+02 -0.49244606766E+02  0.47361513171E+03  0.46997762678E+03 0.  0.
         13    1    3    3    0    0  0.14391588762E+03  0.17063650132E+03  0.81540696355E+02  0.23764991785E+03  0.00000000000E+00 0.  1.
          3    1    3    3  501    0 -0.13836916812E+03 -0.13938708674E+03 -0.13078530312E+03  0.23596521385E+03  0.00000000000E+00 0.  1.
         21    1    1    2  502  501 -0.55467195085E+01 -0.31249414578E+02  0.49870229274E+01  0.32127284455E+02  0.00000000000E+00 0.  1.
<scales pt_clust_4="550.00000" pt_clust_5="550.00000" pt_clust_6="31.73786"></scales>
<mgrwt>
<rscale>  0 0.30000000E+03</rscale>
<asrwt>  1 0.31737864E+02</asrwt>
<pdfrwt beam="1">  1        1 0.83906333E+00 0.30000000E+03</pdfrwt>
<pdfrwt beam="2">0</pdfrwt>
<totfact> 0.51464324E-04</totfact>
</mgrwt>
<clustering>
<clus scale="   31.738">  1  6  2 -1</clus>
<clus scale="  469.978">  4  5 -1 -1</clus>
<clus scale="  300.000">  1  4  2 -1</clus>
</clustering>
</event>
<event>
 6    1  0.9462926E-012  0.3000000E+03  0.7818608E-02  0.1093470E+00
          1   -1    0    0  502    0  0.00000000000E+00  0.00000000000E+00  0.25171733862E+03  0.25171733862E+03  0.00000000000E+00 0.  1.
         13   -1    0    0    0    0 -0.00000000000E+00 -0.00000000000E+00 -0.27500000000E+03  0.27500000000E+03  0.00000000000E+00 0.  1.
    9000005    2    1    2  501    0  0.19125498795E+02  0.28126036436E+02 -0.70785395239E+02  0.46829329944E+03  0.46166132987E+03 0.  0.
         13    1    3    3    0    0  0.11641990370E+03  0.13149738796E+03  0.13274248154E+03  0.22014932074E+03  0.00000000000E+00 0.  1.
          1    1    3    3  501    0 -0.97294404908E+02 -0.10337135152E+03 -0.20352787678E+03  0.24814397870E+03  0.00000000000E+00 0.  1.
         21    1    1    2  502  501 -0.19125498795E+02 -0.28126036436E+02  0.47502733857E+02  0.58424039176E+02  0.00000000000E+00 0. -1.
<scales pt_clust_4="550.00000" pt_clust_5="550.00000" pt_clust_6="34.01262"></scales>
<mgrwt>
<rscale>  0 0.30000000E+03</rscale>
<asrwt>  1 0.34012625E+02</asrwt>
<pdfrwt beam="1">  1        1 0.91533578E+00 0.30000000E+03</pdfrwt>
<pdfrwt beam="2">0</pdfrwt>
<totfact> 0.53470615E-05</totfact>
</mgrwt>
<clustering>
<clus scale="   34.013">  1  6  2 -1</clus>
<clus scale="  461.661">  4  5 -1 -1</clus>
<clus scale="  300.000">  1  4  2 -1</clus>
</clustering>
</event>
<event>
 6    1  0.9462926E-012  0.3000000E+03  0.7818608E-02  0.1093470E+00
          1   -1    0    0  502    0  0.00000000000E+00  0.00000000000E+00  0.23811802683E+03  0.23811802683E+03  0.00000000000E+00 0.  1.
         13   -1    0    0    0    0 -0.00000000000E+00 -0.00000000000E+00 -0.27500000000E+03  0.27500000000E+03  0.00000000000E+00 0.  1.
    9000005    2    1    2  501    0  0.27292602380E+02 -0.26919493292E+02 -0.60454666880E+02  0.46811561409E+03  0.46260989629E+03 0.  0.
         13    1    3    3    0    0  0.98099755256E+02 -0.22752132321E+03 -0.61879141244E+02  0.25537921336E+03  0.00000000000E+00 0.  1.
          3    1    3    3  501    0 -0.70807152876E+02  0.20060182992E+03  0.14244743639E+01  0.21273640072E+03  0.00000000000E+00 0.  1.
         21    1    1    2  502  501 -0.27292602380E+02  0.26919493292E+02  0.23572693711E+02  0.45002412742E+02  0.00000000000E+00 0.  1.
<scales pt_clust_4="550.00000" pt_clust_5="550.00000" pt_clust_6="38.33465"></scales>
<mgrwt>
<rscale>  0 0.30000000E+03</rscale>
<asrwt>  1 0.38334648E+02</asrwt>
<pdfrwt beam="1">  1        1 0.86588373E+00 0.30000000E+03</pdfrwt>
<pdfrwt beam="2">0</pdfrwt>
<totfact> 0.27485499E-04</totfact>
</mgrwt>
<clustering>
<clus scale="   38.335">  1  6  2 -1</clus>
<clus scale="  462.610">  4  5 -1 -1</clus>
<clus scale="  300.000">  1  4  2 -1</clus>
</clustering>
</event>
<event>
 6    1  0.9462926E-012  0.3000000E+03  0.7818608E-02  0.1093470E+00
          1   -1    0    0  502    0  0.00000000000E+00  0.00000000000E+00  0.24249005517E+03  0.24249005517E+03  0.00000000000E+00 0.  1.
         13   -1    0    0    0    0 -0.00000000000E+00 -0.00000000000E+00 -0.27500000000E+03  0.27500000000E+03  0.00000000000E+00 0.  1.
    9000005    2    1    2  501    0 -0.36178146881E+02  0.13632314310E+02 -0.37416053828E+02  0.47851867836E+03  0.47548445416E+03 0.  0.
         13    1    3    3    0    0 -0.19823540555E+03  0.79742836955E+02  0.11831459791E+03  0.24424278932E+03  0.00000000000E+00 0.  1.
          1    1    3    3  501    0  0.16205725867E+03 -0.66110522645E+02 -0.15573065174E+03  0.23427588903E+03  0.00000000000E+00 0.  1.
         21    1    1    2  502  501  0.36178146881E+02 -0.13632314310E+02  0.49061089993E+01  0.38971376813E+02  0.00000000000E+00 0. -1.
<scales pt_clust_4="550.00000" pt_clust_5="550.00000" pt_clust_6="38.66133"></scales>
<mgrwt>
<rscale>  0 0.30000000E+03</rscale>
<asrwt>  1 0.38661328E+02</asrwt>
<pdfrwt beam="1">  1        1 0.88178202E+00 0.30000000E+03</pdfrwt>
<pdfrwt beam="2">0</pdfrwt>
<totfact> 0.18396837E-04</totfact>
</mgrwt>
<clustering>
<clus scale="   38.661">  1  6  2 -1</clus>
<clus scale="  475.484">  4  5 -1 -1</clus>
<clus scale="  300.000">  1  4  2 -1</clus>
</clustering>
</event>
<event>
 6    1  0.9462926E-012  0.3000000E+03  0.7818608E-02  0.1093470E+00
          1   -1    0    0  502    0  0.00000000000E+00  0.00000000000E+00  0.23003948702E+03  0.23003948702E+03  0.00000000000E+00 0.  1.
         13   -1    0    0    0    0 -0.00000000000E+00 -0.00000000000E+00 -0.27500000000E+03  0.27500000000E+03  0.00000000000E+00 0.  1.
    9000005    2    1    2  501    0  0.29942882105E+02 -0.57265932175E+01 -0.46604600060E+02  0.47450961508E+03  0.47123032160E+03 0.  0.
         13    1    3    3    0    0  0.18451098339E+03 -0.10747478296E+03  0.10250485736E+03  0.23685940502E+03  0.00000000000E+00 0.  1.
          1    1    3    3  501    0 -0.15456810129E+03  0.10174818974E+03 -0.14910945742E+03  0.23765021006E+03  0.00000000000E+00 0.  1.
         21    1    1    2  502  501 -0.29942882105E+02  0.57265932175E+01  0.16440870836E+01  0.30529871945E+02  0.00000000000E+00 0.  1.
<scales pt_clust_4="550.00000" pt_clust_5="550.00000" pt_clust_6="30.48557"></scales>
<mgrwt>
<rscale>  0 0.30000000E+03</rscale>
<asrwt>  1 0.30485571E+02</asrwt>
<pdfrwt beam="1">  1        1 0.83650723E+00 0.30000000E+03</pdfrwt>
<pdfrwt beam="2">0</pdfrwt>
<totfact> 0.54150263E-04</totfact>
</mgrwt>
<clustering>
<clus scale="   30.486">  1  6  2 -1</clus>
<clus scale="  471.230">  4  5 -1 -1</clus>
<clus scale="  300.000">  1  4  2 -1</clus>
</clustering>
</event>
<event>
 6    1  0.9462926E-012  0.3000000E+03  0.7818608E-02  0.1093470E+00
          1   -1    0    0  502    0  0.00000000000E+00  0.00000000000E+00  0.23324552078E+03  0.23324552078E+03  0.00000000000E+00 0.  1.
         13   -1    0    0    0    0 -0.00000000000E+00 -0.00000000000E+00 -0.27500000000E+03  0.27500000000E+03  0.00000000000E+00 0.  1.
    9000005    2    1    2  501    0  0.26593636172E+02  0.19341445219E+02 -0.49020047003E+02  0.47456909782E+03  0.47088379736E+03 0.  0.
         13    1    3    3    0    0  0.13400651876E+03 -0.18897228064E+03  0.13311304904E+02  0.23204624703E+03  0.00000000000E+00 0.  1.
          3    1    3    3  501    0 -0.10741288259E+03  0.20831372586E+03 -0.62331351907E+02  0.24252285080E+03  0.00000000000E+00 0.  1.
         21    1    1    2  502  501 -0.26593636172E+02 -0.19341445219E+02  0.72655677860E+01  0.33676422958E+02  0.00000000000E+00 0.  1.
<scales pt_clust_4="550.00000" pt_clust_5="550.00000" pt_clust_6="32.88332"></scales>
<mgrwt>
<rscale>  0 0.30000000E+03</rscale>
<asrwt>  1 0.32883324E+02</asrwt>
<pdfrwt beam="1">  1        1 0.84816553E+00 0.30000000E+03</pdfrwt>
<pdfrwt beam="2">0</pdfrwt>
<totfact> 0.42825230E-04</totfact>
</mgrwt>
<clustering>
<clus scale="   32.883">  1  6  2 -1</clus>
<clus scale="  470.884">  4  5 -1 -1</clus>
<clus scale="  300.000">  1  4  2 -1</clus>
</clustering>
</event>
<event>
 6    1  0.1085275E-011  0.3000000E+03  0.7818608E-02  0.1093470E+00
          1   -1    0    0  502    0  0.00000000000E+00  0.00000000000E+00  0.21744895211E+03  0.21744895211E+03  0.00000000000E+00 0.  1.
         13   -1    0    0    0    0 -0.00000000000E+00 -0.00000000000E+00 -0.27500000000E+03  0.27500000000E+03  0.00000000000E+00 0.  1.
    9000005    2    1    2  501    0  0.30367550349E+02 -0.43909030016E+01 -0.49223931683E+02  0.46065572944E+03  0.45698931877E+03 0.  0.
         13    1    3    3    0    0  0.59714695136E+02  0.41154150825E+02 -0.24604643072E+03  0.25651190034E+03  0.00000000000E+00 0.  1.
          3    1    3    3  501    0 -0.29347144787E+02 -0.45545053827E+02  0.19682249903E+03  0.20414382910E+03  0.00000000000E+00 0.  1.
         21    1    1    2  502  501 -0.30367550349E+02  0.43909030016E+01 -0.83271162083E+01  0.31793222670E+02  0.00000000000E+00 0. -1.
<scales pt_clust_4="550.00000" pt_clust_5="550.00000" pt_clust_6="30.68337"></scales>
<mgrwt>
<rscale>  0 0.30000000E+03</rscale>
<asrwt>  1 0.30683368E+02</asrwt>
<pdfrwt beam="1">  1        1 0.79072346E+00 0.30000000E+03</pdfrwt>
<pdfrwt beam="2">0</pdfrwt>
<totfact> 0.12477348E-03</totfact>
</mgrwt>
<clustering>
<clus scale="   30.683">  1  6  2 -1</clus>
<clus scale="  456.989">  4  5 -1 -1</clus>
<clus scale="  300.000">  1  4  2 -1</clus>
</clustering>
</event>
<event>
 6    1  0.9462926E-012  0.3000000E+03  0.7818608E-02  0.1093470E+00
          1   -1    0    0  502    0  0.00000000000E+00  0.00000000000E+00  0.23938916144E+03  0.23938916144E+03  0.00000000000E+00 0.  1.
         13   -1    0    0    0    0 -0.00000000000E+00 -0.00000000000E+00 -0.27500000000E+03  0.27500000000E+03  0.00000000000E+00 0.  1.
    9000005    2    1    2  501    0  0.43477477010E+02  0.23999934042E+02 -0.35052568181E+02  0.46472428948E+03  0.46073169508E+03 0.  0.
         13    1    3    3    0    0 -0.16247514986E+03 -0.31725594486E+02  0.11701097366E+03  0.20272211429E+03  0.00000000000E+00 0.  1.
          1    1    3    3  501    0  0.20595262687E+03  0.55725528528E+02 -0.15206354184E+03  0.26200217518E+03  0.00000000000E+00 0.  1.
         21    1    1    2  502  501 -0.43477477010E+02 -0.23999934042E+02 -0.55827037816E+00  0.49664871962E+02  0.00000000000E+00 0. -1.
<scales pt_clust_4="550.00000" pt_clust_5="550.00000" pt_clust_6="49.66173"></scales>
<mgrwt>
<rscale>  0 0.30000000E+03</rscale>
<asrwt>  1 0.49661734E+02</asrwt>
<pdfrwt beam="1">  1        1 0.87050604E+00 0.30000000E+03</pdfrwt>
<pdfrwt beam="2">0</pdfrwt>
<totfact> 0.23488211E-04</totfact>
</mgrwt>
<clustering>
<clus scale="   49.662">  1  6  2 -1</clus>
<clus scale="  460.732">  4  5 -1 -1</clus>
<clus scale="  300.000">  1  4  2 -1</clus>
</clustering>
</event>
<event>
 6    1  0.9462926E-012  0.3000000E+03  0.7818608E-02  0.1093470E+00
          1   -1    0    0  502    0  0.00000000000E+00  0.00000000000E+00  0.22651215978E+03  0.22651215978E+03  0.00000000000E+00 0.  1.
         13   -1    0    0    0    0 -0.00000000000E+00 -0.00000000000E+00 -0.27500000000E+03  0.27500000000E+03  0.00000000000E+00 0.  1.
    9000005    2    1    2  501    0 -0.26711892097E+02  0.19053599249E+02 -0.35909564669E+02  0.46637275399E+03  0.46382915389E+03 0.  0.
         13    1    3    3    0    0 -0.52669582175E+02  0.18992786371E+03 -0.15978660935E+03  0.25372906579E+03  0.00000000000E+00 0.  1.
          1    1    3    3  501    0  0.25957690078E+02 -0.17087426446E+03  0.12387704469E+03  0.21264368819E+03  0.00000000000E+00 0.  1.
         21    1    1    2  502  501  0.26711892097E+02 -0.19053599249E+02 -0.12578275552E+02  0.35139405794E+02  0.00000000000E+00 0. -1.
<scales pt_clust_4="550.00000" pt_clust_5="550.00000" pt_clust_6="32.81106"></scales>
<mgrwt>
<rscale>  0 0.30000000E+03</rscale>
<asrwt>  1 0.32811064E+02</asrwt>
<pdfrwt beam="1">  1        1 0.82368058E+00 0.30000000E+03</pdfrwt>
<pdfrwt beam="2">0</pdfrwt>
<totfact> 0.67934930E-04</totfact>
</mgrwt>
<clustering>
<clus scale="   32.811">  1  6  2 -1</clus>
<clus scale="  463.829">  4  5 -1 -1</clus>
<clus scale="  300.000">  1  4  2 -1</clus>
</clustering>
</event>
<event>
 6    1  0.9462926E-012  0.3000000E+03  0.7818608E-02  0.1093470E+00
          1   -1    0    0  502    0  0.00000000000E+00  0.00000000000E+00  0.22862024118E+03  0.22862024118E+03  0.00000000000E+00 0.  1.
         13   -1    0    0    0    0 -0.00000000000E+00 -0.00000000000E+00 -0.27500000000E+03  0.27500000000E+03  0.00000000000E+00 0.  1.
    9000005    2    1    2  501    0  0.30163273093E+02 -0.19246688940E+01 -0.61647267123E+02  0.46975840125E+03  0.46471393631E+03 0.  0.
         13    1    3    3    0    0  0.14949929393E+03 -0.56164691800E+02 -0.21512284423E+03  0.26792228277E+03  0.00000000000E+00 0.  1.
          3    1    3    3  501    0 -0.11933602084E+03  0.54240022906E+02  0.15347557711E+03  0.20183611848E+03  0.00000000000E+00 0.  1.
         21    1    1    2  502  501 -0.30163273093E+02  0.19246688940E+01  0.15267508307E+02  0.33861839937E+02  0.00000000000E+00 0. -1.
<scales pt_clust_4="550.00000" pt_clust_5="550.00000" pt_clust_6="30.22462"></scales>
<mgrwt>
<rscale>  0 0.30000000E+03</rscale>
<asrwt>  1 0.30224616E+02</asrwt>
<pdfrwt beam="1">  1        1 0.83134633E+00 0.30000000E+03</pdfrwt>
<pdfrwt beam="2">0</pdfrwt>
<totfact> 0.59268190E-04</totfact>
</mgrwt>
<clustering>
<clus scale="   30.225">  1  6  2 -1</clus>
<clus scale="  464.714">  4  5 -1 -1</clus>
<clus scale="  300.000">  1  4  2 -1</clus>
</clustering>
</event>
<event>
 6    1  0.9462926E-012  0.3000000E+03  0.7818608E-02  0.1093470E+00
          1   -1    0    0  502    0  0.00000000000E+00  0.00000000000E+00  0.23351662098E+03  0.23351662098E+03  0.00000000000E+00 0.  1.
         13   -1    0    0    0    0 -0.00000000000E+00 -0.00000000000E+00 -0.27500000000E+03  0.27500000000E+03  0.00000000000E+00 0.  1.
    9000005    2    1    2  501    0  0.75491112329E+01 -0.30432198920E+02 -0.39297913351E+02  0.47708599782E+03  0.47442977933E+03 0.  0.
         13    1    3    3    0    0 -0.12689459339E+03  0.17948573126E+03  0.20401290261E+02  0.22075683047E+03  0.00000000000E+00 0.  1.
          3    1    3    3  501    0  0.13444370462E+03 -0.20991793018E+03 -0.59699203612E+02  0.25632916735E+03  0.00000000000E+00 0.  1.
         21    1    1    2  502  501 -0.75491112329E+01  0.30432198920E+02 -0.21854656741E+01  0.31430623152E+02  0.00000000000E+00 0.  1.
<scales pt_clust_4="550.00000" pt_clust_5="550.00000" pt_clust_6="31.35455"></scales>
<mgrwt>
<rscale>  0 0.30000000E+03</rscale>
<asrwt>  1 0.31354550E+02</asrwt>
<pdfrwt beam="1">  1        1 0.84915135E+00 0.30000000E+03</pdfrwt>
<pdfrwt beam="2">0</pdfrwt>
<totfact> 0.42318445E-04</totfact>
</mgrwt>
<clustering>
<clus scale="   31.355">  1  6  2 -1</clus>
<clus scale="  474.430">  4  5 -1 -1</clus>
<clus scale="  300.000">  1  4  2 -1</clus>
</clustering>
</event>
<event>
 6    1  0.9462926E-012  0.3000000E+03  0.7818608E-02  0.1093470E+00
          1   -1    0    0  502    0  0.00000000000E+00  0.00000000000E+00  0.23470686244E+03  0.23470686244E+03  0.00000000000E+00 0.  1.
         13   -1    0    0    0    0 -0.00000000000E+00 -0.00000000000E+00 -0.27500000000E+03  0.27500000000E+03  0.00000000000E+00 0.  1.
    9000005    2    1    2  501    0 -0.19779544260E+02 -0.26575089202E+02 -0.52178722599E+02  0.47451122537E+03  0.47046872178E+03 0.  0.
         13    1    3    3    0    0  0.12084621665E+03  0.64543707625E+02 -0.20576850545E+03  0.24720512962E+03  0.00000000000E+00 0.  1.
          3    1    3    3  501    0 -0.14062576091E+03 -0.91118796827E+02  0.15358978286E+03  0.22730609575E+03  0.00000000000E+00 0.  1.
         21    1    1    2  502  501  0.19779544260E+02  0.26575089202E+02  0.11885585040E+02  0.35195637073E+02  0.00000000000E+00 0.  1.
<scales pt_clust_4="550.00000" pt_clust_5="550.00000" pt_clust_6="33.12802"></scales>
<mgrwt>
<rscale>  0 0.30000000E+03</rscale>
<asrwt>  1 0.33128020E+02</asrwt>
<pdfrwt beam="1">  1        1 0.85347950E+00 0.30000000E+03</pdfrwt>
<pdfrwt beam="2">0</pdfrwt>
<totfact> 0.38093689E-04</totfact>
</mgrwt>
<clustering>
<clus scale="   33.128">  1  6  2 -1</clus>
<clus scale="  470.469">  4  5 -1 -1</clus>
<clus scale="  300.000">  1  4  2 -1</clus>
</clustering>
</event>
<event>
 6    1  0.9462926E-012  0.3000000E+03  0.7818608E-02  0.1093470E+00
          1   -1    0    0  502    0  0.00000000000E+00  0.00000000000E+00  0.24031942129E+03  0.24031942129E+03  0.00000000000E+00 0.  1.
         13   -1    0    0    0    0 -0.00000000000E+00 -0.00000000000E+00 -0.27500000000E+03  0.27500000000E+03  0.00000000000E+00 0.  1.
    9000005    2    1    2  501    0 -0.32212564163E+02 -0.10139587449E+02 -0.61513259281E+02  0.47218644933E+03  0.46694293156E+03 0.  0.
         13    1    3    3    0    0 -0.22118969874E+03 -0.53723793479E+00  0.80731355984E+02  0.23546278536E+03  0.00000000000E+00 0.  1.
          1    1    3    3  501    0  0.18897713458E+03 -0.96023495144E+01 -0.14224461526E+03  0.23672366396E+03  0.00000000000E+00 0.  1.
         21    1    1    2  502  501  0.32212564163E+02  0.10139587449E+02  0.26832680570E+02  0.43132971960E+02  0.00000000000E+00 0.  1.
<scales pt_clust_4="550.00000" pt_clust_5="550.00000" pt_clust_6="33.77071"></scales>
<mgrwt>
<rscale>  0 0.30000000E+03</rscale>
<asrwt>  1 0.33770705E+02</asrwt>
<pdfrwt beam="1">  1        1 0.87388880E+00 0.30000000E+03</pdfrwt>
<pdfrwt beam="2">0</pdfrwt>
<totfact> 0.23259553E-04</totfact>
</mgrwt>
<clustering>
<clus scale="   33.771">  1  6  2 -1</clus>
<clus scale="  466.943">  4  5 -1 -1</clus>
<clus scale="  300.000">  1  4  2 -1</clus>
</clustering>
</event>
<event>
 6    1  0.9462926E-012  0.3000000E+03  0.7818608E-02  0.1093470E+00
          1   -1    0    0  502    0  0.00000000000E+00  0.00000000000E+00  0.22739924327E+03  0.22739924327E+03  0.00000000000E+00 0.  1.
         13   -1    0    0    0    0 -0.00000000000E+00 -0.00000000000E+00 -0.27500000000E+03  0.27500000000E+03  0.00000000000E+00 0.  1.
    9000005    2    1    2  501    0 -0.28155146770E+02 -0.14820811525E+02 -0.55814725661E+02  0.46953835422E+03  0.46512214926E+03 0.  0.
         13    1    3    3    0    0  0.13897066997E+03 -0.18060342910E+03 -0.12156671347E+01  0.22788576867E+03  0.00000000000E+00 0.  1.
          1    1    3    3  501    0 -0.16712581674E+03  0.16578261758E+03 -0.54599058526E+02  0.24165258555E+03  0.00000000000E+00 0.  1.
         21    1    1    2  502  501  0.28155146770E+02  0.14820811525E+02  0.82139689343E+01  0.32860889056E+02  0.00000000000E+00 0. -1.
<scales pt_clust_4="550.00000" pt_clust_5="550.00000" pt_clust_6="31.81774"></scales>
<mgrwt>
<rscale>  0 0.30000000E+03</rscale>
<asrwt>  1 0.31817743E+02</asrwt>
<pdfrwt beam="1">  1        1 0.82690634E+00 0.30000000E+03</pdfrwt>
<pdfrwt beam="2">0</pdfrwt>
<totfact> 0.63961640E-04</totfact>
</mgrwt>
<clustering>
<clus scale="   31.818">  1  6  2 -1</clus>
<clus scale="  465.122">  4  5 -1 -1</clus>
<clus scale="  300.000">  1  4  2 -1</clus>
</clustering>
</event>
<event>
 6    1  0.9462926E-012  0.3000000E+03  0.7818608E-02  0.1093470E+00
          1   -1    0    0  502    0  0.00000000000E+00  0.00000000000E+00  0.22548514062E+03  0.22548514062E+03  0.00000000000E+00 0.  1.
         13   -1    0    0    0    0 -0.00000000000E+00 -0.00000000000E+00 -0.27500000000E+03  0.27500000000E+03  0.00000000000E+00 0.  1.
    9000005    2    1    2  501    0 -0.22073511678E+02  0.28801665584E+02 -0.54945838609E+02  0.46379356947E+03  0.45909547377E+03 0.  0.
         13    1    3    3    0    0 -0.84175969348E+02  0.13256132935E+03  0.15555427870E+03  0.22103220009E+03  0.00000000000E+00 0.  1.
          3    1    3    3  501    0  0.62102457670E+02 -0.10375966377E+03 -0.21050011731E+03  0.24276136937E+03  0.00000000000E+00 0.  1.
         21    1    1    2  502  501  0.22073511678E+02 -0.28801665584E+02  0.54309792248E+01  0.36691571151E+02  0.00000000000E+00 0.  1.
<scales pt_clust_4="550.00000" pt_clust_5="550.00000" pt_clust_6="36.28741"></scales>
<mgrwt>
<rscale>  0 0.30000000E+03</rscale>
<asrwt>  1 0.36287406E+02</asrwt>
<pdfrwt beam="1">  1        1 0.81994597E+00 0.30000000E+03</pdfrwt>
<pdfrwt beam="2">0</pdfrwt>
<totfact> 0.71921066E-04</totfact>
</mgrwt>
<clustering>
<clus scale="   36.287">  1  6  2 -1</clus>
<clus scale="  459.095">  4  5 -1 -1</clus>
<clus scale="  300.000">  1  4  2 -1</clus>
</clustering>
</event>
<event>
 6    1  0.9462926E-012  0.3000000E+03  0.7818608E-02  0.1093470E+00
          1   -1    0    0  502    0  0.00000000000E+00  0.00000000000E+00  0.23633030179E+03  0.23633030179E+03  0.00000000000E+00 0.  1.
         13   -1    0    0    0    0 -0.00000000000E+00 -0.00000000000E+00 -0.27500000000E+03  0.27500000000E+03  0.00000000000E+00 0.  1.
    9000005    2    1    2  501    0 -0.31934213280E+02  0.32622838953E+02 -0.43829402719E+02  0.46538831501E+03  0.46106531381E+03 0.  0.
         13    1    3    3    0    0 -0.65982027618E+02  0.54030561446E+02  0.20044098183E+03  0.21782909984E+03  0.00000000000E+00 0.  1.
          1    1    3    3  501    0  0.34047814338E+02 -0.21407722493E+02 -0.24427038455E+03  0.24755921517E+03  0.00000000000E+00 0.  1.
         21    1    1    2  502  501  0.31934213280E+02 -0.32622838953E+02  0.51597045116E+01  0.45941986786E+02  0.00000000000E+00 0.  1.
<scales pt_clust_4="550.00000" pt_clust_5="550.00000" pt_clust_6="45.65133"></scales>
<mgrwt>
<rscale>  0 0.30000000E+03</rscale>
<asrwt>  1 0.45651326E+02</asrwt>
<pdfrwt beam="1">  1        1 0.85938292E+00 0.30000000E+03</pdfrwt>
<pdfrwt beam="2">0</pdfrwt>
<totfact> 0.31284290E-04</totfact>
</mgrwt>
<clustering>
<clus scale="   45.651">  1  6  2 -1</clus>
<clus scale="  461.065">  4  5 -1 -1</clus>
<clus scale="  300.000">  1  4  2 -1</clus>
</clustering>
</event>
<event>
 6    1  0.9462926E-012  0.3000000E+03  0.7818608E-02  0.1093470E+00
          1   -1    0    0  502    0  0.00000000000E+00  0.00000000000E+00  0.24163433535E+03  0.24163433535E+03  0.00000000000E+00 0.  1.
         13   -1    0    0    0    0 -0.00000000000E+00 -0.00000000000E+00 -0.27500000000E+03  0.27500000000E+03  0.00000000000E+00 0.  1.
    9000005    2    1    2  501    0  0.44003306836E+02 -0.49982333030E+01 -0.48186944870E+02  0.46993376045E+03  0.46535414923E+03 0.  0.
         13    1    3    3    0    0 -0.71584437541E+02  0.10619314498E+03  0.16138885985E+03  0.20602834713E+03  0.00000000000E+00 0.  1.
          1    1    3    3  501    0  0.11558774438E+03 -0.11119137828E+03 -0.20957580472E+03  0.26390541332E+03  0.00000000000E+00 0.  1.
         21    1    1    2  502  501 -0.44003306836E+02  0.49982333030E+01  0.14821280219E+02  0.46700574900E+02  0.00000000000E+00 0.  1.
<scales pt_clust_4="550.00000" pt_clust_5="550.00000" pt_clust_6="44.28627"></scales>
<mgrwt>
<rscale>  0 0.30000000E+03</rscale>
<asrwt>  1 0.44286266E+02</asrwt>
<pdfrwt beam="1">  1        1 0.87867031E+00 0.30000000E+03</pdfrwt>
<pdfrwt beam="2">0</pdfrwt>
<totfact> 0.19616102E-04</totfact>
</mgrwt>
<clustering>
<clus scale="   44.286">  1  6  2 -1</clus>
<clus scale="  465.354">  4  5 -1 -1</clus>
<clus scale="  300.000">  1  4  2 -1</clus>
</clustering>
</event>
<event>
 6    1  0.9462926E-012  0.3000000E+03  0.7818608E-02  0.1093470E+00
          1   -1    0    0  502    0  0.00000000000E+00  0.00000000000E+00  0.22380466283E+03  0.22380466283E+03  0.00000000000E+00 0.  1.
         13   -1    0    0    0    0 -0.00000000000E+00 -0.00000000000E+00 -0.27500000000E+03  0.27500000000E+03  0.00000000000E+00 0.  1.
    9000005    2    1    2  501    0 -0.29936845846E+02 -0.13621381302E+02 -0.51418240617E+02  0.46591383654E+03  0.46189837719E+03 0.  0.
         13    1    3    3    0    0 -0.19854142091E+03 -0.14208653989E+03  0.12651811153E+02  0.24447361608E+03  0.00000000000E+00 0.  1.
          1    1    3    3  501    0  0.16860457506E+03  0.12846515859E+03 -0.64070051771E+02  0.22144022046E+03  0.00000000000E+00 0.  1.
         21    1    1    2  502  501  0.29936845846E+02  0.13621381302E+02  0.22290344522E+00  0.32890826285E+02  0.00000000000E+00 0.  1.
<scales pt_clust_4="550.00000" pt_clust_5="550.00000" pt_clust_6="32.89007"></scales>
<mgrwt>
<rscale>  0 0.30000000E+03</rscale>
<asrwt>  1 0.32890071E+02</asrwt>
<pdfrwt beam="1">  1        1 0.81383514E+00 0.30000000E+03</pdfrwt>
<pdfrwt beam="2">0</pdfrwt>
<totfact> 0.82297256E-04</totfact>
</mgrwt>
<clustering>
<clus scale="   32.890">  1  6  2 -1</clus>
<clus scale="  461.898">  4  5 -1 -1</clus>
<clus scale="  300.000">  1  4  2 -1</clus>
</clustering>
</event>
<event>
 6    1  0.9462926E-012  0.3000000E+03  0.7818608E-02  0.1093470E+00
          1   -1    0    0  502    0  0.00000000000E+00  0.00000000000E+00  0.23048672731E+03  0.23048672731E+03  0.00000000000E+00 0.  1.
         13   -1    0    0    0    0 -0.00000000000E+00 -0.00000000000E+00 -0.27500000000E+03  0.27500000000E+03  0.00000000000E+00 0.  1.
    9000005    2    1    2  501    0  0.49425092499E+01 -0.36182085581E+02 -0.55162866924E+02  0.46744746375E+03  0.46274249618E+03 0.  0.
         13    1    3    3    0    0 -0.14799755604E+03  0.15795961505E+03 -0.37365758961E+02  0.21966045735E+03  0.00000000000E+00 0.  1.
          1    1    3    3  501    0  0.15294006529E+03 -0.19414170063E+03 -0.17797107963E+02  0.24778700641E+03  0.00000000000E+00 0.  1.
         21    1    1    2  502  501 -0.49425092499E+01  0.36182085581E+02  0.10649594237E+02  0.38039263559E+02  0.00000000000E+00 0. -1.
<scales pt_clust_4="550.00000" pt_clust_5="550.00000" pt_clust_6="36.51810"></scales>
<mgrwt>
<rscale>  0 0.30000000E+03</rscale>
<asrwt>  1 0.36518101E+02</asrwt>
<pdfrwt beam="1">  1        1 0.83813355E+00 0.30000000E+03</pdfrwt>
<pdfrwt beam="2">0</pdfrwt>
<totfact> 0.50926516E-04</totfact>
</mgrwt>
<clustering>
<clus scale="   36.518">  1  6  2 -1</clus>
<clus scale="  462.742">  4  5 -1 -1</clus>
<clus scale="  300.000">  1  4  2 -1</clus>
</clustering>
</event>
<event>
 6    1  0.9462926E-012  0.3000000E+03  0.7818608E-02  0.1093470E+00
          1   -1    0    0  502    0  0.00000000000E+00  0.00000000000E+00  0.26147441403E+03  0.26147441403E+03  0.00000000000E+00 0.  1.
         13   -1    0    0    0    0 -0.00000000000E+00 -0.00000000000E+00 -0.27500000000E+03  0.27500000000E+03  0.00000000000E+00 0.  1.
    9000005    2    1    2  501    0  0.29348979270E+02  0.24983284749E+02 -0.72106530269E+02  0.46635127850E+03  0.45912812608E+03 0.  0.
         13    1    3    3    0    0 -0.18829952862E+03 -0.84012061418E+02  0.17580630423E+02  0.20693916378E+03  0.00000000000E+00 0.  1.
          3    1    3    3  501    0  0.21764850789E+03  0.10899534617E+03 -0.89687160692E+02  0.25941211472E+03  0.00000000000E+00 0.  1.
         21    1    1    2  502  501 -0.29348979270E+02 -0.24983284749E+02  0.58580944297E+02  0.70123135525E+02  0.00000000000E+00 0.  1.
<scales pt_clust_4="550.00000" pt_clust_5="550.00000" pt_clust_6="38.54254"></scales>
<mgrwt>
<rscale>  0 0.30000000E+03</rscale>
<asrwt>  1 0.38542536E+02</asrwt>
<pdfrwt beam="1">  1        1 0.95081605E+00 0.30000000E+03</pdfrwt>
<pdfrwt beam="2">0</pdfrwt>
<totfact> 0.11657299E-05</totfact>
</mgrwt>
<clustering>
<clus scale="   38.543">  1  6  2 -1</clus>
<clus scale="  459.128">  4  5 -1 -1</clus>
<clus scale="  300.000">  1  4  2 -1</clus>
</clustering>
</event>
<event>
 6    1  0.9462926E-012  0.3000000E+03  0.7818608E-02  0.1093470E+00
          1   -1    0    0  502    0  0.00000000000E+00  0.00000000000E+00  0.24485251967E+03  0.24485251967E+03  0.00000000000E+00 0.  1.
         13   -1    0    0    0    0 -0.00000000000E+00 -0.00000000000E+00 -0.27500000000E+03  0.27500000000E+03  0.00000000000E+00 0.  1.
    9000005    2    1    2  501    0  0.13295602686E+01 -0.37946441859E+02 -0.17526262153E+02  0.47984008000E+03  0.47801425955E+03 0.  0.
         13    1    3    3    0    0  0.21629113946E+03 -0.12016061907E+03  0.12496943012E+02  0.24774302204E+03  0.00000000000E+00 0.  1.
          3    1    3    3  501    0 -0.21496157920E+03  0.82214177210E+02 -0.30023205164E+02  0.23209705796E+03  0.00000000000E+00 0.  1.
         21    1    1    2  502  501 -0.13295602686E+01  0.37946441859E+02 -0.12621218176E+02  0.40012439672E+02  0.00000000000E+00 0.  1.
<scales pt_clust_4="550.00000" pt_clust_5="550.00000" pt_clust_6="37.96975"></scales>
<mgrwt>
<rscale>  0 0.30000000E+03</rscale>
<asrwt>  1 0.37969746E+02</asrwt>
<pdfrwt beam="1">  1        1 0.89037280E+00 0.30000000E+03</pdfrwt>
<pdfrwt beam="2">0</pdfrwt>
<totfact> 0.14116744E-04</totfact>
</mgrwt>
<clustering>
<clus scale="   37.970">  1  6  2 -1</clus>
<clus scale="  478.014">  4  5 -1 -1</clus>
<clus scale="  300.000">  1  4  2 -1</clus>
</clustering>
</event>
<event>
 6    1  0.9462926E-012  0.3000000E+03  0.7818608E-02  0.1093470E+00
          1   -1    0    0  502    0  0.00000000000E+00  0.00000000000E+00  0.24664298791E+03  0.24664298791E+03  0.00000000000E+00 0.  1.
         13   -1    0    0    0    0 -0.00000000000E+00 -0.00000000000E+00 -0.27500000000E+03  0.27500000000E+03  0.00000000000E+00 0.  1.
    9000005    2    1    2  501    0 -0.44175436714E+00  0.42375740230E+02 -0.22501071418E+02  0.47886226155E+03  0.47645237833E+03 0.  0.
         13    1    3    3    0    0 -0.97206106470E+02  0.97301584805E+02  0.19261184630E+03  0.23667688708E+03  0.00000000000E+00 0.  1.
          1    1    3    3  501    0  0.96764352103E+02 -0.54925844575E+02 -0.21511291772E+03  0.24218537447E+03  0.00000000000E+00 0.  1.
         21    1    1    2  502  501  0.44175436714E+00 -0.42375740230E+02 -0.58559406705E+01  0.42780726363E+02  0.00000000000E+00 0.  1.
<scales pt_clust_4="550.00000" pt_clust_5="550.00000" pt_clust_6="42.37806"></scales>
<mgrwt>
<rscale>  0 0.30000000E+03</rscale>
<asrwt>  1 0.42378064E+02</asrwt>
<pdfrwt beam="1">  1        1 0.89688359E+00 0.30000000E+03</pdfrwt>
<pdfrwt beam="2">0</pdfrwt>
<totfact> 0.11598282E-04</totfact>
</mgrwt>
<clustering>
<clus scale="   42.378">  1  6  2 -1</clus>
<clus scale="  476.452">  4  5 -1 -1</clus>
<clus scale="  300.000">  1  4  2 -1</clus>
</clustering>
</event>
<event>
 6    1  0.9462926E-012  0.3000000E+03  0.7818608E-02  0.1093470E+00
          1   -1    0    0  502    0  0.00000000000E+00  0.00000000000E+00  0.23716320305E+03  0.23716320305E+03  0.00000000000E+00 0.  1.
         13   -1    0    0    0    0 -0.00000000000E+00 -0.00000000000E+00 -0.27500000000E+03  0.27500000000E+03  0.00000000000E+00 0.  1.
    9000005    2    1    2  501    0  0.36596639462E+02  0.23655797784E+02 -0.24141447046E+02  0.46648527186E+03  0.46381762430E+03 0.  0.
         13    1    3    3    0    0 -0.93642467604E+02  0.21030370318E+03  0.31047859441E+02  0.23229405693E+03  0.00000000000E+00 0.  1.
          3    1    3    3  501    0  0.13023910707E+03 -0.18664790540E+03 -0.55189306487E+02  0.23419121493E+03  0.00000000000E+00 0.  1.
         21    1    1    2  502  501 -0.36596639462E+02 -0.23655797784E+02 -0.13695349904E+02  0.45677931189E+02  0.00000000000E+00 0.  1.
<scales pt_clust_4="550.00000" pt_clust_5="550.00000" pt_clust_6="43.57652"></scales>
<mgrwt>
<rscale>  0 0.30000000E+03</rscale>
<asrwt>  1 0.43576515E+02</asrwt>
<pdfrwt beam="1">  1        1 0.86241165E+00 0.30000000E+03</pdfrwt>
<pdfrwt beam="2">0</pdfrwt>
<totfact> 0.29271076E-04</totfact>
</mgrwt>
<clustering>
<clus scale="   43.577">  1  6  2 -1</clus>
<clus scale="  463.818">  4  5 -1 -1</clus>
<clus scale="  300.000">  1  4  2 -1</clus>
</clustering>
</event>
<event>
 6    1  0.9462926E-012  0.3000000E+03  0.7818608E-02  0.1093470E+00
          1   -1    0    0  502    0  0.00000000000E+00  0.00000000000E+00  0.24975750100E+03  0.24975750100E+03  0.00000000000E+00 0.  1.
         13   -1    0    0    0    0 -0.00000000000E+00 -0.00000000000E+00 -0.27500000000E+03  0.27500000000E+03  0.00000000000E+00 0.  1.
    9000005    2    1    2  501    0 -0.23809020264E+02  0.22147241848E+02 -0.50741890439E+02  0.48343452033E+03  0.47966324253E+03 0.  0.
         13    1    3    3    0    0  0.51924367881E+02  0.22491894361E+02  0.20710455610E+03  0.21469588363E+03  0.00000000000E+00 0.  1.
          3    1    3    3  501    0 -0.75733388145E+02 -0.34465251334E+00 -0.25784644654E+03  0.26873863670E+03  0.00000000000E+00 0.  1.
         21    1    1    2  502  501  0.23809020264E+02 -0.22147241848E+02  0.25499391439E+02  0.41322980667E+02  0.00000000000E+00 0. -1.
<scales pt_clust_4="550.00000" pt_clust_5="550.00000" pt_clust_6="32.51722"></scales>
<mgrwt>
<rscale>  0 0.30000000E+03</rscale>
<asrwt>  1 0.32517223E+02</asrwt>
<pdfrwt beam="1">  1        1 0.90820909E+00 0.30000000E+03</pdfrwt>
<pdfrwt beam="2">0</pdfrwt>
<totfact> 0.80310245E-05</totfact>
</mgrwt>
<clustering>
<clus scale="   32.517">  1  6  2 -1</clus>
<clus scale="  479.663">  4  5 -1 -1</clus>
<clus scale="  300.000">  1  4  2 -1</clus>
</clustering>
</event>
<event>
 6    1  0.9462926E-012  0.3000000E+03  0.7818608E-02  0.1093470E+00
          1   -1    0    0  502    0  0.00000000000E+00  0.00000000000E+00  0.23486779841E+03  0.23486779841E+03  0.00000000000E+00 0.  1.
         13   -1    0    0    0    0 -0.00000000000E+00 -0.00000000000E+00 -0.27500000000E+03  0.27500000000E+03  0.00000000000E+00 0.  1.
    9000005    2    1    2  501    0  0.14797467841E+02 -0.28473434129E+02 -0.52083419801E+02  0.47562552742E+03  0.47167494974E+03 0.  0.
         13    1    3    3    0    0  0.10548631580E+02 -0.14231027217E+03 -0.22626176186E+03  0.26750303189E+03  0.00000000000E+00 0.  1.
          1    1    3    3  501    0  0.42488362610E+01  0.11383683804E+03  0.17417834206E+03  0.20812249553E+03  0.00000000000E+00 0.  1.
         21    1    1    2  502  501 -0.14797467841E+02  0.28473434129E+02  0.11951218207E+02  0.34242270986E+02  0.00000000000E+00 0.  1.
<scales pt_clust_4="550.00000" pt_clust_5="550.00000" pt_clust_6="32.08896"></scales>
<mgrwt>
<rscale>  0 0.30000000E+03</rscale>
<asrwt>  1 0.32088962E+02</asrwt>
<pdfrwt beam="1">  1        1 0.85406472E+00 0.30000000E+03</pdfrwt>
<pdfrwt beam="2">0</pdfrwt>
<totfact> 0.37826605E-04</totfact>
</mgrwt>
<clustering>
<clus scale="   32.089">  1  6  2 -1</clus>
<clus scale="  471.675">  4  5 -1 -1</clus>
<clus scale="  300.000">  1  4  2 -1</clus>
</clustering>
</event>
<event>
 6    1  0.9462926E-012  0.3000000E+03  0.7818608E-02  0.1093470E+00
          1   -1    0    0  502    0  0.00000000000E+00  0.00000000000E+00  0.25269941309E+03  0.25269941309E+03  0.00000000000E+00 0.  1.
         13   -1    0    0    0    0 -0.00000000000E+00 -0.00000000000E+00 -0.27500000000E+03  0.27500000000E+03  0.00000000000E+00 0.  1.
    9000005    2    1    2  501    0 -0.55488910468E+02 -0.37430386465E+01 -0.15223338575E+02  0.47163590475E+03  0.46809790332E+03 0.  0.
         13    1    3    3    0    0  0.17543991568E+03  0.85909938719E+02  0.73195645306E+02  0.20860796744E+03  0.00000000000E+00 0.  1.
          3    1    3    3  501    0 -0.23092882615E+03 -0.89652977366E+02 -0.88418983881E+02  0.26302793732E+03  0.00000000000E+00 0.  1.
         21    1    1    2  502  501  0.55488910468E+02  0.37430386465E+01 -0.70772483352E+01  0.56063508338E+02  0.00000000000E+00 0. -1.
<scales pt_clust_4="550.00000" pt_clust_5="550.00000" pt_clust_6="55.61504"></scales>
<mgrwt>
<rscale>  0 0.30000000E+03</rscale>
<asrwt>  1 0.55615039E+02</asrwt>
<pdfrwt beam="1">  1        1 0.91890696E+00 0.30000000E+03</pdfrwt>
<pdfrwt beam="2">0</pdfrwt>
<totfact> 0.40645148E-05</totfact>
</mgrwt>
<clustering>
<clus scale="   55.615">  1  6  2 -1</clus>
<clus scale="  468.098">  4  5 -1 -1</clus>
<clus scale="  300.000">  1  4  2 -1</clus>
</clustering>
</event>
<event>
 6    1  0.9462926E-012  0.3000000E+03  0.7818608E-02  0.1093470E+00
          1   -1    0    0  502    0  0.00000000000E+00  0.00000000000E+00  0.24332289363E+03  0.24332289363E+03  0.00000000000E+00 0.  1.
         13   -1    0    0    0    0 -0.00000000000E+00 -0.00000000000E+00 -0.27500000000E+03  0.27500000000E+03  0.00000000000E+00 0.  1.
    9000005    2    1    2  501    0 -0.13548928768E+02 -0.33817029436E+02 -0.19883606983E+02  0.48003122902E+03  0.47823368562E+03 0.  0.
         13    1    3    3    0    0 -0.16271362197E+03  0.10601202340E+03  0.12364808882E+03  0.23022406857E+03  0.00000000000E+00 0.  1.
          3    1    3    3  501    0  0.14916469320E+03 -0.13982905284E+03 -0.14353169580E+03  0.24980716045E+03  0.00000000000E+00 0.  1.
         21    1    1    2  502  501  0.13548928768E+02  0.33817029436E+02 -0.11793499388E+02  0.38291664608E+02  0.00000000000E+00 0. -1.
<scales pt_clust_4="550.00000" pt_clust_5="550.00000" pt_clust_6="36.43029"></scales>
<mgrwt>
<rscale>  0 0.30000000E+03</rscale>
<asrwt>  1 0.36430293E+02</asrwt>
<pdfrwt beam="1">  1        1 0.88481052E+00 0.30000000E+03</pdfrwt>
<pdfrwt beam="2">0</pdfrwt>
<totfact> 0.16945479E-04</totfact>
</mgrwt>
<clustering>
<clus scale="   36.430">  1  6  2 -1</clus>
<clus scale="  478.234">  4  5 -1 -1</clus>
<clus scale="  300.000">  1  4  2 -1</clus>
</clustering>
</event>
<event>
 6    1  0.9462926E-012  0.3000000E+03  0.7818608E-02  0.1093470E+00
          1   -1    0    0  502    0  0.00000000000E+00  0.00000000000E+00  0.24745769050E+03  0.24745769050E+03  0.00000000000E+00 0.  1.
         13   -1    0    0    0    0 -0.00000000000E+00 -0.00000000000E+00 -0.27500000000E+03  0.27500000000E+03  0.00000000000E+00 0.  1.
    9000005    2    1    2  501    0 -0.70585553708E+01  0.29903795810E+02 -0.14636282503E+02  0.48913163852E+03  0.48794618436E+03 0.  0.
         13    1    3    3    0    0 -0.56184092575E+02  0.15964257743E+03  0.18197127697E+03  0.24850744542E+03  0.00000000000E+00 0.  1.
          3    1    3    3  501    0  0.49125537204E+02 -0.12973878162E+03 -0.19660755947E+03  0.24062419310E+03  0.00000000000E+00 0.  1.
         21    1    1    2  502  501  0.70585553708E+01 -0.29903795810E+02 -0.12906026996E+02  0.33326051980E+02  0.00000000000E+00 0.  1.
<scales pt_clust_4="550.00000" pt_clust_5="550.00000" pt_clust_6="30.72558"></scales>
<mgrwt>
<rscale>  0 0.30000000E+03</rscale>
<asrwt>  1 0.30725578E+02</asrwt>
<pdfrwt beam="1">  1        1 0.89984615E+00 0.30000000E+03</pdfrwt>
<pdfrwt beam="2">0</pdfrwt>
<totfact> 0.11370209E-04</totfact>
</mgrwt>
<clustering>
<clus scale="   30.726">  1  6  2 -1</clus>
<clus scale="  487.946">  4  5 -1 -1</clus>
<clus scale="  300.000">  1  4  2 -1</clus>
</clustering>
</event>
<event>
 6    1  0.9462926E-012  0.3000000E+03  0.7818608E-02  0.1093470E+00
          1   -1    0    0  502    0  0.00000000000E+00  0.00000000000E+00  0.25105194168E+03  0.25105194168E+03  0.00000000000E+00 0.  1.
         13   -1    0    0    0    0 -0.00000000000E+00 -0.00000000000E+00 -0.27500000000E+03  0.27500000000E+03  0.00000000000E+00 0.  1.
    9000005    2    1    2  501    0 -0.26417138890E+02  0.41672466413E+02 -0.37082428037E+02  0.47499343258E+03  0.47096623535E+03 0.  0.
         13    1    3    3    0    0 -0.71155940895E+02 -0.14839564553E+03 -0.17169173567E+03  0.23782869388E+03  0.00000000000E+00 0.  1.
          1    1    3    3  501    0  0.44738802005E+02  0.19006811194E+03  0.13460930763E+03  0.23716473870E+03  0.00000000000E+00 0.  1.
         21    1    1    2  502  501  0.26417138890E+02 -0.41672466413E+02  0.13134369718E+02  0.51058509104E+02  0.00000000000E+00 0.  1.
<scales pt_clust_4="550.00000" pt_clust_5="550.00000" pt_clust_6="49.34024"></scales>
<mgrwt>
<rscale>  0 0.30000000E+03</rscale>
<asrwt>  1 0.49340244E+02</asrwt>
<pdfrwt beam="1">  1        1 0.91291615E+00 0.30000000E+03</pdfrwt>
<pdfrwt beam="2">0</pdfrwt>
<totfact> 0.57143143E-05</totfact>
</mgrwt>
<clustering>
<clus scale="   49.340">  1  6  2 -1</clus>
<clus scale="  470.966">  4  5 -1 -1</clus>
<clus scale="  300.000">  1  4  2 -1</clus>
</clustering>
</event>
<event>
 6    1  0.9462926E-012  0.3000000E+03  0.7818608E-02  0.1093470E+00
          1   -1    0    0  502    0  0.00000000000E+00  0.00000000000E+00  0.23137090947E+03  0.23137090947E+03  0.00000000000E+00 0.  1.
         13   -1    0    0    0    0 -0.00000000000E+00 -0.00000000000E+00 -0.27500000000E+03  0.27500000000E+03  0.00000000000E+00 0.  1.
    9000005    2    1    2  501    0  0.30860541372E+02  0.24662573648E+02 -0.37268709552E+02  0.46635753672E+03  0.46318439070E+03 0.  0.
         13    1    3    3    0    0 -0.92516372561E+02 -0.14597943635E+03 -0.14881237075E+03  0.22806664973E+03  0.00000000000E+00 0.  1.
          1    1    3    3  501    0  0.12337691393E+03  0.17064201000E+03  0.11154366120E+03  0.23829088699E+03  0.00000000000E+00 0.  1.
         21    1    1    2  502  501 -0.30860541372E+02 -0.24662573648E+02 -0.63603809799E+01  0.40013372752E+02  0.00000000000E+00 0. -1.
<scales pt_clust_4="550.00000" pt_clust_5="550.00000" pt_clust_6="39.50465"></scales>
<mgrwt>
<rscale>  0 0.30000000E+03</rscale>
<asrwt>  1 0.39504647E+02</asrwt>
<pdfrwt beam="1">  1        1 0.84134876E+00 0.30000000E+03</pdfrwt>
<pdfrwt beam="2">0</pdfrwt>
<totfact> 0.47432634E-04</totfact>
</mgrwt>
<clustering>
<clus scale="   39.505">  1  6  2 -1</clus>
<clus scale="  463.184">  4  5 -1 -1</clus>
<clus scale="  300.000">  1  4  2 -1</clus>
</clustering>
</event>
<event>
 6    1  0.9462926E-012  0.3000000E+03  0.7818608E-02  0.1093470E+00
          1   -1    0    0  502    0  0.00000000000E+00  0.00000000000E+00  0.24868865910E+03  0.24868865910E+03  0.00000000000E+00 0.  1.
         13   -1    0    0    0    0 -0.00000000000E+00 -0.00000000000E+00 -0.27500000000E+03  0.27500000000E+03  0.00000000000E+00 0.  1.
    9000005    2    1    2  501    0  0.29968141785E+02  0.78038995400E+01 -0.68119323234E+02  0.47166080351E+03  0.46568732107E+03 0.  0.
         13    1    3    3    0    0  0.20490362470E+03 -0.13016471109E+03 -0.52177358201E+02  0.24829583995E+03  0.00000000000E+00 0.  1.
          1    1    3    3  501    0 -0.17493548291E+03  0.13796861063E+03 -0.15941965033E+02  0.22336496357E+03  0.00000000000E+00 0.  1.
         21    1    1    2  502  501 -0.29968141785E+02 -0.78038995400E+01  0.41807982331E+02  0.52027855584E+02  0.00000000000E+00 0.  1.
<scales pt_clust_4="550.00000" pt_clust_5="550.00000" pt_clust_6="30.96757"></scales>
<mgrwt>
<rscale>  0 0.30000000E+03</rscale>
<asrwt>  1 0.30967570E+02</asrwt>
<pdfrwt beam="1">  1        1 0.90432240E+00 0.30000000E+03</pdfrwt>
<pdfrwt beam="2">0</pdfrwt>
<totfact> 0.97391825E-05</totfact>
</mgrwt>
<clustering>
<clus scale="   30.968">  1  6  2 -1</clus>
<clus scale="  465.687">  4  5 -1 -1</clus>
<clus scale="  300.000">  1  4  2 -1</clus>
</clustering>
</event>
<event>
 6    1  0.9462926E-012  0.3000000E+03  0.7818608E-02  0.1093470E+00
          1   -1    0    0  502    0  0.00000000000E+00  0.00000000000E+00  0.21937903052E+03  0.21937903052E+03  0.00000000000E+00 0.  1.
         13   -1    0    0    0    0 -0.00000000000E+00 -0.00000000000E+00 -0.27500000000E+03  0.27500000000E+03  0.00000000000E+00 0.  1.
    9000005    2    1    2  501    0  0.14090969212E+02 -0.29020764016E+02 -0.46229733731E+02  0.46077909799E+03  0.45731764530E+03 0.  0.
         13    1    3    3    0    0 -0.20023381740E+03 -0.87338906017E+02  0.40781785184E+02  0.22222695637E+03  0.00000000000E+00 0.  1.
          3    1    3    3  501    0  0.21432478661E+03  0.58318142001E+02 -0.87011518915E+02  0.23855214161E+03  0.00000000000E+00 0.  1.
         21    1    1    2  502  501 -0.14090969212E+02  0.29020764016E+02 -0.93912357495E+01  0.33599932534E+02  0.00000000000E+00 0. -1.
<scales pt_clust_4="550.00000" pt_clust_5="550.00000" pt_clust_6="32.26083"></scales>
<mgrwt>
<rscale>  0 0.30000000E+03</rscale>
<asrwt>  1 0.32260831E+02</asrwt>
<pdfrwt beam="1">  1        1 0.79774193E+00 0.30000000E+03</pdfrwt>
<pdfrwt beam="2">0</pdfrwt>
<totfact> 0.10935061E-03</totfact>
</mgrwt>
<clustering>
<clus scale="   32.261">  1  6  2 -1</clus>
<clus scale="  457.318">  4  5 -1 -1</clus>
<clus scale="  300.000">  1  4  2 -1</clus>
</clustering>
</event>
<event>
 6    1  0.9462926E-012  0.3000000E+03  0.7818608E-02  0.1093470E+00
          1   -1    0    0  502    0  0.00000000000E+00  0.00000000000E+00  0.24134077195E+03  0.24134077195E+03  0.00000000000E+00 0.  1.
         13   -1    0    0    0    0 -0.00000000000E+00 -0.00000000000E+00 -0.27500000000E+03  0.27500000000E+03  0.00000000000E+00 0.  1.
    9000005    2    1    2  501    0 -0.35184433200E+02  0.98900907446E+01 -0.43237752654E+02  0.47855841670E+03  0.47519774485E+03 0.  0.
         13    1    3    3    0    0 -0.10530368704E+03  0.92974283221E+02 -0.22588565830E+03  0.26600265876E+03  0.00000000000E+00 0.  1.
          3    1    3    3  501    0  0.70119253836E+02 -0.83084192477E+02  0.18264790564E+03  0.21255575794E+03  0.00000000000E+00 0.  1.
         21    1    1    2  502  501  0.35184433200E+02 -0.98900907446E+01  0.95785246041E+01  0.37782355249E+02  0.00000000000E+00 0.  1.
<scales pt_clust_4="550.00000" pt_clust_5="550.00000" pt_clust_6="36.54803"></scales>
<mgrwt>
<rscale>  0 0.30000000E+03</rscale>
<asrwt>  1 0.36548026E+02</asrwt>
<pdfrwt beam="1">  1        1 0.87760281E+00 0.30000000E+03</pdfrwt>
<pdfrwt beam="2">0</pdfrwt>
<totfact> 0.20899423E-04</totfact>
</mgrwt>
<clustering>
<clus scale="   36.548">  1  6  2 -1</clus>
<clus scale="  475.198">  4  5 -1 -1</clus>
<clus scale="  300.000">  1  4  2 -1</clus>
</clustering>
</event>
<event>
 6    1  0.9462926E-012  0.3000000E+03  0.7818608E-02  0.1093470E+00
          1   -1    0    0  502    0  0.00000000000E+00  0.00000000000E+00  0.23595227460E+03  0.23595227460E+03  0.00000000000E+00 0.  1.
         13   -1    0    0    0    0 -0.00000000000E+00 -0.00000000000E+00 -0.27500000000E+03  0.27500000000E+03  0.00000000000E+00 0.  1.
    9000005    2    1    2  501    0  0.30425172843E+02  0.19739703173E+01 -0.57106625388E+02  0.47551625380E+03  0.47108911393E+03 0.  0.
         13    1    3    3    0    0  0.15634867607E+03  0.10700339019E+03 -0.18709415841E+03  0.26626839492E+03  0.00000000000E+00 0.  1.
          3    1    3    3  501    0 -0.12592350323E+03 -0.10502941987E+03  0.12998753302E+03  0.20924785888E+03  0.00000000000E+00 0.  1.
         21    1    1    2  502  501 -0.30425172843E+02 -0.19739703173E+01  0.18058899985E+02  0.35436020798E+02  0.00000000000E+00 0.  1.
<scales pt_clust_4="550.00000" pt_clust_5="550.00000" pt_clust_6="30.48914"></scales>
<mgrwt>
<rscale>  0 0.30000000E+03</rscale>
<asrwt>  1 0.30489141E+02</asrwt>
<pdfrwt beam="1">  1        1 0.85800827E+00 0.30000000E+03</pdfrwt>
<pdfrwt beam="2">0</pdfrwt>
<totfact> 0.34850470E-04</totfact>
</mgrwt>
<clustering>
<clus scale="   30.489">  1  6  2 -1</clus>
<clus scale="  471.089">  4  5 -1 -1</clus>
<clus scale="  300.000">  1  4  2 -1</clus>
</clustering>
</event>
<event>
 6    1  0.9462926E-012  0.3000000E+03  0.7818608E-02  0.1093470E+00
          1   -1    0    0  502    0  0.00000000000E+00  0.00000000000E+00  0.23359277670E+03  0.23359277670E+03  0.00000000000E+00 0.  1.
         13   -1    0    0    0    0 -0.00000000000E+00 -0.00000000000E+00 -0.27500000000E+03  0.27500000000E+03  0.00000000000E+00 0.  1.
    9000005    2    1    2  501    0  0.11193902354E+02 -0.28960224740E+02 -0.61585097501E+02  0.47156380596E+03  0.46649298043E+03 0.  0.
         13    1    3    3    0    0 -0.54279646573E+02 -0.12167177053E+03 -0.23157496983E+03  0.26716524181E+03  0.00000000000E+00 0.  1.
          3    1    3    3  501    0  0.65473548927E+02  0.92711545795E+02  0.16998987233E+03  0.20439856415E+03  0.00000000000E+00 0.  1.
         21    1    1    2  502  501 -0.11193902354E+02  0.28960224740E+02  0.20177874204E+02  0.37028970743E+02  0.00000000000E+00 0. -1.
<scales pt_clust_4="550.00000" pt_clust_5="550.00000" pt_clust_6="31.04832"></scales>
<mgrwt>
<rscale>  0 0.30000000E+03</rscale>
<asrwt>  1 0.31048318E+02</asrwt>
<pdfrwt beam="1">  1        1 0.84942828E+00 0.30000000E+03</pdfrwt>
<pdfrwt beam="2">0</pdfrwt>
<totfact> 0.42147110E-04</totfact>
</mgrwt>
<clustering>
<clus scale="   31.048">  1  6  2 -1</clus>
<clus scale="  466.493">  4  5 -1 -1</clus>
<clus scale="  300.000">  1  4  2 -1</clus>
</clustering>
</event>
<event>
 6    1  0.9462926E-012  0.3000000E+03  0.7818608E-02  0.1093470E+00
          1   -1    0    0  502    0  0.00000000000E+00  0.00000000000E+00  0.22234672770E+03  0.22234672770E+03  0.00000000000E+00 0.  1.
         13   -1    0    0    0    0 -0.00000000000E+00 -0.00000000000E+00 -0.27500000000E+03  0.27500000000E+03  0.00000000000E+00 0.  1.
    9000005    2    1    2  501    0 -0.14135948443E+02  0.31678431960E+02 -0.53254759444E+02  0.46265220541E+03  0.45826591154E+03 0.  0.
         13    1    3    3    0    0 -0.17830235131E+03 -0.10161937432E+03 -0.12386128554E+03  0.23970783002E+03  0.00000000000E+00 0.  1.
          1    1    3    3  501    0  0.16416640287E+03  0.13329780628E+03  0.70606526091E+02  0.22294437539E+03  0.00000000000E+00 0.  1.
         21    1    1    2  502  501  0.14135948443E+02 -0.31678431960E+02  0.60148713914E+00  0.34694522285E+02  0.00000000000E+00 0.  1.
<scales pt_clust_4="550.00000" pt_clust_5="550.00000" pt_clust_6="34.68931"></scales>
<mgrwt>
<rscale>  0 0.30000000E+03</rscale>
<asrwt>  1 0.34689308E+02</asrwt>
<pdfrwt beam="1">  1        1 0.80853356E+00 0.30000000E+03</pdfrwt>
<pdfrwt beam="2">0</pdfrwt>
<totfact> 0.89681230E-04</totfact>
</mgrwt>
<clustering>
<clus scale="   34.689">  1  6  2 -1</clus>
<clus scale="  458.266">  4  5 -1 -1</clus>
<clus scale="  300.000">  1  4  2 -1</clus>
</clustering>
</event>
<event>
 6    1  0.9462926E-012  0.3000000E+03  0.7818608E-02  0.1093470E+00
          1   -1    0    0  502    0  0.00000000000E+00  0.00000000000E+00  0.23722042142E+03  0.23722042142E+03  0.00000000000E+00 0.  1.
         13   -1    0    0    0    0 -0.00000000000E+00 -0.00000000000E+00 -0.27500000000E+03  0.27500000000E+03  0.00000000000E+00 0.  1.
    9000005    2    1    2  501    0 -0.22315427139E+02  0.23045256632E+02 -0.57078358482E+02  0.47478374091E+03  0.47024738116E+03 0.  0.
         13    1    3    3    0    0 -0.81490447072E+02 -0.12907000553E+02 -0.25346129110E+03  0.26655188935E+03  0.00000000000E+00 0.  1.
          1    1    3    3  501    0  0.59175019933E+02  0.35952257185E+02  0.19638293262E+03  0.20823185156E+03  0.00000000000E+00 0.  1.
         21    1    1    2  502  501  0.22315427139E+02 -0.23045256632E+02  0.19298779902E+02  0.37436680507E+02  0.00000000000E+00 0.  1.
<scales pt_clust_4="550.00000" pt_clust_5="550.00000" pt_clust_6="32.07900"></scales>
<mgrwt>
<rscale>  0 0.30000000E+03</rscale>
<asrwt>  1 0.32078998E+02</asrwt>
<pdfrwt beam="1">  1        1 0.86261971E+00 0.30000000E+03</pdfrwt>
<pdfrwt beam="2">0</pdfrwt>
<totfact> 0.30815666E-04</totfact>
</mgrwt>
<clustering>
<clus scale="   32.079">  1  6  2 -1</clus>
<clus scale="  470.247">  4  5 -1 -1</clus>
<clus scale="  300.000">  1  4  2 -1</clus>
</clustering>
</event>
<event>
 6    1  0.9462926E-012  0.3000000E+03  0.7818608E-02  0.1093470E+00
          1   -1    0    0  502    0  0.00000000000E+00  0.00000000000E+00  0.24136101086E+03  0.24136101086E+03  0.00000000000E+00 0.  1.
         13   -1    0    0    0    0 -0.00000000000E+00 -0.00000000000E+00 -0.27500000000E+03  0.27500000000E+03  0.00000000000E+00 0.  1.
    9000005    2    1    2  501    0 -0.14862130172E+02 -0.28937250565E+02 -0.30577496863E+02  0.48368655419E+03  0.48162168972E+03 0.  0.
         13    1    3    3    0    0  0.10573093828E+03 -0.99477155465E+02 -0.21061556307E+03  0.25580002185E+03  0.00000000000E+00 0.  1.
          1    1    3    3  501    0 -0.12059306845E+03  0.70539904899E+02  0.18003806621E+03  0.22788653235E+03  0.00000000000E+00 0.  1.
         21    1    1    2  502  501  0.14862130172E+02  0.28937250565E+02 -0.30614922754E+01  0.32674456667E+02  0.00000000000E+00 0.  1.
<scales pt_clust_4="550.00000" pt_clust_5="550.00000" pt_clust_6="32.53073"></scales>
<mgrwt>
<rscale>  0 0.30000000E+03</rscale>
<asrwt>  1 0.32530731E+02</asrwt>
<pdfrwt beam="1">  1        1 0.87767640E+00 0.30000000E+03</pdfrwt>
<pdfrwt beam="2">0</pdfrwt>
<totfact> 0.21319880E-04</totfact>
</mgrwt>
<clustering>
<clus scale="   32.531">  1  6  2 -1</clus>
<clus scale="  481.622">  4  5 -1 -1</clus>
<clus scale="  300.000">  1  4  2 -1</clus>
</clustering>
</event>
<event>
 6    1  0.9462926E-012  0.3000000E+03  0.7818608E-02  0.1093470E+00
          1   -1    0    0  502    0  0.00000000000E+00  0.00000000000E+00  0.23754041832E+03  0.23754041832E+03  0.00000000000E+00 0.  1.
         13   -1    0    0    0    0 -0.00000000000E+00 -0.00000000000E+00 -0.27500000000E+03  0.27500000000E+03  0.00000000000E+00 0.  1.
    9000005    2    1    2  501    0 -0.28498953122E+02  0.11976910993E+02 -0.52837571739E+02  0.47801333758E+03  0.47407731984E+03 0.  0.
         13    1    3    3    0    0  0.12272305534E+03  0.14720912816E+03  0.10721847256E+03  0.21960709594E+03  0.00000000000E+00 0.  1.
          3    1    3    3  501    0 -0.15122200846E+03 -0.13523221717E+03 -0.16005604430E+03  0.25840624165E+03  0.00000000000E+00 0.  1.
         21    1    1    2  502  501  0.28498953122E+02 -0.11976910993E+02  0.15377990054E+02  0.34527080735E+02  0.00000000000E+00 0.  1.
<scales pt_clust_4="550.00000" pt_clust_5="550.00000" pt_clust_6="30.91337"></scales>
<mgrwt>
<rscale>  0 0.30000000E+03</rscale>
<asrwt>  1 0.30913375E+02</asrwt>
<pdfrwt beam="1">  1        1 0.86378334E+00 0.30000000E+03</pdfrwt>
<pdfrwt beam="2">0</pdfrwt>
<totfact> 0.30147184E-04</totfact>
</mgrwt>
<clustering>
<clus scale="   30.913">  1  6  2 -1</clus>
<clus scale="  474.077">  4  5 -1 -1</clus>
<clus scale="  300.000">  1  4  2 -1</clus>
</clustering>
</event>
<event>
 6    1  0.9462926E-012  0.3000000E+03  0.7818608E-02  0.1093470E+00
          1   -1    0    0  502    0  0.00000000000E+00  0.00000000000E+00  0.22772182920E+03  0.22772182920E+03  0.00000000000E+00 0.  1.
         13   -1    0    0    0    0 -0.00000000000E+00 -0.00000000000E+00 -0.27500000000E+03  0.27500000000E+03  0.00000000000E+00 0.  1.
    9000005    2    1    2  501    0  0.87477424924E+01  0.32462185448E+02 -0.39073680162E+02  0.46811503580E+03  0.46526832880E+03 0.  0.
         13    1    3    3    0    0  0.14459997721E+03  0.96896305155E+02 -0.18819435721E+03  0.25634968977E+03  0.00000000000E+00 0.  1.
          3    1    3    3  501    0 -0.13585223471E+03 -0.64434119707E+02  0.14912067704E+03  0.21176534603E+03  0.00000000000E+00 0.  1.
         21    1    1    2  502  501 -0.87477424924E+01 -0.32462185448E+02 -0.82044906357E+01  0.34606793399E+02  0.00000000000E+00 0. -1.
<scales pt_clust_4="550.00000" pt_clust_5="550.00000" pt_clust_6="33.62020"></scales>
<mgrwt>
<rscale>  0 0.30000000E+03</rscale>
<asrwt>  1 0.33620197E+02</asrwt>
<pdfrwt beam="1">  1        1 0.82807938E+00 0.30000000E+03</pdfrwt>
<pdfrwt beam="2">0</pdfrwt>
<totfact> 0.61822426E-04</totfact>
</mgrwt>
<clustering>
<clus scale="   33.620">  1  6  2 -1</clus>
<clus scale="  465.268">  4  5 -1 -1</clus>
<clus scale="  300.000">  1  4  2 -1</clus>
</clustering>
</event>
<event>
 6    1  0.9462926E-012  0.3000000E+03  0.7818608E-02  0.1093470E+00
          1   -1    0    0  502    0  0.00000000000E+00  0.00000000000E+00  0.23411410474E+03  0.23411410474E+03  0.00000000000E+00 0.  1.
         13   -1    0    0    0    0 -0.00000000000E+00 -0.00000000000E+00 -0.27500000000E+03  0.27500000000E+03  0.00000000000E+00 0.  1.
    9000005    2    1    2  501    0 -0.33578430761E+01 -0.45569776757E+02 -0.23562795119E+02  0.46024725031E+03  0.45736686198E+03 0.  0.
         13    1    3    3    0    0 -0.19560259878E+03 -0.76852829609E+02  0.96698331503E+02  0.23133806730E+03  0.00000000000E+00 0.  1.
          3    1    3    3  501    0  0.19224475570E+03  0.31283052852E+02 -0.12026112662E+03  0.22890918301E+03  0.00000000000E+00 0.  1.
         21    1    1    2  502  501  0.33578430761E+01  0.45569776757E+02 -0.17323100137E+02  0.48866854433E+02  0.00000000000E+00 0. -1.
<scales pt_clust_4="550.00000" pt_clust_5="550.00000" pt_clust_6="45.69334"></scales>
<mgrwt>
<rscale>  0 0.30000000E+03</rscale>
<asrwt>  1 0.45693345E+02</asrwt>
<pdfrwt beam="1">  1        1 0.85132402E+00 0.30000000E+03</pdfrwt>
<pdfrwt beam="2">0</pdfrwt>
<totfact> 0.37664573E-04</totfact>
</mgrwt>
<clustering>
<clus scale="   45.693">  1  6  2 -1</clus>
<clus scale="  457.367">  4  5 -1 -1</clus>
<clus scale="  300.000">  1  4  2 -1</clus>
</clustering>
</event>
<event>
 6    1  0.9462926E-012  0.3000000E+03  0.7818608E-02  0.1093470E+00
          1   -1    0    0  502    0  0.00000000000E+00  0.00000000000E+00  0.23796917837E+03  0.23796917837E+03  0.00000000000E+00 0.  1.
         13   -1    0    0    0    0 -0.00000000000E+00 -0.00000000000E+00 -0.27500000000E+03  0.27500000000E+03  0.00000000000E+00 0.  1.
    9000005    2    1    2  501    0 -0.24796099584E+01  0.47446375814E+02 -0.41081110818E+02  0.46528572331E+03  0.46102694022E+03 0.  0.
         13    1    3    3    0    0 -0.10056796118E+03 -0.12060113498E+03  0.13179031322E+03  0.20500545172E+03  0.00000000000E+00 0.  1.
          1    1    3    3  501    0  0.98088351222E+02  0.16804751080E+03 -0.17287142404E+03  0.26028027159E+03  0.00000000000E+00 0.  1.
         21    1    1    2  502  501  0.24796099584E+01 -0.47446375814E+02  0.40502891869E+01  0.47683455055E+02  0.00000000000E+00 0.  1.
<scales pt_clust_4="550.00000" pt_clust_5="550.00000" pt_clust_6="47.51113"></scales>
<mgrwt>
<rscale>  0 0.30000000E+03</rscale>
<asrwt>  1 0.47511125E+02</asrwt>
<pdfrwt beam="1">  1        1 0.86534247E+00 0.30000000E+03</pdfrwt>
<pdfrwt beam="2">0</pdfrwt>
<totfact> 0.26797173E-04</totfact>
</mgrwt>
<clustering>
<clus scale="   47.511">  1  6  2 -1</clus>
<clus scale="  461.027">  4  5 -1 -1</clus>
<clus scale="  300.000">  1  4  2 -1</clus>
</clustering>
</event>
<event>
 6    1  0.9462926E-012  0.3000000E+03  0.7818608E-02  0.1093470E+00
          1   -1    0    0  502    0  0.00000000000E+00  0.00000000000E+00  0.23753403990E+03  0.23753403990E+03  0.00000000000E+00 0.  1.
         13   -1    0    0    0    0 -0.00000000000E+00 -0.00000000000E+00 -0.27500000000E+03  0.27500000000E+03  0.00000000000E+00 0.  1.
    9000005    2    1    2  501    0  0.18175032222E+02  0.31653741844E+02 -0.49339096220E+02  0.47415093776E+03  0.47016217860E+03 0.  0.
         13    1    3    3    0    0 -0.18268674525E+02 -0.18567520223E+03  0.96350033274E+02  0.20998179469E+03  0.00000000000E+00 0.  1.
          1    1    3    3  501    0  0.36443706747E+02  0.21732894407E+03 -0.14568912949E+03  0.26416914306E+03  0.00000000000E+00 0.  1.
         21    1    1    2  502  501 -0.18175032222E+02 -0.31653741844E+02  0.11873136123E+02  0.38383102147E+02  0.00000000000E+00 0.  1.
<scales pt_clust_4="550.00000" pt_clust_5="550.00000" pt_clust_6="36.50056"></scales>
<mgrwt>
<rscale>  0 0.30000000E+03</rscale>
<asrwt>  1 0.36500564E+02</asrwt>
<pdfrwt beam="1">  1        1 0.86376015E+00 0.30000000E+03</pdfrwt>
<pdfrwt beam="2">0</pdfrwt>
<totfact> 0.29234626E-04</totfact>
</mgrwt>
<clustering>
<clus scale="   36.501">  1  6  2 -1</clus>
<clus scale="  470.162">  4  5 -1 -1</clus>
<clus scale="  300.000">  1  4  2 -1</clus>
</clustering>
</event>
<event>
 6    1  0.9462926E-012  0.3000000E+03  0.7818608E-02  0.1093470E+00
          1   -1    0    0  502    0  0.00000000000E+00  0.00000000000E+00  0.22860029736E+03  0.22860029736E+03  0.00000000000E+00 0.  1.
         13   -1    0    0    0    0 -0.00000000000E+00 -0.00000000000E+00 -0.27500000000E+03  0.27500000000E+03  0.00000000000E+00 0.  1.
    9000005    2    1    2  501    0  0.26815773205E+02  0.18170574838E+02 -0.61580889006E+02  0.46782706852E+03  0.46262371822E+03 0.  0.
         13    1    3    3    0    0  0.21808022709E+03  0.64844200641E+02 -0.12675483417E+03  0.26044297608E+03  0.00000000000E+00 0.  1.
          1    1    3    3  501    0 -0.19126445389E+03 -0.46673625803E+02  0.65173945164E+02  0.20738409243E+03  0.00000000000E+00 0.  1.
         21    1    1    2  502  501 -0.26815773205E+02 -0.18170574838E+02  0.15181186368E+02  0.35773228846E+02  0.00000000000E+00 0.  1.
<scales pt_clust_4="550.00000" pt_clust_5="550.00000" pt_clust_6="32.39221"></scales>
<mgrwt>
<rscale>  0 0.30000000E+03</rscale>
<asrwt>  1 0.32392213E+02</asrwt>
<pdfrwt beam="1">  1        1 0.83127381E+00 0.30000000E+03</pdfrwt>
<pdfrwt beam="2">0</pdfrwt>
<totfact> 0.58566203E-04</totfact>
</mgrwt>
<clustering>
<clus scale="   32.392">  1  6  2 -1</clus>
<clus scale="  462.624">  4  5 -1 -1</clus>
<clus scale="  300.000">  1  4  2 -1</clus>
</clustering>
</event>
<event>
 6    1  0.9462926E-012  0.3000000E+03  0.7818608E-02  0.1093470E+00
          1   -1    0    0  502    0  0.00000000000E+00  0.00000000000E+00  0.24628691789E+03  0.24628691789E+03  0.00000000000E+00 0.  1.
         13   -1    0    0    0    0 -0.00000000000E+00 -0.00000000000E+00 -0.27500000000E+03  0.27500000000E+03  0.00000000000E+00 0.  1.
    9000005    2    1    2  501    0 -0.35287698925E+02 -0.26517165455E+02 -0.58057982859E+02  0.46828215434E+03  0.46256790306E+03 0.  0.
         13    1    3    3    0    0 -0.28177755037E+02  0.17937788638E+03 -0.15672071182E+03  0.23985786106E+03  0.00000000000E+00 0.  1.
          1    1    3    3  501    0 -0.71099438877E+01 -0.20589505184E+03  0.98662728957E+02  0.22842429327E+03  0.00000000000E+00 0.  1.
         21    1    1    2  502  501  0.35287698925E+02  0.26517165455E+02  0.29344900750E+02  0.53004763552E+02  0.00000000000E+00 0.  1.
<scales pt_clust_4="550.00000" pt_clust_5="550.00000" pt_clust_6="44.14048"></scales>
<mgrwt>
<rscale>  0 0.30000000E+03</rscale>
<asrwt>  1 0.44140478E+02</asrwt>
<pdfrwt beam="1">  1        1 0.89558879E+00 0.30000000E+03</pdfrwt>
<pdfrwt beam="2">0</pdfrwt>
<totfact> 0.11902946E-04</totfact>
</mgrwt>
<clustering>
<clus scale="   44.140">  1  6  2 -1</clus>
<clus scale="  462.568">  4  5 -1 -1</clus>
<clus scale="  300.000">  1  4  2 -1</clus>
</clustering>
</event>
<event>
 6    1  0.9462926E-012  0.3000000E+03  0.7818608E-02  0.1093470E+00
          1   -1    0    0  502    0  0.00000000000E+00  0.00000000000E+00  0.23631632404E+03  0.23631632404E+03  0.00000000000E+00 0.  1.
         13   -1    0    0    0    0 -0.00000000000E+00 -0.00000000000E+00 -0.27500000000E+03  0.27500000000E+03  0.00000000000E+00 0.  1.
    9000005    2    1    2  501    0  0.44192883662E+02 -0.94096698117E+01 -0.58136548253E+02  0.46212316300E+03  0.45621969126E+03 0.  0.
         13    1    3    3    0    0 -0.17031762511E+03 -0.70258271694E+02 -0.13265375525E+03  0.22702717226E+03  0.00000000000E+00 0.  1.
          3    1    3    3  501    0  0.21451050877E+03  0.60848601882E+02  0.74517207001E+02  0.23509599074E+03  0.00000000000E+00 0.  1.
         21    1    1    2  502  501 -0.44192883662E+02  0.94096698117E+01  0.19452872296E+02  0.49193161038E+02  0.00000000000E+00 0. -1.
<scales pt_clust_4="550.00000" pt_clust_5="550.00000" pt_clust_6="45.18355"></scales>
<mgrwt>
<rscale>  0 0.30000000E+03</rscale>
<asrwt>  1 0.45183546E+02</asrwt>
<pdfrwt beam="1">  1        1 0.85933209E+00 0.30000000E+03</pdfrwt>
<pdfrwt beam="2">0</pdfrwt>
<totfact> 0.31380748E-04</totfact>
</mgrwt>
<clustering>
<clus scale="   45.184">  1  6  2 -1</clus>
<clus scale="  456.220">  4  5 -1 -1</clus>
<clus scale="  300.000">  1  4  2 -1</clus>
</clustering>
</event>
<event>
 6    1  0.9462926E-012  0.3000000E+03  0.7818608E-02  0.1093470E+00
          1   -1    0    0  502    0  0.00000000000E+00  0.00000000000E+00  0.23444680760E+03  0.23444680760E+03  0.00000000000E+00 0.  1.
         13   -1    0    0    0    0 -0.00000000000E+00 -0.00000000000E+00 -0.27500000000E+03  0.27500000000E+03  0.00000000000E+00 0.  1.
    9000005    2    1    2  501    0  0.21585037469E+02  0.27485786306E+02 -0.41050412044E+02  0.47449499049E+03  0.47142229199E+03 0.  0.
         13    1    3    3    0    0  0.56026912938E+02  0.17630773560E+03 -0.18712788755E+03  0.26313547633E+03  0.00000000000E+00 0.  1.
          1    1    3    3  501    0 -0.34441875470E+02 -0.14882194929E+03  0.14607747550E+03  0.21135951416E+03  0.00000000000E+00 0.  1.
         21    1    1    2  502  501 -0.21585037469E+02 -0.27485786306E+02  0.49721963937E+00  0.34951817102E+02  0.00000000000E+00 0. -1.
<scales pt_clust_4="550.00000" pt_clust_5="550.00000" pt_clust_6="34.94828"></scales>
<mgrwt>
<rscale>  0 0.30000000E+03</rscale>
<asrwt>  1 0.34948280E+02</asrwt>
<pdfrwt beam="1">  1        1 0.85253385E+00 0.30000000E+03</pdfrwt>
<pdfrwt beam="2">0</pdfrwt>
<totfact> 0.38513542E-04</totfact>
</mgrwt>
<clustering>
<clus scale="   34.948">  1  6  2 -1</clus>
<clus scale="  471.422">  4  5 -1 -1</clus>
<clus scale="  300.000">  1  4  2 -1</clus>
</clustering>
</event>
<event>
 6    1  0.9462926E-012  0.3000000E+03  0.7818608E-02  0.1093470E+00
          1   -1    0    0  502    0  0.00000000000E+00  0.00000000000E+00  0.24016894476E+03  0.24016894476E+03  0.00000000000E+00 0.  1.
         13   -1    0    0    0    0 -0.00000000000E+00 -0.00000000000E+00 -0.27500000000E+03  0.27500000000E+03  0.00000000000E+00 0.  1.
    9000005    2    1    2  501    0 -0.44589792524E+02  0.19668715730E+02 -0.39854443332E+02  0.46617565539E+03  0.46190503033E+03 0.  0.
         13    1    3    3    0    0  0.19607816515E+03 -0.80652569567E+01 -0.94525453948E+02  0.21782276434E+03  0.00000000000E+00 0.  1.
          3    1    3    3  501    0 -0.24066795767E+03  0.27733972687E+02  0.54671010616E+02  0.24835289105E+03  0.00000000000E+00 0.  1.
         21    1    1    2  502  501  0.44589792524E+02 -0.19668715730E+02  0.50233880954E+01  0.48993289375E+02  0.00000000000E+00 0.  1.
<scales pt_clust_4="550.00000" pt_clust_5="550.00000" pt_clust_6="48.73508"></scales>
<mgrwt>
<rscale>  0 0.30000000E+03</rscale>
<asrwt>  1 0.48735080E+02</asrwt>
<pdfrwt beam="1">  1        1 0.87334162E+00 0.30000000E+03</pdfrwt>
<pdfrwt beam="2">0</pdfrwt>
<totfact> 0.22042564E-04</totfact>
</mgrwt>
<clustering>
<clus scale="   48.735">  1  6  2 -1</clus>
<clus scale="  461.905">  4  5 -1 -1</clus>
<clus scale="  300.000">  1  4  2 -1</clus>
</clustering>
</event>
<event>
 6    1  0.9462926E-012  0.3000000E+03  0.7818608E-02  0.1093470E+00
          1   -1    0    0  502    0  0.00000000000E+00  0.00000000000E+00  0.22400035925E+03  0.22400035925E+03  0.00000000000E+00 0.  1.
         13   -1    0    0    0    0 -0.00000000000E+00 -0.00000000000E+00 -0.27500000000E+03  0.27500000000E+03  0.00000000000E+00 0.  1.
    9000005    2    1    2  501    0  0.93008059585E+01  0.33580192972E+02 -0.63310267614E+02  0.46204517172E+03  0.45635886797E+03 0.  0.
         13    1    3    3    0    0 -0.14013398077E+01  0.80792854755E+02  0.18878096612E+03  0.20534775942E+03  0.00000000000E+00 0.  1.
          1    1    3    3  501    0  0.10702145766E+02 -0.47212661783E+02 -0.25209123373E+03  0.25669741230E+03  0.00000000000E+00 0.  1.
         21    1    1    2  502  501 -0.93008059585E+01 -0.33580192972E+02  0.12310626868E+02  0.36955187530E+02  0.00000000000E+00 0. -1.
<scales pt_clust_4="550.00000" pt_clust_5="550.00000" pt_clust_6="34.84443"></scales>
<mgrwt>
<rscale>  0 0.30000000E+03</rscale>
<asrwt>  1 0.34844431E+02</asrwt>
<pdfrwt beam="1">  1        1 0.81454676E+00 0.30000000E+03</pdfrwt>
<pdfrwt beam="2">0</pdfrwt>
<totfact> 0.80344262E-04</totfact>
</mgrwt>
<clustering>
<clus scale="   34.844">  1  6  2 -1</clus>
<clus scale="  456.359">  4  5 -1 -1</clus>
<clus scale="  300.000">  1  4  2 -1</clus>
</clustering>
</event>
<event>
 6    1  0.9462926E-012  0.3000000E+03  0.7818608E-02  0.1093470E+00
          1   -1    0    0  502    0  0.00000000000E+00  0.00000000000E+00  0.24081122937E+03  0.24081122937E+03  0.00000000000E+00 0.  1.
         13   -1    0    0    0    0 -0.00000000000E+00 -0.00000000000E+00 -0.27500000000E+03  0.27500000000E+03  0.00000000000E+00 0.  1.
    9000005    2    1    2  501    0  0.18292263357E+02  0.26244037586E+02 -0.67391612810E+02  0.46970499187E+03  0.46374324092E+03 0.  0.
         13    1    3    3    0    0  0.11838913692E+03 -0.11015478072E+03 -0.19823501992E+03  0.25582647748E+03  0.00000000000E+00 0.  1.
          1    1    3    3  501    0 -0.10009687357E+03  0.13639881831E+03  0.13084340711E+03  0.21387851439E+03  0.00000000000E+00 0.  1.
         21    1    1    2  502  501 -0.18292263357E+02 -0.26244037586E+02  0.33202842177E+02  0.46106237497E+02  0.00000000000E+00 0.  1.
<scales pt_clust_4="550.00000" pt_clust_5="550.00000" pt_clust_6="31.98994"></scales>
<mgrwt>
<rscale>  0 0.30000000E+03</rscale>
<asrwt>  1 0.31989942E+02</asrwt>
<pdfrwt beam="1">  1        1 0.87567720E+00 0.30000000E+03</pdfrwt>
<pdfrwt beam="2">0</pdfrwt>
<totfact> 0.22500563E-04</totfact>
</mgrwt>
<clustering>
<clus scale="   31.990">  1  6  2 -1</clus>
<clus scale="  463.743">  4  5 -1 -1</clus>
<clus scale="  300.000">  1  4  2 -1</clus>
</clustering>
</event>
<event>
 6    1  0.9462926E-012  0.3000000E+03  0.7818608E-02  0.1093470E+00
          1   -1    0    0  502    0  0.00000000000E+00  0.00000000000E+00  0.23338229348E+03  0.23338229348E+03  0.00000000000E+00 0.  1.
         13   -1    0    0    0    0 -0.00000000000E+00 -0.00000000000E+00 -0.27500000000E+03  0.27500000000E+03  0.00000000000E+00 0.  1.
    9000005    2    1    2  501    0 -0.28766541994E+02 -0.27286204408E+02 -0.39558399233E+02  0.46867975407E+03  0.46532117300E+03 0.  0.
         13    1    3    3    0    0  0.67799917947E+02 -0.27085509910E+01 -0.23753724681E+03  0.24703867864E+03  0.00000000000E+00 0.  1.
          3    1    3    3  501    0 -0.96566459942E+02 -0.24577653417E+02  0.19797884757E+03  0.22164107544E+03  0.00000000000E+00 0.  1.
         21    1    1    2  502  501  0.28766541994E+02  0.27286204408E+02 -0.20593072818E+01  0.39702539412E+02  0.00000000000E+00 0. -1.
<scales pt_clust_4="550.00000" pt_clust_5="550.00000" pt_clust_6="39.64910"></scales>
<mgrwt>
<rscale>  0 0.30000000E+03</rscale>
<asrwt>  1 0.39649097E+02</asrwt>
<pdfrwt beam="1">  1        1 0.84866289E+00 0.30000000E+03</pdfrwt>
<pdfrwt beam="2">0</pdfrwt>
<totfact> 0.40927132E-04</totfact>
</mgrwt>
<clustering>
<clus scale="   39.649">  1  6  2 -1</clus>
<clus scale="  465.321">  4  5 -1 -1</clus>
<clus scale="  300.000">  1  4  2 -1</clus>
</clustering>
</event>
<event>
 6    1  0.9462926E-012  0.3000000E+03  0.7818608E-02  0.1093470E+00
          1   -1    0    0  502    0  0.00000000000E+00  0.00000000000E+00  0.23281307550E+03  0.23281307550E+03  0.00000000000E+00 0.  1.
         13   -1    0    0    0    0 -0.00000000000E+00 -0.00000000000E+00 -0.27500000000E+03  0.27500000000E+03  0.00000000000E+00 0.  1.
    9000005    2    1    2  501    0 -0.32775971408E+02 -0.87048793079E+01 -0.28124951112E+02  0.47110097503E+03  0.46903632756E+03 0.  0.
         13    1    3    3    0    0  0.14816786372E+03 -0.96615846531E+02  0.12642359500E+03  0.21741955526E+03  0.00000000000E+00 0.  1.
          1    1    3    3  501    0 -0.18094383513E+03  0.87910967223E+02 -0.15454854611E+03  0.25368141976E+03  0.00000000000E+00 0.  1.
         21    1    1    2  502  501  0.32775971408E+02  0.87048793079E+01 -0.14061973388E+02  0.36712100472E+02  0.00000000000E+00 0.  1.
<scales pt_clust_4="550.00000" pt_clust_5="550.00000" pt_clust_6="33.91225"></scales>
<mgrwt>
<rscale>  0 0.30000000E+03</rscale>
<asrwt>  1 0.33912245E+02</asrwt>
<pdfrwt beam="1">  1        1 0.84659300E+00 0.30000000E+03</pdfrwt>
<pdfrwt beam="2">0</pdfrwt>
<totfact> 0.43998554E-04</totfact>
</mgrwt>
<clustering>
<clus scale="   33.912">  1  6  2 -1</clus>
<clus scale="  469.036">  4  5 -1 -1</clus>
<clus scale="  300.000">  1  4  2 -1</clus>
</clustering>
</event>
<event>
 6    1  0.9462926E-012  0.3000000E+03  0.7818608E-02  0.1093470E+00
          1   -1    0    0  502    0  0.00000000000E+00  0.00000000000E+00  0.23073207890E+03  0.23073207890E+03  0.00000000000E+00 0.  1.
         13   -1    0    0    0    0 -0.00000000000E+00 -0.00000000000E+00 -0.27500000000E+03  0.27500000000E+03  0.00000000000E+00 0.  1.
    9000005    2    1    2  501    0 -0.21477846218E+02 -0.22829657059E+02 -0.72937552383E+02  0.46325339157E+03  0.45640040221E+03 0.  0.
         13    1    3    3    0    0  0.18899336512E+03  0.15475148603E+01  0.76586818937E+02  0.20392750599E+03  0.00000000000E+00 0.  1.
          1    1    3    3  501    0 -0.21047121134E+03 -0.24377171919E+02 -0.14952437132E+03  0.25932588558E+03  0.00000000000E+00 0.  1.
         21    1    1    2  502  501  0.21477846218E+02  0.22829657059E+02  0.28669631286E+02  0.42478687335E+02  0.00000000000E+00 0.  1.
<scales pt_clust_4="550.00000" pt_clust_5="550.00000" pt_clust_6="31.34471"></scales>
<mgrwt>
<rscale>  0 0.30000000E+03</rscale>
<asrwt>  1 0.31344714E+02</asrwt>
<pdfrwt beam="1">  1        1 0.83902574E+00 0.30000000E+03</pdfrwt>
<pdfrwt beam="2">0</pdfrwt>
<totfact> 0.51620243E-04</totfact>
</mgrwt>
<clustering>
<clus scale="   31.345">  1  6  2 -1</clus>
<clus scale="  456.400">  4  5 -1 -1</clus>
<clus scale="  300.000">  1  4  2 -1</clus>
</clustering>
</event>
<event>
 6    1  0.9462926E-012  0.3000000E+03  0.7818608E-02  0.1093470E+00
          1   -1    0    0  502    0  0.00000000000E+00  0.00000000000E+00  0.24437649146E+03  0.24437649146E+03  0.00000000000E+00 0.  1.
         13   -1    0    0    0    0 -0.00000000000E+00 -0.00000000000E+00 -0.27500000000E+03  0.27500000000E+03  0.00000000000E+00 0.  1.
    9000005    2    1    2  501    0  0.24295721750E+00 -0.39408162026E+02 -0.53500834742E+02  0.47380858261E+03  0.46912596536E+03 0.  0.
         13    1    3    3    0    0  0.48949558820E+02  0.68474567156E+02 -0.23920839436E+03  0.25358525507E+03  0.00000000000E+00 0.  1.
          1    1    3    3  501    0 -0.48706601602E+02 -0.10788272918E+03  0.18570755962E+03  0.22022332754E+03  0.00000000000E+00 0.  1.
         21    1    1    2  502  501 -0.24295721750E+00  0.39408162026E+02  0.22877326200E+02  0.45567908846E+02  0.00000000000E+00 0.  1.
<scales pt_clust_4="550.00000" pt_clust_5="550.00000" pt_clust_6="39.40891"></scales>
<mgrwt>
<rscale>  0 0.30000000E+03</rscale>
<asrwt>  1 0.39408911E+02</asrwt>
<pdfrwt beam="1">  1        1 0.88864179E+00 0.30000000E+03</pdfrwt>
<pdfrwt beam="2">0</pdfrwt>
<totfact> 0.14792030E-04</totfact>
</mgrwt>
<clustering>
<clus scale="   39.409">  1  6  2 -1</clus>
<clus scale="  469.126">  4  5 -1 -1</clus>
<clus scale="  300.000">  1  4  2 -1</clus>
</clustering>
</event>
<event>
 6    1  0.9462926E-012  0.3000000E+03  0.7818608E-02  0.1093470E+00
          1   -1    0    0  502    0  0.00000000000E+00  0.00000000000E+00  0.24435416278E+03  0.24435416278E+03  0.00000000000E+00 0.  1.
         13   -1    0    0    0    0 -0.00000000000E+00 -0.00000000000E+00 -0.27500000000E+03  0.27500000000E+03  0.00000000000E+00 0.  1.
    9000005    2    1    2  501    0 -0.58504211207E+01  0.32799338838E+02 -0.38178829640E+02  0.48519614717E+03  0.48254290394E+03 0.  0.
         13    1    3    3    0    0 -0.12155055348E+03  0.11223196593E+03  0.16800021300E+03  0.23578511996E+03  0.00000000000E+00 0.  1.
          1    1    3    3  501    0  0.11570013236E+03 -0.79432627094E+02 -0.20617904264E+03  0.24941102721E+03  0.00000000000E+00 0.  1.
         21    1    1    2  502  501  0.58504211207E+01 -0.32799338838E+02  0.75329924216E+01  0.34158015608E+02  0.00000000000E+00 0. -1.
<scales pt_clust_4="550.00000" pt_clust_5="550.00000" pt_clust_6="33.31702"></scales>
<mgrwt>
<rscale>  0 0.30000000E+03</rscale>
<asrwt>  1 0.33317024E+02</asrwt>
<pdfrwt beam="1">  1        1 0.88856059E+00 0.30000000E+03</pdfrwt>
<pdfrwt beam="2">0</pdfrwt>
<totfact> 0.15299976E-04</totfact>
</mgrwt>
<clustering>
<clus scale="   33.317">  1  6  2 -1</clus>
<clus scale="  482.543">  4  5 -1 -1</clus>
<clus scale="  300.000">  1  4  2 -1</clus>
</clustering>
</event>
<event>
 6    1  0.9462926E-012  0.3000000E+03  0.7818608E-02  0.1093470E+00
          1   -1    0    0  502    0  0.00000000000E+00  0.00000000000E+00  0.22399681427E+03  0.22399681427E+03  0.00000000000E+00 0.  1.
         13   -1    0    0    0    0 -0.00000000000E+00 -0.00000000000E+00 -0.27500000000E+03  0.27500000000E+03  0.00000000000E+00 0.  1.
    9000005    2    1    2  501    0  0.30505366424E+01 -0.31556841276E+02 -0.44814325174E+02  0.46669446142E+03  0.46345469743E+03 0.  0.
         13    1    3    3    0    0 -0.17353584908E+03 -0.55216965753E+02  0.12474831850E+03  0.22073909303E+03  0.00000000000E+00 0.  1.
          3    1    3    3  501    0  0.17658638572E+03  0.23660124477E+02 -0.16956264367E+03  0.24595536839E+03  0.00000000000E+00 0.  1.
         21    1    1    2  502  501 -0.30505366424E+01  0.31556841276E+02 -0.61888605510E+01  0.32302352856E+02  0.00000000000E+00 0. -1.
<scales pt_clust_4="550.00000" pt_clust_5="550.00000" pt_clust_6="31.70396"></scales>
<mgrwt>
<rscale>  0 0.30000000E+03</rscale>
<asrwt>  1 0.31703959E+02</asrwt>
<pdfrwt beam="1">  1        1 0.81453387E+00 0.30000000E+03</pdfrwt>
<pdfrwt beam="2">0</pdfrwt>
<totfact> 0.81809594E-04</totfact>
</mgrwt>
<clustering>
<clus scale="   31.704">  1  6  2 -1</clus>
<clus scale="  463.455">  4  5 -1 -1</clus>
<clus scale="  300.000">  1  4  2 -1</clus>
</clustering>
</event>
<event>
 6    1  0.9462926E-012  0.3000000E+03  0.7818608E-02  0.1093470E+00
          1   -1    0    0  502    0  0.00000000000E+00  0.00000000000E+00  0.24625002245E+03  0.24625002245E+03  0.00000000000E+00 0.  1.
         13   -1    0    0    0    0 -0.00000000000E+00 -0.00000000000E+00 -0.27500000000E+03  0.27500000000E+03  0.00000000000E+00 0.  1.
    9000005    2    1    2  501    0  0.29473563649E+02  0.67454814530E+01 -0.63887579308E+02  0.47489440217E+03  0.46960502334E+03 0.  0.
         13    1    3    3    0    0 -0.10354518855E+03 -0.18383192034E+03 -0.11002236360E+03  0.23795104854E+03  0.00000000000E+00 0.  1.
          3    1    3    3  501    0  0.13301875220E+03  0.19057740179E+03  0.46134784291E+02  0.23694335364E+03  0.00000000000E+00 0.  1.
         21    1    1    2  502  501 -0.29473563649E+02 -0.67454814530E+01  0.35137601757E+02  0.46355620279E+02  0.00000000000E+00 0.  1.
<scales pt_clust_4="550.00000" pt_clust_5="550.00000" pt_clust_6="30.23562"></scales>
<mgrwt>
<rscale>  0 0.30000000E+03</rscale>
<asrwt>  1 0.30235616E+02</asrwt>
<pdfrwt beam="1">  1        1 0.89545463E+00 0.30000000E+03</pdfrwt>
<pdfrwt beam="2">0</pdfrwt>
<totfact> 0.12813064E-04</totfact>
</mgrwt>
<clustering>
<clus scale="   30.236">  1  6  2 -1</clus>
<clus scale="  469.605">  4  5 -1 -1</clus>
<clus scale="  300.000">  1  4  2 -1</clus>
</clustering>
</event>
<event>
 6    1  0.9462926E-012  0.3000000E+03  0.7818608E-02  0.1093470E+00
          1   -1    0    0  502    0  0.00000000000E+00  0.00000000000E+00  0.24790992268E+03  0.24790992268E+03  0.00000000000E+00 0.  1.
         13   -1    0    0    0    0 -0.00000000000E+00 -0.00000000000E+00 -0.27500000000E+03  0.27500000000E+03  0.00000000000E+00 0.  1.
    9000005    2    1    2  501    0  0.23669967830E+02  0.34783196654E+02 -0.52828966292E+02  0.47358823828E+03  0.46874810038E+03 0.  0.
         13    1    3    3    0    0  0.10533787465E+01  0.25043703589E+03 -0.56445768030E+02  0.25672152867E+03  0.00000000000E+00 0.  1.
          3    1    3    3  501    0  0.22616589084E+02 -0.21565383924E+03  0.36168017378E+01  0.21686670961E+03  0.00000000000E+00 0.  1.
         21    1    1    2  502  501 -0.23669967830E+02 -0.34783196654E+02  0.25738888967E+02  0.49321684398E+02  0.00000000000E+00 0.  1.
<scales pt_clust_4="550.00000" pt_clust_5="550.00000" pt_clust_6="42.07301"></scales>
<mgrwt>
<rscale>  0 0.30000000E+03</rscale>
<asrwt>  1 0.42073010E+02</asrwt>
<pdfrwt beam="1">  1        1 0.90149063E+00 0.30000000E+03</pdfrwt>
<pdfrwt beam="2">0</pdfrwt>
<totfact> 0.10203403E-04</totfact>
</mgrwt>
<clustering>
<clus scale="   42.073">  1  6  2 -1</clus>
<clus scale="  468.748">  4  5 -1 -1</clus>
<clus scale="  300.000">  1  4  2 -1</clus>
</clustering>
</event>
<event>
 6    1  0.9462926E-012  0.3000000E+03  0.7818608E-02  0.1093470E+00
          1   -1    0    0  502    0  0.00000000000E+00  0.00000000000E+00  0.24246545702E+03  0.24246545702E+03  0.00000000000E+00 0.  1.
         13   -1    0    0    0    0 -0.00000000000E+00 -0.00000000000E+00 -0.27500000000E+03  0.27500000000E+03  0.00000000000E+00 0.  1.
    9000005    2    1    2  501    0  0.29498377573E+02  0.91970746150E+01 -0.43121389375E+02  0.48480321923E+03  0.48189206955E+03 0.  0.
         13    1    3    3    0    0  0.93234224048E+02 -0.14361511883E+03 -0.19543299024E+03  0.25983066902E+03  0.00000000000E+00 0.  1.
          3    1    3    3  501    0 -0.63735846475E+02  0.15281219344E+03  0.15231160087E+03  0.22497255021E+03  0.00000000000E+00 0.  1.
         21    1    1    2  502  501 -0.29498377573E+02 -0.91970746150E+01  0.10586846396E+02  0.32662237791E+02  0.00000000000E+00 0. -1.
<scales pt_clust_4="550.00000" pt_clust_5="550.00000" pt_clust_6="30.89887"></scales>
<mgrwt>
<rscale>  0 0.30000000E+03</rscale>
<asrwt>  1 0.30898875E+02</asrwt>
<pdfrwt beam="1">  1        1 0.88169257E+00 0.30000000E+03</pdfrwt>
<pdfrwt beam="2">0</pdfrwt>
<totfact> 0.19237643E-04</totfact>
</mgrwt>
<clustering>
<clus scale="   30.899">  1  6  2 -1</clus>
<clus scale="  481.892">  4  5 -1 -1</clus>
<clus scale="  300.000">  1  4  2 -1</clus>
</clustering>
</event>
<event>
 6    1  0.9462926E-012  0.3000000E+03  0.7818608E-02  0.1093470E+00
          1   -1    0    0  502    0  0.00000000000E+00  0.00000000000E+00  0.23294218049E+03  0.23294218049E+03  0.00000000000E+00 0.  1.
         13   -1    0    0    0    0 -0.00000000000E+00 -0.00000000000E+00 -0.27500000000E+03  0.27500000000E+03  0.00000000000E+00 0.  1.
    9000005    2    1    2  501    0  0.35732449896E+02 -0.37526826640E+01 -0.46714455342E+02  0.47171270547E+03  0.46801682188E+03 0.  0.
         13    1    3    3    0    0  0.24260154776E+03 -0.42875469630E+02  0.28810627999E+02  0.24804005555E+03  0.00000000000E+00 0.  1.
          1    1    3    3  501    0 -0.20686909786E+03  0.39122786966E+02 -0.75525083341E+02  0.22367264992E+03  0.00000000000E+00 0.  1.
         21    1    1    2  502  501 -0.35732449896E+02  0.37526826640E+01  0.46566358291E+01  0.36229475017E+02  0.00000000000E+00 0.  1.
<scales pt_clust_4="550.00000" pt_clust_5="550.00000" pt_clust_6="35.92897"></scales>
<mgrwt>
<rscale>  0 0.30000000E+03</rscale>
<asrwt>  1 0.35928966E+02</asrwt>
<pdfrwt beam="1">  1        1 0.84706247E+00 0.30000000E+03</pdfrwt>
<pdfrwt beam="2">0</pdfrwt>
<totfact> 0.43104216E-04</totfact>
</mgrwt>
<clustering>
<clus scale="   35.929">  1  6  2 -1</clus>
<clus scale="  468.017">  4  5 -1 -1</clus>
<clus scale="  300.000">  1  4  2 -1</clus>
</clustering>
</event>
<event>
 6    1  0.9462926E-012  0.3000000E+03  0.7818608E-02  0.1093470E+00
          1   -1    0    0  502    0  0.00000000000E+00  0.00000000000E+00  0.25817616736E+03  0.25817616736E+03  0.00000000000E+00 0.  1.
         13   -1    0    0    0    0 -0.00000000000E+00 -0.00000000000E+00 -0.27500000000E+03  0.27500000000E+03  0.00000000000E+00 0.  1.
    9000005    2    1    2  501    0  0.27090032943E+02  0.64483387004E+02 -0.62858777317E+00  0.46138297102E+03  0.45605029738E+03 0.  0.
         13    1    3    3    0    0  0.11802790945E+03  0.22902462217E+03  0.58688575710E+02  0.26424839430E+03  0.00000000000E+00 0.  1.
          1    1    3    3  501    0 -0.90937876509E+02 -0.16454123517E+03 -0.59317163484E+02  0.19713457672E+03  0.00000000000E+00 0.  1.
         21    1    1    2  502  501 -0.27090032943E+02 -0.64483387004E+02 -0.16195244868E+02  0.71793196340E+02  0.00000000000E+00 0. -1.
<scales pt_clust_4="550.00000" pt_clust_5="550.00000" pt_clust_6="69.94270"></scales>
<mgrwt>
<rscale>  0 0.30000000E+03</rscale>
<asrwt>  1 0.69942705E+02</asrwt>
<pdfrwt beam="1">  1        1 0.93882243E+00 0.30000000E+03</pdfrwt>
<pdfrwt beam="2">0</pdfrwt>
<totfact> 0.17735268E-05</totfact>
</mgrwt>
<clustering>
<clus scale="   69.943">  1  6  2 -1</clus>
<clus scale="  456.050">  4  5 -1 -1</clus>
<clus scale="  300.000">  1  4  2 -1</clus>
</clustering>
</event>
<event>
 6    1  0.9462926E-012  0.3000000E+03  0.7818608E-02  0.1093470E+00
          1   -1    0    0  502    0  0.00000000000E+00  0.00000000000E+00  0.23725458236E+03  0.23725458236E+03  0.00000000000E+00 0.  1.
         13   -1    0    0    0    0 -0.00000000000E+00 -0.00000000000E+00 -0.27500000000E+03  0.27500000000E+03  0.00000000000E+00 0.  1.
    9000005    2    1    2  501    0 -0.27843142312E+02 -0.33033247801E+02 -0.47833338857E+02  0.46789015755E+03  0.46342932060E+03 0.  0.
         13    1    3    3    0    0 -0.23898127675E+03  0.20348597683E+02  0.17599782763E+02  0.24049089051E+03  0.00000000000E+00 0.  1.
          1    1    3    3  501    0  0.21113813444E+03 -0.53381845484E+02 -0.65433121620E+02  0.22739926703E+03  0.00000000000E+00 0.  1.
         21    1    1    2  502  501  0.27843142312E+02  0.33033247801E+02  0.10087921212E+02  0.44364424807E+02  0.00000000000E+00 0. -1.
<scales pt_clust_4="550.00000" pt_clust_5="550.00000" pt_clust_6="43.20227"></scales>
<mgrwt>
<rscale>  0 0.30000000E+03</rscale>
<asrwt>  1 0.43202269E+02</asrwt>
<pdfrwt beam="1">  1        1 0.86274394E+00 0.30000000E+03</pdfrwt>
<pdfrwt beam="2">0</pdfrwt>
<totfact> 0.29074861E-04</totfact>
</mgrwt>
<clustering>
<clus scale="   43.202">  1  6  2 -1</clus>
<clus scale="  463.429">  4  5 -1 -1</clus>
<clus scale="  300.000">  1  4  2 -1</clus>
</clustering>
</event>
<event>
 6    1  0.9462926E-012  0.3000000E+03  0.7818608E-02  0.1093470E+00
          1   -1    0    0  502    0  0.00000000000E+00  0.00000000000E+00  0.22861378376E+03  0.22861378376E+03  0.00000000000E+00 0.  1.
         13   -1    0    0    0    0 -0.00000000000E+00 -0.00000000000E+00 -0.27500000000E+03  0.27500000000E+03  0.00000000000E+00 0.  1.
    9000005    2    1    2  501    0 -0.13091391507E+01 -0.36293211963E+02 -0.25278811843E+02  0.46160862216E+03  0.45948296013E+03 0.  0.
         13    1    3    3    0    0  0.19517086344E+02 -0.24372158079E+03 -0.56143568409E+02  0.25086495545E+03  0.00000000000E+00 0.  1.
          1    1    3    3  501    0 -0.20826225495E+02  0.20742836882E+03  0.30864756566E+02  0.21074366671E+03  0.00000000000E+00 0.  1.
         21    1    1    2  502  501  0.13091391507E+01  0.36293211963E+02 -0.21107404400E+02  0.42005161592E+02  0.00000000000E+00 0.  1.
<scales pt_clust_4="550.00000" pt_clust_5="550.00000" pt_clust_6="36.31683"></scales>
<mgrwt>
<rscale>  0 0.30000000E+03</rscale>
<asrwt>  1 0.36316834E+02</asrwt>
<pdfrwt beam="1">  1        1 0.83132285E+00 0.30000000E+03</pdfrwt>
<pdfrwt beam="2">0</pdfrwt>
<totfact> 0.57271079E-04</totfact>
</mgrwt>
<clustering>
<clus scale="   36.317">  1  6  2 -1</clus>
<clus scale="  459.483">  4  5 -1 -1</clus>
<clus scale="  300.000">  1  4  2 -1</clus>
</clustering>
</event>
<event>
 6    1  0.9462926E-012  0.3000000E+03  0.7818608E-02  0.1093470E+00
          1   -1    0    0  502    0  0.00000000000E+00  0.00000000000E+00  0.23390690332E+03  0.23390690332E+03  0.00000000000E+00 0.  1.
         13   -1    0    0    0    0 -0.00000000000E+00 -0.00000000000E+00 -0.27500000000E+03  0.27500000000E+03  0.00000000000E+00 0.  1.
    9000005    2    1    2  501    0  0.32895175510E+02  0.18014166508E+02 -0.57486347489E+02  0.46797596833E+03  0.46291492093E+03 0.  0.
         13    1    3    3    0    0 -0.62619476605E+02 -0.10383933297E+03  0.16015535351E+03  0.20088191352E+03  0.00000000000E+00 0.  1.
          3    1    3    3  501    0  0.95514652116E+02  0.12185349948E+03 -0.21764170100E+03  0.26709405481E+03  0.00000000000E+00 0.  1.
         21    1    1    2  502  501 -0.32895175510E+02 -0.18014166508E+02  0.16393250807E+02  0.40930934986E+02  0.00000000000E+00 0.  1.
<scales pt_clust_4="550.00000" pt_clust_5="550.00000" pt_clust_6="37.50470"></scales>
<mgrwt>
<rscale>  0 0.30000000E+03</rscale>
<asrwt>  1 0.37504703E+02</asrwt>
<pdfrwt beam="1">  1        1 0.85057056E+00 0.30000000E+03</pdfrwt>
<pdfrwt beam="2">0</pdfrwt>
<totfact> 0.39685324E-04</totfact>
</mgrwt>
<clustering>
<clus scale="   37.505">  1  6  2 -1</clus>
<clus scale="  462.915">  4  5 -1 -1</clus>
<clus scale="  300.000">  1  4  2 -1</clus>
</clustering>
</event>
<event>
 6    1  0.9462926E-012  0.3000000E+03  0.7818608E-02  0.1093470E+00
          1   -1    0    0  502    0  0.00000000000E+00  0.00000000000E+00  0.24924543344E+03  0.24924543344E+03  0.00000000000E+00 0.  1.
         13   -1    0    0    0    0 -0.00000000000E+00 -0.00000000000E+00 -0.27500000000E+03  0.27500000000E+03  0.00000000000E+00 0.  1.
    9000005    2    1    2  501    0 -0.75238462189E+01 -0.53670195202E+02 -0.12522723696E+02  0.46845851938E+03  0.46514456641E+03 0.  0.
         13    1    3    3    0    0  0.16050899090E+02 -0.70320188930E+02 -0.23412543424E+03  0.24498424295E+03  0.00000000000E+00 0.  1.
          1    1    3    3  501    0 -0.23574745309E+02  0.16649993728E+02  0.22160271055E+03  0.22347427644E+03  0.00000000000E+00 0.  1.
         21    1    1    2  502  501  0.75238462189E+01  0.53670195202E+02 -0.13231842861E+02  0.55786914061E+02  0.00000000000E+00 0. -1.
<scales pt_clust_4="550.00000" pt_clust_5="550.00000" pt_clust_6="54.19503"></scales>
<mgrwt>
<rscale>  0 0.30000000E+03</rscale>
<asrwt>  1 0.54195028E+02</asrwt>
<pdfrwt beam="1">  1        1 0.90634703E+00 0.30000000E+03</pdfrwt>
<pdfrwt beam="2">0</pdfrwt>
<totfact> 0.80382379E-05</totfact>
</mgrwt>
<clustering>
<clus scale="   54.195">  1  6  2 -1</clus>
<clus scale="  465.145">  4  5 -1 -1</clus>
<clus scale="  300.000">  1  4  2 -1</clus>
</clustering>
</event>
<event>
 6    1  0.9462926E-012  0.3000000E+03  0.7818608E-02  0.1093470E+00
          1   -1    0    0  502    0  0.00000000000E+00  0.00000000000E+00  0.24317218926E+03  0.24317218926E+03  0.00000000000E+00 0.  1.
         13   -1    0    0    0    0 -0.00000000000E+00 -0.00000000000E+00 -0.27500000000E+03  0.27500000000E+03  0.00000000000E+00 0.  1.
    9000005    2    1    2  501    0  0.22305885860E+02 -0.27439416065E+02 -0.32640883003E+02  0.48280079991E+03  0.48039641033E+03 0.  0.
         13    1    3    3    0    0  0.16179136978E+03  0.12533961622E+03  0.10919713741E+03  0.23197086357E+03  0.00000000000E+00 0.  1.
          3    1    3    3  501    0 -0.13948548392E+03 -0.15277903228E+03 -0.14183802041E+03  0.25082993634E+03  0.00000000000E+00 0.  1.
         21    1    1    2  502  501 -0.22305885860E+02  0.27439416065E+02  0.81307226442E+00  0.35371389349E+02  0.00000000000E+00 0.  1.
<scales pt_clust_4="550.00000" pt_clust_5="550.00000" pt_clust_6="35.36204"></scales>
<mgrwt>
<rscale>  0 0.30000000E+03</rscale>
<asrwt>  1 0.35362043E+02</asrwt>
<pdfrwt beam="1">  1        1 0.88426251E+00 0.30000000E+03</pdfrwt>
<pdfrwt beam="2">0</pdfrwt>
<totfact> 0.17335250E-04</totfact>
</mgrwt>
<clustering>
<clus scale="   35.362">  1  6  2 -1</clus>
<clus scale="  480.396">  4  5 -1 -1</clus>
<clus scale="  300.000">  1  4  2 -1</clus>
</clustering>
</event>
<event>
 6    1  0.9462926E-012  0.3000000E+03  0.7818608E-02  0.1093470E+00
          1   -1    0    0  502    0  0.00000000000E+00  0.00000000000E+00  0.22037140266E+03  0.22037140266E+03  0.00000000000E+00 0.  1.
         13   -1    0    0    0    0 -0.00000000000E+00 -0.00000000000E+00 -0.27500000000E+03  0.27500000000E+03  0.00000000000E+00 0.  1.
    9000005    2    1    2  501    0 -0.29982627324E+02  0.65821762643E+01 -0.52645378905E+02  0.46461077619E+03  0.46059673734E+03 0.  0.
         13    1    3    3    0    0 -0.12214982569E+03 -0.59604953112E+02 -0.22226974411E+03  0.26053247302E+03  0.00000000000E+00 0.  1.
          1    1    3    3  501    0  0.92167198366E+02  0.66187129376E+02  0.16962436521E+03  0.20407830316E+03  0.00000000000E+00 0.  1.
         21    1    1    2  502  501  0.29982627324E+02 -0.65821762643E+01 -0.19832184349E+01  0.30760626472E+02  0.00000000000E+00 0. -1.
<scales pt_clust_4="550.00000" pt_clust_5="550.00000" pt_clust_6="30.69663"></scales>
<mgrwt>
<rscale>  0 0.30000000E+03</rscale>
<asrwt>  1 0.30696628E+02</asrwt>
<pdfrwt beam="1">  1        1 0.80135056E+00 0.30000000E+03</pdfrwt>
<pdfrwt beam="2">0</pdfrwt>
<totfact> 0.10394374E-03</totfact>
</mgrwt>
<clustering>
<clus scale="   30.697">  1  6  2 -1</clus>
<clus scale="  460.597">  4  5 -1 -1</clus>
<clus scale="  300.000">  1  4  2 -1</clus>
</clustering>
</event>
<event>
 6    1  0.9462926E-012  0.3000000E+03  0.7818608E-02  0.1093470E+00
          1   -1    0    0  502    0  0.00000000000E+00  0.00000000000E+00  0.23821041229E+03  0.23821041229E+03  0.00000000000E+00 0.  1.
         13   -1    0    0    0    0 -0.00000000000E+00 -0.00000000000E+00 -0.27500000000E+03  0.27500000000E+03  0.00000000000E+00 0.  1.
    9000005    2    1    2  501    0  0.27084086095E+02  0.21122718298E+02 -0.65989083217E+02  0.46812906930E+03  0.46218021320E+03 0.  0.
         13    1    3    3    0    0 -0.93948388376E+02  0.19655988724E+03  0.52744893270E+02  0.22415198575E+03  0.00000000000E+00 0.  1.
          3    1    3    3  501    0  0.12103247447E+03 -0.17543716894E+03 -0.11873397649E+03  0.24397708355E+03  0.00000000000E+00 0.  1.
         21    1    1    2  502  501 -0.27084086095E+02 -0.21122718298E+02  0.29199495503E+02  0.45081342987E+02  0.00000000000E+00 0.  1.
<scales pt_clust_4="550.00000" pt_clust_5="550.00000" pt_clust_6="34.34701"></scales>
<mgrwt>
<rscale>  0 0.30000000E+03</rscale>
<asrwt>  1 0.34347008E+02</asrwt>
<pdfrwt beam="1">  1        1 0.86621968E+00 0.30000000E+03</pdfrwt>
<pdfrwt beam="2">0</pdfrwt>
<totfact> 0.27821815E-04</totfact>
</mgrwt>
<clustering>
<clus scale="   34.347">  1  6  2 -1</clus>
<clus scale="  462.180">  4  5 -1 -1</clus>
<clus scale="  300.000">  1  4  2 -1</clus>
</clustering>
</event>
<event>
 6    1  0.9462926E-012  0.3000000E+03  0.7818608E-02  0.1093470E+00
          1   -1    0    0  502    0  0.00000000000E+00  0.00000000000E+00  0.23903735948E+03  0.23903735948E+03  0.00000000000E+00 0.  1.
         13   -1    0    0    0    0 -0.00000000000E+00 -0.00000000000E+00 -0.27500000000E+03  0.27500000000E+03  0.00000000000E+00 0.  1.
    9000005    2    1    2  501    0 -0.89349518561E+01 -0.31849080713E+02 -0.58159810774E+02  0.47420129951E+03  0.46945725211E+03 0.  0.
         13    1    3    3    0    0  0.12307623001E+03 -0.19254743384E+03  0.58304688630E+02  0.23584255212E+03  0.00000000000E+00 0.  1.
          1    1    3    3  501    0 -0.13201118186E+03  0.16069835313E+03 -0.11646449940E+03  0.23835874739E+03  0.00000000000E+00 0.  1.
         21    1    1    2  502  501  0.89349518561E+01  0.31849080713E+02  0.22197170256E+02  0.39836059975E+02  0.00000000000E+00 0.  1.
<scales pt_clust_4="550.00000" pt_clust_5="550.00000" pt_clust_6="33.07865"></scales>
<mgrwt>
<rscale>  0 0.30000000E+03</rscale>
<asrwt>  1 0.33078653E+02</asrwt>
<pdfrwt beam="1">  1        1 0.86922676E+00 0.30000000E+03</pdfrwt>
<pdfrwt beam="2">0</pdfrwt>
<totfact> 0.26066662E-04</totfact>
</mgrwt>
<clustering>
<clus scale="   33.079">  1  6  2 -1</clus>
<clus scale="  469.457">  4  5 -1 -1</clus>
<clus scale="  300.000">  1  4  2 -1</clus>
</clustering>
</event>
<event>
 6    1  0.9462926E-012  0.3000000E+03  0.7818608E-02  0.1093470E+00
          1   -1    0    0  502    0  0.00000000000E+00  0.00000000000E+00  0.23441608442E+03  0.23441608442E+03  0.00000000000E+00 0.  1.
         13   -1    0    0    0    0 -0.00000000000E+00 -0.00000000000E+00 -0.27500000000E+03  0.27500000000E+03  0.00000000000E+00 0.  1.
    9000005    2    1    2  501    0 -0.14720589968E+02 -0.33205401906E+02 -0.67752095608E+02  0.46405746351E+03  0.45764581119E+03 0.  0.
         13    1    3    3    0    0 -0.14995317797E+03  0.10042042730E+03  0.10362001165E+03  0.20810411965E+03  0.00000000000E+00 0.  1.
          1    1    3    3  501    0  0.13523258800E+03 -0.13362582921E+03 -0.17137210726E+03  0.25595334386E+03  0.00000000000E+00 0.  1.
         21    1    1    2  502  501  0.14720589968E+02  0.33205401906E+02  0.27168180027E+02  0.45358620909E+02  0.00000000000E+00 0.  1.
<scales pt_clust_4="550.00000" pt_clust_5="550.00000" pt_clust_6="36.32209"></scales>
<mgrwt>
<rscale>  0 0.30000000E+03</rscale>
<asrwt>  1 0.36322094E+02</asrwt>
<pdfrwt beam="1">  1        1 0.85242213E+00 0.30000000E+03</pdfrwt>
<pdfrwt beam="2">0</pdfrwt>
<totfact> 0.38332337E-04</totfact>
</mgrwt>
<clustering>
<clus scale="   36.322">  1  6  2 -1</clus>
<clus scale="  457.646">  4  5 -1 -1</clus>
<clus scale="  300.000">  1  4  2 -1</clus>
</clustering>
</event>
<event>
 6    1  0.9462926E-012  0.3000000E+03  0.7818608E-02  0.1093470E+00
          1   -1    0    0  502    0  0.00000000000E+00  0.00000000000E+00  0.22243858382E+03  0.22243858382E+03  0.00000000000E+00 0.  1.
         13   -1    0    0    0    0 -0.00000000000E+00 -0.00000000000E+00 -0.27500000000E+03  0.27500000000E+03  0.00000000000E+00 0.  1.
    9000005    2    1    2  501    0  0.22710279691E+01 -0.36329742776E+02 -0.49423854317E+02  0.46090295638E+03  0.45679734023E+03 0.  0.
         13    1    3    3    0    0  0.19253840575E+02  0.20545691850E+03 -0.69360802873E+02  0.21770203653E+03  0.00000000000E+00 0.  1.
          1    1    3    3  501    0 -0.16982812606E+02 -0.24178666127E+03  0.19936948556E+02  0.24320091984E+03  0.00000000000E+00 0.  1.
         21    1    1    2  502  501 -0.22710279691E+01  0.36329742776E+02 -0.31375618635E+01  0.36535627443E+02  0.00000000000E+00 0.  1.
<scales pt_clust_4="550.00000" pt_clust_5="550.00000" pt_clust_6="36.40066"></scales>
<mgrwt>
<rscale>  0 0.30000000E+03</rscale>
<asrwt>  1 0.36400656E+02</asrwt>
<pdfrwt beam="1">  1        1 0.80886758E+00 0.30000000E+03</pdfrwt>
<pdfrwt beam="2">0</pdfrwt>
<totfact> 0.88351670E-04</totfact>
</mgrwt>
<clustering>
<clus scale="   36.401">  1  6  2 -1</clus>
<clus scale="  456.797">  4  5 -1 -1</clus>
<clus scale="  300.000">  1  4  2 -1</clus>
</clustering>
</event>
<event>
 6    1  0.9462926E-012  0.3000000E+03  0.7818608E-02  0.1093470E+00
          1   -1    0    0  502    0  0.00000000000E+00  0.00000000000E+00  0.23927056870E+03  0.23927056870E+03  0.00000000000E+00 0.  1.
         13   -1    0    0    0    0 -0.00000000000E+00 -0.00000000000E+00 -0.27500000000E+03  0.27500000000E+03  0.00000000000E+00 0.  1.
    9000005    2    1    2  501    0 -0.21791784261E+02  0.23637576867E+02 -0.32904529249E+01  0.46859886827E+03  0.46748310704E+03 0.  0.
         13    1    3    3    0    0  0.13125335041E+03  0.19188998579E+03  0.43162455218E+02  0.23645762026E+03  0.00000000000E+00 0.  1.
          3    1    3    3  501    0 -0.15304513467E+03 -0.16825240892E+03 -0.46452908143E+02  0.23214124801E+03  0.00000000000E+00 0.  1.
         21    1    1    2  502  501  0.21791784261E+02 -0.23637576867E+02 -0.32438978377E+02  0.45671700424E+02  0.00000000000E+00 0. -1.
<scales pt_clust_4="550.00000" pt_clust_5="550.00000" pt_clust_6="32.14993"></scales>
<mgrwt>
<rscale>  0 0.30000000E+03</rscale>
<asrwt>  1 0.32149929E+02</asrwt>
<pdfrwt beam="1">  1        1 0.87007480E+00 0.30000000E+03</pdfrwt>
<pdfrwt beam="2">0</pdfrwt>
<totfact> 0.25688573E-04</totfact>
</mgrwt>
<clustering>
<clus scale="   32.150">  1  6  2 -1</clus>
<clus scale="  467.483">  4  5 -1 -1</clus>
<clus scale="  300.000">  1  4  2 -1</clus>
</clustering>
</event>
<event>
 6    1  0.9462926E-012  0.3000000E+03  0.7818608E-02  0.1093470E+00
          1   -1    0    0  502    0  0.00000000000E+00  0.00000000000E+00  0.23656196116E+03  0.23656196116E+03  0.00000000000E+00 0.  1.
         13   -1    0    0    0    0 -0.00000000000E+00 -0.00000000000E+00 -0.27500000000E+03  0.27500000000E+03  0.00000000000E+00 0.  1.
    9000005    2    1    2  501    0  0.33780352425E+02 -0.20889139263E+02 -0.33797900389E+02  0.47157447269E+03  0.46868189305E+03 0.  0.
         13    1    3    3    0    0  0.92657348467E+02  0.17228159271E+03 -0.14270229925E+03  0.24213689852E+03  0.00000000000E+00 0.  1.
          3    1    3    3  501    0 -0.58876996042E+02 -0.19317073197E+03  0.10890439886E+03  0.22943757418E+03  0.00000000000E+00 0.  1.
         21    1    1    2  502  501 -0.33780352425E+02  0.20889139263E+02 -0.46401384490E+01  0.39987488468E+02  0.00000000000E+00 0. -1.
<scales pt_clust_4="550.00000" pt_clust_5="550.00000" pt_clust_6="39.71738"></scales>
<mgrwt>
<rscale>  0 0.30000000E+03</rscale>
<asrwt>  1 0.39717376E+02</asrwt>
<pdfrwt beam="1">  1        1 0.86022531E+00 0.30000000E+03</pdfrwt>
<pdfrwt beam="2">0</pdfrwt>
<totfact> 0.31424400E-04</totfact>
</mgrwt>
<clustering>
<clus scale="   39.717">  1  6  2 -1</clus>
<clus scale="  468.682">  4  5 -1 -1</clus>
<clus scale="  300.000">  1  4  2 -1</clus>
</clustering>
</event>
<event>
 6    1  0.9462926E-012  0.3000000E+03  0.7818608E-02  0.1093470E+00
          1   -1    0    0  502    0  0.00000000000E+00  0.00000000000E+00  0.23553936585E+03  0.23553936585E+03  0.00000000000E+00 0.  1.
         13   -1    0    0    0    0 -0.00000000000E+00 -0.00000000000E+00 -0.27500000000E+03  0.27500000000E+03  0.00000000000E+00 0.  1.
    9000005    2    1    2  501    0 -0.73087377376E+01  0.35426473289E+02 -0.54726366237E+02  0.47127748570E+03  0.46668944782E+03 0.  0.
         13    1    3    3    0    0  0.20932201647E+02  0.22066272455E+03 -0.14338182892E+03  0.26398587829E+03  0.00000000000E+00 0.  1.
          3    1    3    3  501    0 -0.28240939385E+02 -0.18523625126E+03  0.88655462687E+02  0.20729160741E+03  0.00000000000E+00 0.  1.
         21    1    1    2  502  501  0.73087377376E+01 -0.35426473289E+02  0.15265732092E+02  0.39261880155E+02  0.00000000000E+00 0.  1.
<scales pt_clust_4="550.00000" pt_clust_5="550.00000" pt_clust_6="36.17254"></scales>
<mgrwt>
<rscale>  0 0.30000000E+03</rscale>
<asrwt>  1 0.36172540E+02</asrwt>
<pdfrwt beam="1">  1        1 0.85650678E+00 0.30000000E+03</pdfrwt>
<pdfrwt beam="2">0</pdfrwt>
<totfact> 0.34968569E-04</totfact>
</mgrwt>
<clustering>
<clus scale="   36.173">  1  6  2 -1</clus>
<clus scale="  466.689">  4  5 -1 -1</clus>
<clus scale="  300.000">  1  4  2 -1</clus>
</clustering>
</event>
<event>
 6    1  0.9462926E-012  0.3000000E+03  0.7818608E-02  0.1093470E+00
          1   -1    0    0  502    0  0.00000000000E+00  0.00000000000E+00  0.23558725160E+03  0.23558725160E+03  0.00000000000E+00 0.  1.
         13   -1    0    0    0    0 -0.00000000000E+00 -0.00000000000E+00 -0.27500000000E+03  0.27500000000E+03  0.00000000000E+00 0.  1.
    9000005    2    1    2  501    0  0.13585034842E+01  0.30749687253E+02 -0.39817102820E+02  0.47980491412E+03  0.47715821814E+03 0.  0.
         13    1    3    3    0    0 -0.21816970299E+03  0.92304148707E+02 -0.76370386606E+02  0.24889859606E+03  0.00000000000E+00 0.  1.
          3    1    3    3  501    0  0.21952820648E+03 -0.61554461455E+02  0.36553283786E+02  0.23090631806E+03  0.00000000000E+00 0.  1.
         21    1    1    2  502  501 -0.13585034842E+01 -0.30749687253E+02  0.40435441767E+00  0.30782337474E+02  0.00000000000E+00 0.  1.
<scales pt_clust_4="550.00000" pt_clust_5="550.00000" pt_clust_6="30.77968"></scales>
<mgrwt>
<rscale>  0 0.30000000E+03</rscale>
<asrwt>  1 0.30779682E+02</asrwt>
<pdfrwt beam="1">  1        1 0.85668091E+00 0.30000000E+03</pdfrwt>
<pdfrwt beam="2">0</pdfrwt>
<totfact> 0.35903114E-04</totfact>
</mgrwt>
<clustering>
<clus scale="   30.780">  1  6  2 -1</clus>
<clus scale="  477.158">  4  5 -1 -1</clus>
<clus scale="  300.000">  1  4  2 -1</clus>
</clustering>
</event>
<event>
 6    1  0.9462926E-012  0.3000000E+03  0.7818608E-02  0.1093470E+00
          1   -1    0    0  502    0  0.00000000000E+00  0.00000000000E+00  0.22738733534E+03  0.22738733534E+03  0.00000000000E+00 0.  1.
         13   -1    0    0    0    0 -0.00000000000E+00 -0.00000000000E+00 -0.27500000000E+03  0.27500000000E+03  0.00000000000E+00 0.  1.
    9000005    2    1    2  501    0  0.31610953416E+02  0.17912820816E+02 -0.53178541398E+02  0.46563001621E+03  0.46115424015E+03 0.  0.
         13    1    3    3    0    0 -0.13865115178E+03  0.92175140796E+01  0.14727547555E+03  0.20248251815E+03  0.00000000000E+00 0.  1.
          3    1    3    3  501    0  0.17026210520E+03  0.86953067359E+01 -0.20045401695E+03  0.26314749806E+03  0.00000000000E+00 0.  1.
         21    1    1    2  502  501 -0.31610953416E+02 -0.17912820816E+02  0.55658767363E+01  0.36757319126E+02  0.00000000000E+00 0. -1.
<scales pt_clust_4="550.00000" pt_clust_5="550.00000" pt_clust_6="36.33348"></scales>
<mgrwt>
<rscale>  0 0.30000000E+03</rscale>
<asrwt>  1 0.36333477E+02</asrwt>
<pdfrwt beam="1">  1        1 0.82686304E+00 0.30000000E+03</pdfrwt>
<pdfrwt beam="2">0</pdfrwt>
<totfact> 0.62439916E-04</totfact>
</mgrwt>
<clustering>
<clus scale="   36.333">  1  6  2 -1</clus>
<clus scale="  461.154">  4  5 -1 -1</clus>
<clus scale="  300.000">  1  4  2 -1</clus>
</clustering>
</event>
<event>
 6    1  0.9462926E-012  0.3000000E+03  0.7818608E-02  0.1093470E+00
          1   -1    0    0  502    0  0.00000000000E+00  0.00000000000E+00  0.22897906705E+03  0.22897906705E+03  0.00000000000E+00 0.  1.
         13   -1    0    0    0    0 -0.00000000000E+00 -0.00000000000E+00 -0.27500000000E+03  0.27500000000E+03  0.00000000000E+00 0.  1.
    9000005    2    1    2  501    0 -0.82566885266E+01 -0.36904445981E+02 -0.48142010112E+02  0.46610282111E+03  0.46206501238E+03 0.  0.
         13    1    3    3    0    0 -0.13466018259E+03  0.16342191838E+03 -0.81491948491E+02  0.22689430546E+03  0.00000000000E+00 0.  1.
          3    1    3    3  501    0  0.12640349406E+03 -0.20032636436E+03  0.33349938379E+02  0.23920851565E+03  0.00000000000E+00 0.  1.
         21    1    1    2  502  501  0.82566885266E+01  0.36904445981E+02  0.21210771667E+01  0.37876245946E+02  0.00000000000E+00 0.  1.
<scales pt_clust_4="550.00000" pt_clust_5="550.00000" pt_clust_6="37.81681"></scales>
<mgrwt>
<rscale>  0 0.30000000E+03</rscale>
<asrwt>  1 0.37816809E+02</asrwt>
<pdfrwt beam="1">  1        1 0.83265115E+00 0.30000000E+03</pdfrwt>
<pdfrwt beam="2">0</pdfrwt>
<totfact> 0.55513284E-04</totfact>
</mgrwt>
<clustering>
<clus scale="   37.817">  1  6  2 -1</clus>
<clus scale="  462.065">  4  5 -1 -1</clus>
<clus scale="  300.000">  1  4  2 -1</clus>
</clustering>
</event>
<event>
 6    1  0.9462926E-012  0.3000000E+03  0.7818608E-02  0.1093470E+00
          1   -1    0    0  502    0  0.00000000000E+00  0.00000000000E+00  0.23252024276E+03  0.23252024276E+03  0.00000000000E+00 0.  1.
         13   -1    0    0    0    0 -0.00000000000E+00 -0.00000000000E+00 -0.27500000000E+03  0.27500000000E+03  0.00000000000E+00 0.  1.
    9000005    2    1    2  501    0  0.30463534063E+02  0.17477464537E+02 -0.38564256718E+02  0.47218159793E+03  0.46929177582E+03 0.  0.
         13    1    3    3    0    0 -0.19463264126E+03  0.11094240243E+03 -0.44370790877E+02  0.22838311844E+03  0.00000000000E+00 0.  1.
          1    1    3    3  501    0  0.22509617533E+03 -0.93464937897E+02  0.58065341592E+01  0.24379847949E+03  0.00000000000E+00 0.  1.
         21    1    1    2  502  501 -0.30463534063E+02 -0.17477464537E+02 -0.39155005237E+01  0.35338644833E+02  0.00000000000E+00 0.  1.
<scales pt_clust_4="550.00000" pt_clust_5="550.00000" pt_clust_6="35.12107"></scales>
<mgrwt>
<rscale>  0 0.30000000E+03</rscale>
<asrwt>  1 0.35121075E+02</asrwt>
<pdfrwt beam="1">  1        1 0.84552816E+00 0.30000000E+03</pdfrwt>
<pdfrwt beam="2">0</pdfrwt>
<totfact> 0.44673920E-04</totfact>
</mgrwt>
<clustering>
<clus scale="   35.121">  1  6  2 -1</clus>
<clus scale="  469.292">  4  5 -1 -1</clus>
<clus scale="  300.000">  1  4  2 -1</clus>
</clustering>
</event>
<event>
 6    1  0.9462926E-012  0.3000000E+03  0.7818608E-02  0.1093470E+00
          1   -1    0    0  502    0  0.00000000000E+00  0.00000000000E+00  0.24127125334E+03  0.24127125334E+03  0.00000000000E+00 0.  1.
         13   -1    0    0    0    0 -0.00000000000E+00 -0.00000000000E+00 -0.27500000000E+03  0.27500000000E+03  0.00000000000E+00 0.  1.
    9000005    2    1    2  501    0  0.11027993042E+02  0.28137619091E+02 -0.46961633124E+02  0.48327956464E+03  0.48004208188E+03 0.  0.
         13    1    3    3    0    0 -0.19396995204E+03 -0.28425548792E+01  0.11021115214E+03  0.22311190122E+03  0.00000000000E+00 0.  1.
          1    1    3    3  501    0  0.20499794508E+03  0.30980173970E+02 -0.15717278526E+03  0.26016766342E+03  0.00000000000E+00 0.  1.
         21    1    1    2  502  501 -0.11027993042E+02 -0.28137619091E+02  0.13232886460E+02  0.32991688691E+02  0.00000000000E+00 0. -1.
<scales pt_clust_4="550.00000" pt_clust_5="550.00000" pt_clust_6="30.22155"></scales>
<mgrwt>
<rscale>  0 0.30000000E+03</rscale>
<asrwt>  1 0.30221553E+02</asrwt>
<pdfrwt beam="1">  1        1 0.87735001E+00 0.30000000E+03</pdfrwt>
<pdfrwt beam="2">0</pdfrwt>
<totfact> 0.21806035E-04</totfact>
</mgrwt>
<clustering>
<clus scale="   30.222">  1  6  2 -1</clus>
<clus scale="  480.042">  4  5 -1 -1</clus>
<clus scale="  300.000">  1  4  2 -1</clus>
</clustering>
</event>
<event>
 6    1  0.9462926E-012  0.3000000E+03  0.7818608E-02  0.1093470E+00
          1   -1    0    0  502    0  0.00000000000E+00  0.00000000000E+00  0.24386933661E+03  0.24386933661E+03  0.00000000000E+00 0.  1.
         13   -1    0    0    0    0 -0.00000000000E+00 -0.00000000000E+00 -0.27500000000E+03  0.27500000000E+03  0.00000000000E+00 0.  1.
    9000005    2    1    2  501    0 -0.21701007056E+01 -0.42119263106E+02  0.99714961852E+00  0.46585105646E+03  0.46393692549E+03 0.  0.
         13    1    3    3    0    0 -0.20675000186E+03 -0.60633575993E+02 -0.99320670197E+02  0.23724794907E+03  0.00000000000E+00 0.  1.
          1    1    3    3  501    0  0.20457990116E+03  0.18514312887E+02  0.10031781982E+03  0.22860310740E+03  0.00000000000E+00 0.  1.
         21    1    1    2  502  501  0.21701007056E+01  0.42119263106E+02 -0.32127813006E+02  0.53018280152E+02  0.00000000000E+00 0.  1.
<scales pt_clust_4="550.00000" pt_clust_5="550.00000" pt_clust_6="42.17515"></scales>
<mgrwt>
<rscale>  0 0.30000000E+03</rscale>
<asrwt>  1 0.42175152E+02</asrwt>
<pdfrwt beam="1">  1        1 0.88679759E+00 0.30000000E+03</pdfrwt>
<pdfrwt beam="2">0</pdfrwt>
<totfact> 0.15489776E-04</totfact>
</mgrwt>
<clustering>
<clus scale="   42.175">  1  6  2 -1</clus>
<clus scale="  463.937">  4  5 -1 -1</clus>
<clus scale="  300.000">  1  4  2 -1</clus>
</clustering>
</event>
<event>
 6    1  0.9462926E-012  0.3000000E+03  0.7818608E-02  0.1093470E+00
          1   -1    0    0  502    0  0.00000000000E+00  0.00000000000E+00  0.23590363863E+03  0.23590363863E+03  0.00000000000E+00 0.  1.
         13   -1    0    0    0    0 -0.00000000000E+00 -0.00000000000E+00 -0.27500000000E+03  0.27500000000E+03  0.00000000000E+00 0.  1.
    9000005    2    1    2  501    0  0.23706607396E+02 -0.24074481597E+02 -0.54913206575E+02  0.47359738593E+03  0.46918806443E+03 0.  0.
         13    1    3    3    0    0  0.13430717647E+03 -0.20777457409E+03 -0.74240494203E+02  0.25830281119E+03  0.00000000000E+00 0.  1.
          3    1    3    3  501    0 -0.11060056907E+03  0.18370009250E+03  0.19327287628E+02  0.21529457473E+03  0.00000000000E+00 0.  1.
         21    1    1    2  502  501 -0.23706607396E+02  0.24074481597E+02  0.15816845205E+02  0.37306252701E+02  0.00000000000E+00 0.  1.
<scales pt_clust_4="550.00000" pt_clust_5="550.00000" pt_clust_6="33.78733"></scales>
<mgrwt>
<rscale>  0 0.30000000E+03</rscale>
<asrwt>  1 0.33787333E+02</asrwt>
<pdfrwt beam="1">  1        1 0.85783141E+00 0.30000000E+03</pdfrwt>
<pdfrwt beam="2">0</pdfrwt>
<totfact> 0.34321870E-04</totfact>
</mgrwt>
<clustering>
<clus scale="   33.787">  1  6  2 -1</clus>
<clus scale="  469.188">  4  5 -1 -1</clus>
<clus scale="  300.000">  1  4  2 -1</clus>
</clustering>
</event>
<event>
 6    1  0.9462926E-012  0.3000000E+03  0.7818608E-02  0.1093470E+00
          1   -1    0    0  502    0  0.00000000000E+00  0.00000000000E+00  0.25221877723E+03  0.25221877723E+03  0.00000000000E+00 0.  1.
         13   -1    0    0    0    0 -0.00000000000E+00 -0.00000000000E+00 -0.27500000000E+03  0.27500000000E+03  0.00000000000E+00 0.  1.
    9000005    2    1    2  501    0  0.34154039260E+02  0.19193746412E+02 -0.49146454012E+02  0.47999565029E+03  0.47586295512E+03 0.  0.
         13    1    3    3    0    0  0.44253752755E+02 -0.34874155469E+02 -0.25796918969E+03  0.26405057125E+03  0.00000000000E+00 0.  1.
          3    1    3    3  501    0 -0.10099713495E+02  0.54067901881E+02  0.20882273567E+03  0.21594507904E+03  0.00000000000E+00 0.  1.
         21    1    1    2  502  501 -0.34154039260E+02 -0.19193746412E+02  0.26365231238E+02  0.47223126933E+02  0.00000000000E+00 0. -1.
<scales pt_clust_4="550.00000" pt_clust_5="550.00000" pt_clust_6="39.17778"></scales>
<mgrwt>
<rscale>  0 0.30000000E+03</rscale>
<asrwt>  1 0.39177778E+02</asrwt>
<pdfrwt beam="1">  1        1 0.91715919E+00 0.30000000E+03</pdfrwt>
<pdfrwt beam="2">0</pdfrwt>
<totfact> 0.47317772E-05</totfact>
</mgrwt>
<clustering>
<clus scale="   39.178">  1  6  2 -1</clus>
<clus scale="  475.863">  4  5 -1 -1</clus>
<clus scale="  300.000">  1  4  2 -1</clus>
</clustering>
</event>
<event>
 6    1  0.9462926E-012  0.3000000E+03  0.7818608E-02  0.1093470E+00
          1   -1    0    0  502    0  0.00000000000E+00  0.00000000000E+00  0.24336220941E+03  0.24336220941E+03  0.00000000000E+00 0.  1.
         13   -1    0    0    0    0 -0.00000000000E+00 -0.00000000000E+00 -0.27500000000E+03  0.27500000000E+03  0.00000000000E+00 0.  1.
    9000005    2    1    2  501    0 -0.20646671624E+02 -0.24545962378E+02 -0.74707400169E+02  0.46466136596E+03  0.45749338799E+03 0.  0.
         13    1    3    3    0    0  0.81127651728E+02 -0.21221701046E+03 -0.10272538293E+03  0.24933964727E+03  0.00000000000E+00 0.  1.
          1    1    3    3  501    0 -0.10177432335E+03  0.18767104808E+03  0.28017982765E+02  0.21532171869E+03  0.00000000000E+00 0.  1.
         21    1    1    2  502  501  0.20646671624E+02  0.24545962378E+02  0.43069609577E+02  0.53700843451E+02  0.00000000000E+00 0.  1.
<scales pt_clust_4="550.00000" pt_clust_5="550.00000" pt_clust_6="32.07475"></scales>
<mgrwt>
<rscale>  0 0.30000000E+03</rscale>
<asrwt>  1 0.32074746E+02</asrwt>
<pdfrwt beam="1">  1        1 0.88495349E+00 0.30000000E+03</pdfrwt>
<pdfrwt beam="2">0</pdfrwt>
<totfact> 0.17277706E-04</totfact>
</mgrwt>
<clustering>
<clus scale="   32.075">  1  6  2 -1</clus>
<clus scale="  457.493">  4  5 -1 -1</clus>
<clus scale="  300.000">  1  4  2 -1</clus>
</clustering>
</event>
<event>
 6    1  0.9462926E-012  0.3000000E+03  0.7818608E-02  0.1093470E+00
          1   -1    0    0  502    0  0.00000000000E+00  0.00000000000E+00  0.24115653664E+03  0.24115653664E+03  0.00000000000E+00 0.  1.
         13   -1    0    0    0    0 -0.00000000000E+00 -0.00000000000E+00 -0.27500000000E+03  0.27500000000E+03  0.00000000000E+00 0.  1.
    9000005    2    1    2  501    0  0.71441868732E+01  0.37731935121E+02 -0.48714261633E+02  0.47497548547E+03  0.47090752190E+03 0.  0.
         13    1    3    3    0    0 -0.41879519396E+02 -0.17735102494E+03 -0.14636384315E+03  0.23372987565E+03  0.00000000000E+00 0.  1.
          1    1    3    3  501    0  0.49023706270E+02  0.21508296006E+03  0.97649581516E+02  0.24124560982E+03  0.00000000000E+00 0.  1.
         21    1    1    2  502  501 -0.71441868732E+01 -0.37731935121E+02  0.14870798271E+02  0.41181051168E+02  0.00000000000E+00 0.  1.
<scales pt_clust_4="550.00000" pt_clust_5="550.00000" pt_clust_6="38.40232"></scales>
<mgrwt>
<rscale>  0 0.30000000E+03</rscale>
<asrwt>  1 0.38402322E+02</asrwt>
<pdfrwt beam="1">  1        1 0.87693286E+00 0.30000000E+03</pdfrwt>
<pdfrwt beam="2">0</pdfrwt>
<totfact> 0.21070192E-04</totfact>
</mgrwt>
<clustering>
<clus scale="   38.402">  1  6  2 -1</clus>
<clus scale="  470.908">  4  5 -1 -1</clus>
<clus scale="  300.000">  1  4  2 -1</clus>
</clustering>
</event>
<event>
 6    1  0.9462926E-012  0.3000000E+03  0.7818608E-02  0.1093470E+00
          1   -1    0    0  502    0  0.00000000000E+00  0.00000000000E+00  0.22577361339E+03  0.22577361339E+03  0.00000000000E+00 0.  1.
         13   -1    0    0    0    0 -0.00000000000E+00 -0.00000000000E+00 -0.27500000000E+03  0.27500000000E+03  0.00000000000E+00 0.  1.
    9000005    2    1    2  501    0  0.27514191307E+02 -0.22890091678E+02 -0.36431295759E+02  0.46276438596E+03  0.45993765945E+03 0.  0.
         13    1    3    3    0    0 -0.85846959693E+02  0.15489443703E+03  0.10778113025E+03  0.20731319097E+03  0.00000000000E+00 0.  1.
          1    1    3    3  501    0  0.11336115100E+03 -0.17778452871E+03 -0.14421242601E+03  0.25545119499E+03  0.00000000000E+00 0.  1.
         21    1    1    2  502  501 -0.27514191307E+02  0.22890091678E+02 -0.12795090851E+02  0.38009227435E+02  0.00000000000E+00 0.  1.
<scales pt_clust_4="550.00000" pt_clust_5="550.00000" pt_clust_6="35.79090"></scales>
<mgrwt>
<rscale>  0 0.30000000E+03</rscale>
<asrwt>  1 0.35790897E+02</asrwt>
<pdfrwt beam="1">  1        1 0.82099496E+00 0.30000000E+03</pdfrwt>
<pdfrwt beam="2">0</pdfrwt>
<totfact> 0.70603855E-04</totfact>
</mgrwt>
<clustering>
<clus scale="   35.791">  1  6  2 -1</clus>
<clus scale="  459.938">  4  5 -1 -1</clus>
<clus scale="  300.000">  1  4  2 -1</clus>
</clustering>
</event>
<event>
 6    1  0.9462926E-012  0.3000000E+03  0.7818608E-02  0.1093470E+00
          1   -1    0    0  502    0  0.00000000000E+00  0.00000000000E+00  0.22713229585E+03  0.22713229585E+03  0.00000000000E+00 0.  1.
         13   -1    0    0    0    0 -0.00000000000E+00 -0.00000000000E+00 -0.27500000000E+03  0.27500000000E+03  0.00000000000E+00 0.  1.
    9000005    2    1    2  501    0  0.69397055632E+01 -0.31378034890E+02 -0.56264803105E+02  0.46891706053E+03  0.46441871301E+03 0.  0.
         13    1    3    3    0    0  0.96445256776E+02  0.16115834962E+03  0.92802317776E+02  0.20948978828E+03  0.00000000000E+00 0.  1.
          3    1    3    3  501    0 -0.89505551213E+02 -0.19253638451E+03 -0.14906712088E+03  0.25942727225E+03  0.00000000000E+00 0.  1.
         21    1    1    2  502  501 -0.69397055632E+01  0.31378034890E+02  0.83970989581E+01  0.33215235326E+02  0.00000000000E+00 0. -1.
<scales pt_clust_4="550.00000" pt_clust_5="550.00000" pt_clust_6="32.13628"></scales>
<mgrwt>
<rscale>  0 0.30000000E+03</rscale>
<asrwt>  1 0.32136281E+02</asrwt>
<pdfrwt beam="1">  1        1 0.82593562E+00 0.30000000E+03</pdfrwt>
<pdfrwt beam="2">0</pdfrwt>
<totfact> 0.65115230E-04</totfact>
</mgrwt>
<clustering>
<clus scale="   32.136">  1  6  2 -1</clus>
<clus scale="  464.419">  4  5 -1 -1</clus>
<clus scale="  300.000">  1  4  2 -1</clus>
</clustering>
</event>
<event>
 6    1  0.9462926E-012  0.3000000E+03  0.7818608E-02  0.1093470E+00
          1   -1    0    0  502    0  0.00000000000E+00  0.00000000000E+00  0.25272908720E+03  0.25272908720E+03  0.00000000000E+00 0.  1.
         13   -1    0    0    0    0 -0.00000000000E+00 -0.00000000000E+00 -0.27500000000E+03  0.27500000000E+03  0.00000000000E+00 0.  1.
    9000005    2    1    2  501    0 -0.46372472016E+01  0.36478163603E+02 -0.70136711002E+02  0.46736937283E+03  0.46061134587E+03 0.  0.
         13    1    3    3    0    0 -0.22186356468E+03  0.73799388805E+02  0.68103635371E+01  0.23391488232E+03  0.00000000000E+00 0.  1.
          1    1    3    3  501    0  0.21722631748E+03 -0.37321225202E+02 -0.76947074539E+02  0.23345449050E+03  0.00000000000E+00 0.  1.
         21    1    1    2  502  501  0.46372472016E+01 -0.36478163603E+02  0.47865798197E+02  0.60359714367E+02  0.00000000000E+00 0. -1.
<scales pt_clust_4="550.00000" pt_clust_5="550.00000" pt_clust_6="36.77173"></scales>
<mgrwt>
<rscale>  0 0.30000000E+03</rscale>
<asrwt>  1 0.36771735E+02</asrwt>
<pdfrwt beam="1">  1        1 0.91901486E+00 0.30000000E+03</pdfrwt>
<pdfrwt beam="2">0</pdfrwt>
<totfact> 0.43522756E-05</totfact>
</mgrwt>
<clustering>
<clus scale="   36.772">  1  6  2 -1</clus>
<clus scale="  460.611">  4  5 -1 -1</clus>
<clus scale="  300.000">  1  4  2 -1</clus>
</clustering>
</event>
<event>
 6    1  0.9462926E-012  0.3000000E+03  0.7818608E-02  0.1093470E+00
          1   -1    0    0  502    0  0.00000000000E+00  0.00000000000E+00  0.24571594378E+03  0.24571594378E+03  0.00000000000E+00 0.  1.
         13   -1    0    0    0    0 -0.00000000000E+00 -0.00000000000E+00 -0.27500000000E+03  0.27500000000E+03  0.00000000000E+00 0.  1.
    9000005    2    1    2  501    0  0.77827929506E+01 -0.32665002030E+02 -0.49245101136E+02  0.48165166933E+03  0.47794944959E+03 0.  0.
         13    1    3    3    0    0 -0.10904537305E+03  0.18263615661E+03  0.48063439188E+02  0.21807556780E+03  0.00000000000E+00 0.  1.
          3    1    3    3  501    0  0.11682816600E+03 -0.21530115864E+03 -0.97308540324E+02  0.26357610154E+03  0.00000000000E+00 0.  1.
         21    1    1    2  502  501 -0.77827929506E+01  0.32665002030E+02  0.19961044914E+02  0.39064274444E+02  0.00000000000E+00 0.  1.
<scales pt_clust_4="550.00000" pt_clust_5="550.00000" pt_clust_6="33.57937"></scales>
<mgrwt>
<rscale>  0 0.30000000E+03</rscale>
<asrwt>  1 0.33579372E+02</asrwt>
<pdfrwt beam="1">  1        1 0.89351252E+00 0.30000000E+03</pdfrwt>
<pdfrwt beam="2">0</pdfrwt>
<totfact> 0.13212865E-04</totfact>
</mgrwt>
<clustering>
<clus scale="   33.579">  1  6  2 -1</clus>
<clus scale="  477.949">  4  5 -1 -1</clus>
<clus scale="  300.000">  1  4  2 -1</clus>
</clustering>
</event>
<event>
 6    1  0.9462926E-012  0.3000000E+03  0.7818608E-02  0.1093470E+00
          1   -1    0    0  502    0  0.00000000000E+00  0.00000000000E+00  0.24389422747E+03  0.24389422747E+03  0.00000000000E+00 0.  1.
         13   -1    0    0    0    0 -0.00000000000E+00 -0.00000000000E+00 -0.27500000000E+03  0.27500000000E+03  0.00000000000E+00 0.  1.
    9000005    2    1    2  501    0  0.59469392003E+01  0.46883743561E+02 -0.42064812065E+02  0.47038080620E+03  0.46610642876E+03 0.  0.
         13    1    3    3    0    0  0.99155211693E+02 -0.13570656677E+03  0.12210381932E+03  0.20774352207E+03  0.00000000000E+00 0.  1.
          3    1    3    3  501    0 -0.93208272492E+02  0.18259031033E+03 -0.16416863138E+03  0.26263728413E+03  0.00000000000E+00 0.  1.
         21    1    1    2  502  501 -0.59469392003E+01 -0.46883743561E+02  0.10959039538E+02  0.48513421274E+02  0.00000000000E+00 0. -1.
<scales pt_clust_4="550.00000" pt_clust_5="550.00000" pt_clust_6="47.25941"></scales>
<mgrwt>
<rscale>  0 0.30000000E+03</rscale>
<asrwt>  1 0.47259406E+02</asrwt>
<pdfrwt beam="1">  1        1 0.88688810E+00 0.30000000E+03</pdfrwt>
<pdfrwt beam="2">0</pdfrwt>
<totfact> 0.15133855E-04</totfact>
</mgrwt>
<clustering>
<clus scale="   47.259">  1  6  2 -1</clus>
<clus scale="  466.106">  4  5 -1 -1</clus>
<clus scale="  300.000">  1  4  2 -1</clus>
</clustering>
</event>
<event>
 6    1  0.9462926E-012  0.3000000E+03  0.7818608E-02  0.1093470E+00
          1   -1    0    0  502    0  0.00000000000E+00  0.00000000000E+00  0.22640031186E+03  0.22640031186E+03  0.00000000000E+00 0.  1.
         13   -1    0    0    0    0 -0.00000000000E+00 -0.00000000000E+00 -0.27500000000E+03  0.27500000000E+03  0.00000000000E+00 0.  1.
    9000005    2    1    2  501    0 -0.21936430449E+02 -0.24614995827E+02 -0.63174445322E+02  0.46535133757E+03  0.45986275326E+03 0.  0.
         13    1    3    3    0    0 -0.21434810620E+02  0.11474702730E+03 -0.22397135546E+03  0.25256583190E+03  0.00000000000E+00 0.  1.
          3    1    3    3  501    0 -0.50161982827E+00 -0.13936202313E+03  0.16079691013E+03  0.21278550567E+03  0.00000000000E+00 0.  1.
         21    1    1    2  502  501  0.21936430449E+02  0.24614995827E+02  0.14574757183E+02  0.36048974290E+02  0.00000000000E+00 0.  1.
<scales pt_clust_4="550.00000" pt_clust_5="550.00000" pt_clust_6="32.97128"></scales>
<mgrwt>
<rscale>  0 0.30000000E+03</rscale>
<asrwt>  1 0.32971275E+02</asrwt>
<pdfrwt beam="1">  1        1 0.82327386E+00 0.30000000E+03</pdfrwt>
<pdfrwt beam="2">0</pdfrwt>
<totfact> 0.68442257E-04</totfact>
</mgrwt>
<clustering>
<clus scale="   32.971">  1  6  2 -1</clus>
<clus scale="  459.863">  4  5 -1 -1</clus>
<clus scale="  300.000">  1  4  2 -1</clus>
</clustering>
</event>
<event>
 6    1  0.9462926E-012  0.3000000E+03  0.7818608E-02  0.1093470E+00
          1   -1    0    0  502    0  0.00000000000E+00  0.00000000000E+00  0.23416470483E+03  0.23416470483E+03  0.00000000000E+00 0.  1.
         13   -1    0    0    0    0 -0.00000000000E+00 -0.00000000000E+00 -0.27500000000E+03  0.27500000000E+03  0.00000000000E+00 0.  1.
    9000005    2    1    2  501    0  0.31106852654E+02 -0.35636989138E+01 -0.40818619831E+02  0.47785437889E+03  0.47507716370E+03 0.  0.
         13    1    3    3    0    0 -0.56674091327E+02 -0.22377739519E+03 -0.64298205656E+02  0.23962999495E+03  0.00000000000E+00 0.  1.
          3    1    3    3  501    0  0.87780943982E+02  0.22021369628E+03  0.23479585825E+02  0.23822438395E+03  0.00000000000E+00 0.  1.
         21    1    1    2  502  501 -0.31106852654E+02  0.35636989138E+01 -0.16675342805E-01  0.31310325934E+02  0.00000000000E+00 0.  1.
<scales pt_clust_4="550.00000" pt_clust_5="550.00000" pt_clust_6="31.31032"></scales>
<mgrwt>
<rscale>  0 0.30000000E+03</rscale>
<asrwt>  1 0.31310321E+02</asrwt>
<pdfrwt beam="1">  1        1 0.85150802E+00 0.30000000E+03</pdfrwt>
<pdfrwt beam="2">0</pdfrwt>
<totfact> 0.40221548E-04</totfact>
</mgrwt>
<clustering>
<clus scale="   31.310">  1  6  2 -1</clus>
<clus scale="  475.077">  4  5 -1 -1</clus>
<clus scale="  300.000">  1  4  2 -1</clus>
</clustering>
</event>
<event>
 6    1  0.9462926E-012  0.3000000E+03  0.7818608E-02  0.1093470E+00
          1   -1    0    0  502    0  0.00000000000E+00  0.00000000000E+00  0.23589943249E+03  0.23589943249E+03  0.00000000000E+00 0.  1.
         13   -1    0    0    0    0 -0.00000000000E+00 -0.00000000000E+00 -0.27500000000E+03  0.27500000000E+03  0.00000000000E+00 0.  1.
    9000005    2    1    2  501    0 -0.79972538356E+01 -0.32410452953E+02 -0.30279590658E+02  0.47637113740E+03  0.47423434440E+03 0.  0.
         13    1    3    3    0    0 -0.66131058390E+02 -0.23409870575E+03  0.55682045416E+02  0.24955162011E+03  0.00000000000E+00 0.  1.
          3    1    3    3  501    0  0.58133804554E+02  0.20168825280E+03 -0.85961636073E+02  0.22681951729E+03  0.00000000000E+00 0.  1.
         21    1    1    2  502  501  0.79972538356E+01  0.32410452953E+02 -0.88209768476E+01  0.34528295093E+02  0.00000000000E+00 0.  1.
<scales pt_clust_4="550.00000" pt_clust_5="550.00000" pt_clust_6="33.38255"></scales>
<mgrwt>
<rscale>  0 0.30000000E+03</rscale>
<asrwt>  1 0.33382550E+02</asrwt>
<pdfrwt beam="1">  1        1 0.85781612E+00 0.30000000E+03</pdfrwt>
<pdfrwt beam="2">0</pdfrwt>
<totfact> 0.34412518E-04</totfact>
</mgrwt>
<clustering>
<clus scale="   33.383">  1  6  2 -1</clus>
<clus scale="  474.234">  4  5 -1 -1</clus>
<clus scale="  300.000">  1  4  2 -1</clus>
</clustering>
</event>
<event>
 6    1  0.9462926E-012  0.3000000E+03  0.7818608E-02  0.1093470E+00
          1   -1    0    0  502    0  0.00000000000E+00  0.00000000000E+00  0.24776552474E+03  0.24776552474E+03  0.00000000000E+00 0.  1.
         13   -1    0    0    0    0 -0.00000000000E+00 -0.00000000000E+00 -0.27500000000E+03  0.27500000000E+03  0.00000000000E+00 0.  1.
    9000005    2    1    2  501    0  0.31563791440E+02  0.30580511984E+02 -0.40371052879E+02  0.47689603254E+03  0.47314750691E+03 0.  0.
         13    1    3    3    0    0 -0.16620678640E+03  0.10572424918E+03 -0.14136742596E+03  0.24246043354E+03  0.00000000000E+00 0.  1.
          3    1    3    3  501    0  0.19777057784E+03 -0.75143737197E+02  0.10099637308E+03  0.23443559900E+03  0.00000000000E+00 0.  1.
         21    1    1    2  502  501 -0.31563791440E+02 -0.30580511984E+02  0.13136577622E+02  0.45869492203E+02  0.00000000000E+00 0.  1.
<scales pt_clust_4="550.00000" pt_clust_5="550.00000" pt_clust_6="43.94816"></scales>
<mgrwt>
<rscale>  0 0.30000000E+03</rscale>
<asrwt>  1 0.43948159E+02</asrwt>
<pdfrwt beam="1">  1        1 0.90096554E+00 0.30000000E+03</pdfrwt>
<pdfrwt beam="2">0</pdfrwt>
<totfact> 0.10292312E-04</totfact>
</mgrwt>
<clustering>
<clus scale="   43.948">  1  6  2 -1</clus>
<clus scale="  473.148">  4  5 -1 -1</clus>
<clus scale="  300.000">  1  4  2 -1</clus>
</clustering>
</event>
<event>
 6    1  0.9462926E-012  0.3000000E+03  0.7818608E-02  0.1093470E+00
          1   -1    0    0  502    0  0.00000000000E+00  0.00000000000E+00  0.23122255320E+03  0.23122255320E+03  0.00000000000E+00 0.  1.
         13   -1    0    0    0    0 -0.00000000000E+00 -0.00000000000E+00 -0.27500000000E+03  0.27500000000E+03  0.00000000000E+00 0.  1.
    9000005    2    1    2  501    0  0.10210201837E+02 -0.37897537037E+02 -0.62149981339E+02  0.46288640708E+03  0.45701283805E+03 0.  0.
         13    1    3    3    0    0  0.97940231783E+01 -0.24747375178E+03 -0.15316385759E+02  0.24814063025E+03  0.00000000000E+00 0.  1.
          3    1    3    3  501    0  0.41617865911E+00  0.20957621474E+03 -0.46833595580E+02  0.21474577683E+03  0.00000000000E+00 0.  1.
         21    1    1    2  502  501 -0.10210201837E+02  0.37897537037E+02  0.18372534534E+02  0.43336146117E+02  0.00000000000E+00 0. -1.
<scales pt_clust_4="550.00000" pt_clust_5="550.00000" pt_clust_6="39.24884"></scales>
<mgrwt>
<rscale>  0 0.30000000E+03</rscale>
<asrwt>  1 0.39248841E+02</asrwt>
<pdfrwt beam="1">  1        1 0.84080928E+00 0.30000000E+03</pdfrwt>
<pdfrwt beam="2">0</pdfrwt>
<totfact> 0.47961387E-04</totfact>
</mgrwt>
<clustering>
<clus scale="   39.249">  1  6  2 -1</clus>
<clus scale="  457.013">  4  5 -1 -1</clus>
<clus scale="  300.000">  1  4  2 -1</clus>
</clustering>
</event>
<event>
 6    1  0.9462926E-012  0.3000000E+03  0.7818608E-02  0.1093470E+00
          1   -1    0    0  502    0  0.00000000000E+00  0.00000000000E+00  0.22614426337E+03  0.22614426337E+03  0.00000000000E+00 0.  1.
         13   -1    0    0    0    0 -0.00000000000E+00 -0.00000000000E+00 -0.27500000000E+03  0.27500000000E+03  0.00000000000E+00 0.  1.
    9000005    2    1    2  501    0 -0.30609678134E+02 -0.10596456962E+02 -0.59190944848E+02  0.46714347184E+03  0.46224475988E+03 0.  0.
         13    1    3    3    0    0  0.39877682378E+02 -0.22973602751E+03 -0.28246637404E+02  0.23487601924E+03  0.00000000000E+00 0.  1.
          3    1    3    3  501    0 -0.70487360512E+02  0.21913957055E+03 -0.30944307444E+02  0.23226745260E+03  0.00000000000E+00 0.  1.
         21    1    1    2  502  501  0.30609678134E+02  0.10596456962E+02  0.10335208214E+02  0.34000791527E+02  0.00000000000E+00 0. -1.
<scales pt_clust_4="550.00000" pt_clust_5="550.00000" pt_clust_6="32.39193"></scales>
<mgrwt>
<rscale>  0 0.30000000E+03</rscale>
<asrwt>  1 0.32391933E+02</asrwt>
<pdfrwt beam="1">  1        1 0.82234278E+00 0.30000000E+03</pdfrwt>
<pdfrwt beam="2">0</pdfrwt>
<totfact> 0.69995957E-04</totfact>
</mgrwt>
<clustering>
<clus scale="   32.392">  1  6  2 -1</clus>
<clus scale="  462.245">  4  5 -1 -1</clus>
<clus scale="  300.000">  1  4  2 -1</clus>
</clustering>
</event>
<event>
 6    1  0.9462926E-012  0.3000000E+03  0.7818608E-02  0.1093470E+00
          1   -1    0    0  502    0  0.00000000000E+00  0.00000000000E+00  0.26103153705E+03  0.26103153705E+03  0.00000000000E+00 0.  1.
         13   -1    0    0    0    0 -0.00000000000E+00 -0.00000000000E+00 -0.27500000000E+03  0.27500000000E+03  0.00000000000E+00 0.  1.
    9000005    2    1    2  501    0 -0.22918877778E+02  0.19643362101E+02 -0.64034931506E+02  0.47756968704E+03  0.47229354949E+03 0.  0.
         13    1    3    3    0    0 -0.19737669832E+03  0.35670234291E+02 -0.17833334343E+03  0.26838909820E+03  0.00000000000E+00 0.  1.
          3    1    3    3  501    0  0.17445782054E+03 -0.16026872190E+02  0.11429841192E+03  0.20918058884E+03  0.00000000000E+00 0.  1.
         21    1    1    2  502  501  0.22918877778E+02 -0.19643362101E+02  0.50066468555E+02  0.58461850012E+02  0.00000000000E+00 0.  1.
<scales pt_clust_4="550.00000" pt_clust_5="550.00000" pt_clust_6="30.18504"></scales>
<mgrwt>
<rscale>  0 0.30000000E+03</rscale>
<asrwt>  1 0.30185040E+02</asrwt>
<pdfrwt beam="1">  1        1 0.94920559E+00 0.30000000E+03</pdfrwt>
<pdfrwt beam="2">0</pdfrwt>
<totfact> 0.13173879E-05</totfact>
</mgrwt>
<clustering>
<clus scale="   30.185">  1  6  2 -1</clus>
<clus scale="  472.294">  4  5 -1 -1</clus>
<clus scale="  300.000">  1  4  2 -1</clus>
</clustering>
</event>
<event>
 6    1  0.9462926E-012  0.3000000E+03  0.7818608E-02  0.1093470E+00
          1   -1    0    0  502    0  0.00000000000E+00  0.00000000000E+00  0.23327893330E+03  0.23327893330E+03  0.00000000000E+00 0.  1.
         13   -1    0    0    0    0 -0.00000000000E+00 -0.00000000000E+00 -0.27500000000E+03  0.27500000000E+03  0.00000000000E+00 0.  1.
    9000005    2    1    2  501    0 -0.39854012706E+01 -0.36828084899E+02 -0.61909531304E+02  0.46609166788E+03  0.46047417033E+03 0.  0.
         13    1    3    3    0    0  0.13420465419E+03 -0.20178163508E+03 -0.58962669193E+00  0.24233667721E+03  0.00000000000E+00 0.  1.
          1    1    3    3  501    0 -0.13819005546E+03  0.16495355018E+03 -0.61319904612E+02  0.22375499067E+03  0.00000000000E+00 0.  1.
         21    1    1    2  502  501  0.39854012706E+01  0.36828084899E+02  0.20188464604E+02  0.42187265421E+02  0.00000000000E+00 0. -1.
<scales pt_clust_4="550.00000" pt_clust_5="550.00000" pt_clust_6="37.04310"></scales>
<mgrwt>
<rscale>  0 0.30000000E+03</rscale>
<asrwt>  1 0.37043100E+02</asrwt>
<pdfrwt beam="1">  1        1 0.84828703E+00 0.30000000E+03</pdfrwt>
<pdfrwt beam="2">0</pdfrwt>
<totfact> 0.41773710E-04</totfact>
</mgrwt>
<clustering>
<clus scale="   37.043">  1  6  2 -1</clus>
<clus scale="  460.474">  4  5 -1 -1</clus>
<clus scale="  300.000">  1  4  2 -1</clus>
</clustering>
</event>
<event>
 6    1  0.9462926E-012  0.3000000E+03  0.7818608E-02  0.1093470E+00
          1   -1    0    0  502    0  0.00000000000E+00  0.00000000000E+00  0.22958492995E+03  0.22958492995E+03  0.00000000000E+00 0.  1.
         13   -1    0    0    0    0 -0.00000000000E+00 -0.00000000000E+00 -0.27500000000E+03  0.27500000000E+03  0.00000000000E+00 0.  1.
    9000005    2    1    2  501    0 -0.21036711810E+02 -0.24261452207E+02 -0.66341595733E+02  0.46625634031E+03  0.46039396851E+03 0.  0.
         13    1    3    3    0    0 -0.31531402750E+02  0.73683777938E+01 -0.26391400338E+03  0.26589306785E+03  0.00000000000E+00 0.  1.
          3    1    3    3  501    0  0.10494690939E+02 -0.31629830001E+02  0.19757240765E+03  0.20036327245E+03  0.00000000000E+00 0.  1.
         21    1    1    2  502  501  0.21036711810E+02  0.24261452207E+02  0.20926525686E+02  0.38328589647E+02  0.00000000000E+00 0.  1.
<scales pt_clust_4="550.00000" pt_clust_5="550.00000" pt_clust_6="32.11170"></scales>
<mgrwt>
<rscale>  0 0.30000000E+03</rscale>
<asrwt>  1 0.32111700E+02</asrwt>
<pdfrwt beam="1">  1        1 0.83485429E+00 0.30000000E+03</pdfrwt>
<pdfrwt beam="2">0</pdfrwt>
<totfact> 0.55119525E-04</totfact>
</mgrwt>
<clustering>
<clus scale="   32.112">  1  6  2 -1</clus>
<clus scale="  460.394">  4  5 -1 -1</clus>
<clus scale="  300.000">  1  4  2 -1</clus>
</clustering>
</event>
<event>
 6    1  0.9462926E-012  0.3000000E+03  0.7818608E-02  0.1093470E+00
          1   -1    0    0  502    0  0.00000000000E+00  0.00000000000E+00  0.22915590969E+03  0.22915590969E+03  0.00000000000E+00 0.  1.
         13   -1    0    0    0    0 -0.00000000000E+00 -0.00000000000E+00 -0.27500000000E+03  0.27500000000E+03  0.00000000000E+00 0.  1.
    9000005    2    1    2  501    0 -0.11451680312E+02 -0.28415675115E+02 -0.49420477158E+02  0.47331142693E+03  0.46972623061E+03 0.  0.
         13    1    3    3    0    0 -0.20506755592E+03 -0.11722742382E+03  0.44749322970E+02  0.24041105069E+03  0.00000000000E+00 0.  1.
          3    1    3    3  501    0  0.19361587561E+03  0.88811748705E+02 -0.94169800128E+02  0.23290037624E+03  0.00000000000E+00 0.  1.
         21    1    1    2  502  501  0.11451680312E+02  0.28415675115E+02  0.35763868522E+01  0.30844482766E+02  0.00000000000E+00 0.  1.
<scales pt_clust_4="550.00000" pt_clust_5="550.00000" pt_clust_6="30.63644"></scales>
<mgrwt>
<rscale>  0 0.30000000E+03</rscale>
<asrwt>  1 0.30636442E+02</asrwt>
<pdfrwt beam="1">  1        1 0.83329422E+00 0.30000000E+03</pdfrwt>
<pdfrwt beam="2">0</pdfrwt>
<totfact> 0.57113523E-04</totfact>
</mgrwt>
<clustering>
<clus scale="   30.636">  1  6  2 -1</clus>
<clus scale="  469.726">  4  5 -1 -1</clus>
<clus scale="  300.000">  1  4  2 -1</clus>
</clustering>
</event>
<event>
 6    1  0.9462926E-012  0.3000000E+03  0.7818608E-02  0.1093470E+00
          1   -1    0    0  502    0  0.00000000000E+00  0.00000000000E+00  0.23061671997E+03  0.23061671997E+03  0.00000000000E+00 0.  1.
         13   -1    0    0    0    0 -0.00000000000E+00 -0.00000000000E+00 -0.27500000000E+03  0.27500000000E+03  0.00000000000E+00 0.  1.
    9000005    2    1    2  501    0  0.30514434047E+02 -0.15240775388E+02 -0.19240489708E+02  0.46324253179E+03  0.46158426630E+03 0.  0.
         13    1    3    3    0    0 -0.39280278179E+02  0.11736251017E+02  0.21420767911E+03  0.21809541405E+03  0.00000000000E+00 0.  1.
          3    1    3    3  501    0  0.69794712226E+02 -0.26977026405E+02 -0.23344816882E+03  0.24514711773E+03  0.00000000000E+00 0.  1.
         21    1    1    2  502  501 -0.30514434047E+02  0.15240775388E+02 -0.25142790318E+02  0.42374188189E+02  0.00000000000E+00 0. -1.
<scales pt_clust_4="550.00000" pt_clust_5="550.00000" pt_clust_6="34.10884"></scales>
<mgrwt>
<rscale>  0 0.30000000E+03</rscale>
<asrwt>  1 0.34108842E+02</asrwt>
<pdfrwt beam="1">  1        1 0.83860625E+00 0.30000000E+03</pdfrwt>
<pdfrwt beam="2">0</pdfrwt>
<totfact> 0.51167077E-04</totfact>
</mgrwt>
<clustering>
<clus scale="   34.109">  1  6  2 -1</clus>
<clus scale="  461.584">  4  5 -1 -1</clus>
<clus scale="  300.000">  1  4  2 -1</clus>
</clustering>
</event>
<event>
 6    1  0.9462926E-012  0.3000000E+03  0.7818608E-02  0.1093470E+00
          1   -1    0    0  502    0  0.00000000000E+00  0.00000000000E+00  0.23360794648E+03  0.23360794648E+03  0.00000000000E+00 0.  1.
         13   -1    0    0    0    0 -0.00000000000E+00 -0.00000000000E+00 -0.27500000000E+03  0.27500000000E+03  0.00000000000E+00 0.  1.
    9000005    2    1    2  501    0  0.13035080532E+02 -0.38297702680E+02 -0.50758719755E+02  0.46708251100E+03  0.46255053464E+03 0.  0.
         13    1    3    3    0    0  0.12070382632E+03 -0.75145673375E+02  0.16824402408E+03  0.22027786442E+03  0.00000000000E+00 0.  1.
          1    1    3    3  501    0 -0.10766874579E+03  0.36847970695E+02 -0.21900274384E+03  0.24680464658E+03  0.00000000000E+00 0.  1.
         21    1    1    2  502  501 -0.13035080532E+02  0.38297702680E+02  0.93666662304E+01  0.41525435474E+02  0.00000000000E+00 0. -1.
<scales pt_clust_4="550.00000" pt_clust_5="550.00000" pt_clust_6="40.45525"></scales>
<mgrwt>
<rscale>  0 0.30000000E+03</rscale>
<asrwt>  1 0.40455251E+02</asrwt>
<pdfrwt beam="1">  1        1 0.84948344E+00 0.30000000E+03</pdfrwt>
<pdfrwt beam="2">0</pdfrwt>
<totfact> 0.40068449E-04</totfact>
</mgrwt>
<clustering>
<clus scale="   40.455">  1  6  2 -1</clus>
<clus scale="  462.551">  4  5 -1 -1</clus>
<clus scale="  300.000">  1  4  2 -1</clus>
</clustering>
</event>
<event>
 6    1  0.9462926E-012  0.3000000E+03  0.7818608E-02  0.1093470E+00
          1   -1    0    0  502    0  0.00000000000E+00  0.00000000000E+00  0.25851142463E+03  0.25851142463E+03  0.00000000000E+00 0.  1.
         13   -1    0    0    0    0 -0.00000000000E+00 -0.00000000000E+00 -0.27500000000E+03  0.27500000000E+03  0.00000000000E+00 0.  1.
    9000005    2    1    2  501    0  0.30649478902E+02 -0.10045587235E+02 -0.66595065050E+02  0.47392145326E+03  0.46810932141E+03 0.  0.
         13    1    3    3    0    0  0.60112529330E+02 -0.20939257913E+03  0.71896003351E+02  0.22940750571E+03  0.00000000000E+00 0.  1.
          1    1    3    3  501    0 -0.29463050428E+02  0.19934699190E+03 -0.13849106840E+03  0.24451394755E+03  0.00000000000E+00 0.  1.
         21    1    1    2  502  501 -0.30649478902E+02  0.10045587235E+02  0.50106489675E+02  0.59589971366E+02  0.00000000000E+00 0.  1.
<scales pt_clust_4="550.00000" pt_clust_5="550.00000" pt_clust_6="32.25375"></scales>
<mgrwt>
<rscale>  0 0.30000000E+03</rscale>
<asrwt>  1 0.32253750E+02</asrwt>
<pdfrwt beam="1">  1        1 0.94004154E+00 0.30000000E+03</pdfrwt>
<pdfrwt beam="2">0</pdfrwt>
<totfact> 0.19423464E-05</totfact>
</mgrwt>
<clustering>
<clus scale="   32.254">  1  6  2 -1</clus>
<clus scale="  468.109">  4  5 -1 -1</clus>
<clus scale="  300.000">  1  4  2 -1</clus>
</clustering>
</event>
<event>
 6    1  0.9462926E-012  0.3000000E+03  0.7818608E-02  0.1093470E+00
          1   -1    0    0  502    0  0.00000000000E+00  0.00000000000E+00  0.23381791975E+03  0.23381791975E+03  0.00000000000E+00 0.  1.
         13   -1    0    0    0    0 -0.00000000000E+00 -0.00000000000E+00 -0.27500000000E+03  0.27500000000E+03  0.00000000000E+00 0.  1.
    9000005    2    1    2  501    0  0.10097869752E+02  0.34987534864E+02 -0.62148125087E+02  0.46679804820E+03  0.46120704004E+03 0.  0.
         13    1    3    3    0    0 -0.64722069142E+01  0.24489839161E+03  0.72546838359E+01  0.24509129343E+03  0.00000000000E+00 0.  1.
          3    1    3    3  501    0  0.16570076666E+02 -0.20991085675E+03 -0.69402808923E+02  0.22170675477E+03  0.00000000000E+00 0.  1.
         21    1    1    2  502  501 -0.10097869752E+02 -0.34987534864E+02  0.20966044839E+02  0.42019871556E+02  0.00000000000E+00 0.  1.
<scales pt_clust_4="550.00000" pt_clust_5="550.00000" pt_clust_6="36.41558"></scales>
<mgrwt>
<rscale>  0 0.30000000E+03</rscale>
<asrwt>  1 0.36415581E+02</asrwt>
<pdfrwt beam="1">  1        1 0.85024698E+00 0.30000000E+03</pdfrwt>
<pdfrwt beam="2">0</pdfrwt>
<totfact> 0.40183760E-04</totfact>
</mgrwt>
<clustering>
<clus scale="   36.416">  1  6  2 -1</clus>
<clus scale="  461.207">  4  5 -1 -1</clus>
<clus scale="  300.000">  1  4  2 -1</clus>
</clustering>
</event>
<event>
 6    1  0.9462926E-012  0.3000000E+03  0.7818608E-02  0.1093470E+00
          1   -1    0    0  502    0  0.00000000000E+00  0.00000000000E+00  0.24797058839E+03  0.24797058839E+03  0.00000000000E+00 0.  1.
         13   -1    0    0    0    0 -0.00000000000E+00 -0.00000000000E+00 -0.27500000000E+03  0.27500000000E+03  0.00000000000E+00 0.  1.
    9000005    2    1    2  501    0 -0.24398317028E+02 -0.30790958496E+02 -0.27965933574E+02  0.48367379371E+03  0.48126384061E+03 0.  0.
         13    1    3    3    0    0 -0.13724349983E+03  0.15056689874E+03  0.10788541518E+03  0.23053293051E+03  0.00000000000E+00 0.  1.
          3    1    3    3  501    0  0.11284518280E+03 -0.18135785724E+03 -0.13585134875E+03  0.25314086320E+03  0.00000000000E+00 0.  1.
         21    1    1    2  502  501  0.24398317028E+02  0.30790958496E+02  0.93652196436E+00  0.39296794682E+02  0.00000000000E+00 0.  1.
<scales pt_clust_4="550.00000" pt_clust_5="550.00000" pt_clust_6="39.28563"></scales>
<mgrwt>
<rscale>  0 0.30000000E+03</rscale>
<asrwt>  1 0.39285633E+02</asrwt>
<pdfrwt beam="1">  1        1 0.90171123E+00 0.30000000E+03</pdfrwt>
<pdfrwt beam="2">0</pdfrwt>
<totfact> 0.10257777E-04</totfact>
</mgrwt>
<clustering>
<clus scale="   39.286">  1  6  2 -1</clus>
<clus scale="  481.264">  4  5 -1 -1</clus>
<clus scale="  300.000">  1  4  2 -1</clus>
</clustering>
</event>
<event>
 6    1  0.9462926E-012  0.3000000E+03  0.7818608E-02  0.1093470E+00
          1   -1    0    0  502    0  0.00000000000E+00  0.00000000000E+00  0.24225470773E+03  0.24225470773E+03  0.00000000000E+00 0.  1.
         13   -1    0    0    0    0 -0.00000000000E+00 -0.00000000000E+00 -0.27500000000E+03  0.27500000000E+03  0.00000000000E+00 0.  1.
    9000005    2    1    2  501    0  0.76253427084E+01 -0.29838693279E+02 -0.60824142433E+02  0.47557839198E+03  0.47066626940E+03 0.  0.
         13    1    3    3    0    0  0.11993873912E+03  0.90764793706E+02  0.14701793313E+03  0.21032789064E+03  0.00000000000E+00 0.  1.
          3    1    3    3  501    0 -0.11231339641E+03 -0.12060348698E+03 -0.20784207557E+03  0.26525050134E+03  0.00000000000E+00 0.  1.
         21    1    1    2  502  501 -0.76253427084E+01  0.29838693279E+02  0.28078850168E+02  0.41676315754E+02  0.00000000000E+00 0.  1.
<scales pt_clust_4="550.00000" pt_clust_5="550.00000" pt_clust_6="30.79762"></scales>
<mgrwt>
<rscale>  0 0.30000000E+03</rscale>
<asrwt>  1 0.30797621E+02</asrwt>
<pdfrwt beam="1">  1        1 0.88092621E+00 0.30000000E+03</pdfrwt>
<pdfrwt beam="2">0</pdfrwt>
<totfact> 0.19689536E-04</totfact>
</mgrwt>
<clustering>
<clus scale="   30.798">  1  6  2 -1</clus>
<clus scale="  470.666">  4  5 -1 -1</clus>
<clus scale="  300.000">  1  4  2 -1</clus>
</clustering>
</event>
<event>
 6    1  0.9462926E-012  0.3000000E+03  0.7818608E-02  0.1093470E+00
          1   -1    0    0  502    0  0.00000000000E+00  0.00000000000E+00  0.22373839728E+03  0.22373839728E+03  0.00000000000E+00 0.  1.
         13   -1    0    0    0    0 -0.00000000000E+00 -0.00000000000E+00 -0.27500000000E+03  0.27500000000E+03  0.00000000000E+00 0.  1.
    9000005    2    1    2  501    0 -0.13534426502E+02  0.30451952099E+02 -0.52111196551E+02  0.46540337221E+03  0.46127456029E+03 0.  0.
         13    1    3    3    0    0  0.18930668415E+03 -0.78372891656E+02  0.54071791768E+02  0.21190349095E+03  0.00000000000E+00 0.  1.
          1    1    3    3  501    0 -0.20284111065E+03  0.10882484375E+03 -0.10618298832E+03  0.25349988126E+03  0.00000000000E+00 0.  1.
         21    1    1    2  502  501  0.13534426502E+02 -0.30451952099E+02  0.84959383596E+00  0.33335025079E+02  0.00000000000E+00 0. -1.
<scales pt_clust_4="550.00000" pt_clust_5="550.00000" pt_clust_6="33.32420"></scales>
<mgrwt>
<rscale>  0 0.30000000E+03</rscale>
<asrwt>  1 0.33324197E+02</asrwt>
<pdfrwt beam="1">  1        1 0.81359417E+00 0.30000000E+03</pdfrwt>
<pdfrwt beam="2">0</pdfrwt>
<totfact> 0.82458731E-04</totfact>
</mgrwt>
<clustering>
<clus scale="   33.324">  1  6  2 -1</clus>
<clus scale="  461.275">  4  5 -1 -1</clus>
<clus scale="  300.000">  1  4  2 -1</clus>
</clustering>
</event>
<event>
 6    1  0.9462926E-012  0.3000000E+03  0.7818608E-02  0.1093470E+00
          1   -1    0    0  502    0  0.00000000000E+00  0.00000000000E+00  0.24430534722E+03  0.24430534722E+03  0.00000000000E+00 0.  1.
         13   -1    0    0    0    0 -0.00000000000E+00 -0.00000000000E+00 -0.27500000000E+03  0.27500000000E+03  0.00000000000E+00 0.  1.
    9000005    2    1    2  501    0  0.21975093617E+02  0.27117167427E+02 -0.70296069699E+02  0.46651787020E+03  0.45986861198E+03 0.  0.
         13    1    3    3    0    0  0.28457033048E+02  0.16401732078E+03  0.13864191353E+03  0.21664040350E+03  0.00000000000E+00 0.  1.
          1    1    3    3  501    0 -0.64819394308E+01 -0.13690015335E+03 -0.20893798323E+03  0.24987746669E+03  0.00000000000E+00 0.  1.
         21    1    1    2  502  501 -0.21975093617E+02 -0.27117167427E+02  0.39601416922E+02  0.52787477028E+02  0.00000000000E+00 0. -1.
<scales pt_clust_4="550.00000" pt_clust_5="550.00000" pt_clust_6="34.90337"></scales>
<mgrwt>
<rscale>  0 0.30000000E+03</rscale>
<asrwt>  1 0.34903374E+02</asrwt>
<pdfrwt beam="1">  1        1 0.88838308E+00 0.30000000E+03</pdfrwt>
<pdfrwt beam="2">0</pdfrwt>
<totfact> 0.15251851E-04</totfact>
</mgrwt>
<clustering>
<clus scale="   34.903">  1  6  2 -1</clus>
<clus scale="  459.869">  4  5 -1 -1</clus>
<clus scale="  300.000">  1  4  2 -1</clus>
</clustering>
</event>
<event>
 6    1  0.9462926E-012  0.3000000E+03  0.7818608E-02  0.1093470E+00
          1   -1    0    0  502    0  0.00000000000E+00  0.00000000000E+00  0.22407408573E+03  0.22407408573E+03  0.00000000000E+00 0.  1.
         13   -1    0    0    0    0 -0.00000000000E+00 -0.00000000000E+00 -0.27500000000E+03  0.27500000000E+03  0.00000000000E+00 0.  1.
    9000005    2    1    2  501    0  0.12369919678E+02  0.28276209527E+02 -0.57717688506E+02  0.46747207416E+03  0.46286742121E+03 0.  0.
         13    1    3    3    0    0  0.17641146302E+03  0.46758541256E+02  0.12501506627E+03  0.22121512665E+03  0.00000000000E+00 0.  1.
          3    1    3    3  501    0 -0.16404154334E+03 -0.18482331729E+02 -0.18273275477E+03  0.24625694751E+03  0.00000000000E+00 0.  1.
         21    1    1    2  502  501 -0.12369919678E+02 -0.28276209527E+02  0.67917742372E+01  0.31602011571E+02  0.00000000000E+00 0.  1.
<scales pt_clust_4="550.00000" pt_clust_5="550.00000" pt_clust_6="30.86355"></scales>
<mgrwt>
<rscale>  0 0.30000000E+03</rscale>
<asrwt>  1 0.30863554E+02</asrwt>
<pdfrwt beam="1">  1        1 0.81481486E+00 0.30000000E+03</pdfrwt>
<pdfrwt beam="2">0</pdfrwt>
<totfact> 0.81802881E-04</totfact>
</mgrwt>
<clustering>
<clus scale="   30.864">  1  6  2 -1</clus>
<clus scale="  462.867">  4  5 -1 -1</clus>
<clus scale="  300.000">  1  4  2 -1</clus>
</clustering>
</event>
<event>
 6    1  0.9462926E-012  0.3000000E+03  0.7818608E-02  0.1093470E+00
          1   -1    0    0  502    0  0.00000000000E+00  0.00000000000E+00  0.26894066933E+03  0.26894066933E+03  0.00000000000E+00 0.  1.
         13   -1    0    0    0    0 -0.00000000000E+00 -0.00000000000E+00 -0.27500000000E+03  0.27500000000E+03  0.00000000000E+00 0.  1.
    9000005    2    1    2  501    0 -0.26853937326E+02 -0.32688213242E+02 -0.41201668920E+02  0.48894396786E+03  0.48536478339E+03 0.  0.
         13    1    3    3    0    0 -0.19614093470E+03 -0.70541934713E+02 -0.17316546828E+03  0.27098654989E+03  0.00000000000E+00 0.  1.
          1    1    3    3  501    0  0.16928699737E+03  0.37853721471E+02  0.13196379936E+03  0.21795741797E+03  0.00000000000E+00 0.  1.
         21    1    1    2  502  501  0.26853937326E+02  0.32688213242E+02  0.35142338254E+02  0.54996701472E+02  0.00000000000E+00 0. -1.
<scales pt_clust_4="550.00000" pt_clust_5="550.00000" pt_clust_6="42.30429"></scales>
<mgrwt>
<rscale>  0 0.30000000E+03</rscale>
<asrwt>  1 0.42304293E+02</asrwt>
<pdfrwt beam="1">  1        1 0.97796607E+00 0.30000000E+03</pdfrwt>
<pdfrwt beam="2">0</pdfrwt>
<totfact> 0.32763730E-06</totfact>
</mgrwt>
<clustering>
<clus scale="   42.304">  1  6  2 -1</clus>
<clus scale="  485.365">  4  5 -1 -1</clus>
<clus scale="  300.000">  1  4  2 -1</clus>
</clustering>
</event>
<event>
 6    1  0.9462926E-012  0.3000000E+03  0.7818608E-02  0.1093470E+00
          1   -1    0    0  502    0  0.00000000000E+00  0.00000000000E+00  0.22831209389E+03  0.22831209389E+03  0.00000000000E+00 0.  1.
         13   -1    0    0    0    0 -0.00000000000E+00 -0.00000000000E+00 -0.27500000000E+03  0.27500000000E+03  0.00000000000E+00 0.  1.
    9000005    2    1    2  501    0 -0.78084158210E+01  0.29987654499E+02 -0.19770964219E+02  0.46226635671E+03  0.46080262884E+03 0.  0.
         13    1    3    3    0    0 -0.18933596215E+02 -0.62046461540E+02  0.20718699317E+03  0.21710526156E+03  0.00000000000E+00 0.  1.
          3    1    3    3  501    0  0.11125180394E+02  0.92034116040E+02 -0.22695795739E+03  0.24516109516E+03  0.00000000000E+00 0.  1.
         21    1    1    2  502  501  0.78084158210E+01 -0.29987654499E+02 -0.26916941888E+02  0.41045737179E+02  0.00000000000E+00 0.  1.
<scales pt_clust_4="550.00000" pt_clust_5="550.00000" pt_clust_6="30.98761"></scales>
<mgrwt>
<rscale>  0 0.30000000E+03</rscale>
<asrwt>  1 0.30987606E+02</asrwt>
<pdfrwt beam="1">  1        1 0.83022580E+00 0.30000000E+03</pdfrwt>
<pdfrwt beam="2">0</pdfrwt>
<totfact> 0.60220352E-04</totfact>
</mgrwt>
<clustering>
<clus scale="   30.988">  1  6  2 -1</clus>
<clus scale="  460.803">  4  5 -1 -1</clus>
<clus scale="  300.000">  1  4  2 -1</clus>
</clustering>
</event>
<event>
 6    1  0.9462926E-012  0.3000000E+03  0.7818608E-02  0.1093470E+00
          1   -1    0    0  502    0  0.00000000000E+00  0.00000000000E+00  0.22504159109E+03  0.22504159109E+03  0.00000000000E+00 0.  1.
         13   -1    0    0    0    0 -0.00000000000E+00 -0.00000000000E+00 -0.27500000000E+03  0.27500000000E+03  0.00000000000E+00 0.  1.
    9000005    2    1    2  501    0 -0.12585479058E+02  0.30980952440E+02 -0.65837105896E+02  0.46302339671E+03  0.45709728471E+03 0.  0.
         13    1    3    3    0    0  0.90340466040E+02  0.20987797312E+03 -0.10741592507E+03  0.25248434479E+03  0.00000000000E+00 0.  1.
          1    1    3    3  501    0 -0.10292594510E+03 -0.17889702068E+03  0.41578819174E+02  0.21053905192E+03  0.00000000000E+00 0.  1.
         21    1    1    2  502  501  0.12585479058E+02 -0.30980952440E+02  0.15878696988E+02  0.37018194381E+02  0.00000000000E+00 0. -1.
<scales pt_clust_4="550.00000" pt_clust_5="550.00000" pt_clust_6="33.43970"></scales>
<mgrwt>
<rscale>  0 0.30000000E+03</rscale>
<asrwt>  1 0.33439702E+02</asrwt>
<pdfrwt beam="1">  1        1 0.81833306E+00 0.30000000E+03</pdfrwt>
<pdfrwt beam="2">0</pdfrwt>
<totfact> 0.75382565E-04</totfact>
</mgrwt>
<clustering>
<clus scale="   33.440">  1  6  2 -1</clus>
<clus scale="  457.097">  4  5 -1 -1</clus>
<clus scale="  300.000">  1  4  2 -1</clus>
</clustering>
</event>
<event>
 6    1  0.9462926E-012  0.3000000E+03  0.7818608E-02  0.1093470E+00
          1   -1    0    0  502    0  0.00000000000E+00  0.00000000000E+00  0.23907739439E+03  0.23907739439E+03  0.00000000000E+00 0.  1.
         13   -1    0    0    0    0 -0.00000000000E+00 -0.00000000000E+00 -0.27500000000E+03  0.27500000000E+03  0.00000000000E+00 0.  1.
    9000005    2    1    2  501    0 -0.32120579241E+02 -0.13989680801E+02 -0.39708057949E+02  0.47883860285E+03  0.47590149709E+03 0.  0.
         13    1    3    3    0    0  0.98142807962E+02 -0.44496073895E+02  0.18686782238E+03  0.21571160003E+03  0.00000000000E+00 0.  1.
          1    1    3    3  501    0 -0.13026338720E+03  0.30506393093E+02 -0.22657588033E+03  0.26312700282E+03  0.00000000000E+00 0.  1.
         21    1    1    2  502  501  0.32120579241E+02  0.13989680801E+02  0.37854523419E+01  0.35238791539E+02  0.00000000000E+00 0.  1.
<scales pt_clust_4="550.00000" pt_clust_5="550.00000" pt_clust_6="35.03488"></scales>
<mgrwt>
<rscale>  0 0.30000000E+03</rscale>
<asrwt>  1 0.35034879E+02</asrwt>
<pdfrwt beam="1">  1        1 0.86937234E+00 0.30000000E+03</pdfrwt>
<pdfrwt beam="2">0</pdfrwt>
<totfact> 0.25698054E-04</totfact>
</mgrwt>
<clustering>
<clus scale="   35.035">  1  6  2 -1</clus>
<clus scale="  475.901">  4  5 -1 -1</clus>
<clus scale="  300.000">  1  4  2 -1</clus>
</clustering>
</event>
<event>
 6    1  0.9462926E-012  0.3000000E+03  0.7818608E-02  0.1093470E+00
          1   -1    0    0  502    0  0.00000000000E+00  0.00000000000E+00  0.24604072558E+03  0.24604072558E+03  0.00000000000E+00 0.  1.
         13   -1    0    0    0    0 -0.00000000000E+00 -0.00000000000E+00 -0.27500000000E+03  0.27500000000E+03  0.00000000000E+00 0.  1.
    9000005    2    1    2  501    0 -0.87189606857E+01  0.32752846118E+02 -0.72122378108E+02  0.46616064974E+03  0.45929875325E+03 0.  0.
         13    1    3    3    0    0 -0.15996370669E+03  0.17087612236E+03 -0.10873495267E+03  0.25808976458E+03  0.00000000000E+00 0.  1.
          1    1    3    3  501    0  0.15124474601E+03 -0.13812327624E+03  0.36612574560E+02  0.20807088516E+03  0.00000000000E+00 0.  1.
         21    1    1    2  502  501  0.87189606857E+01 -0.32752846118E+02  0.43163103684E+02  0.54880075837E+02  0.00000000000E+00 0.  1.
<scales pt_clust_4="550.00000" pt_clust_5="550.00000" pt_clust_6="33.89350"></scales>
<mgrwt>
<rscale>  0 0.30000000E+03</rscale>
<asrwt>  1 0.33893498E+02</asrwt>
<pdfrwt beam="1">  1        1 0.89469355E+00 0.30000000E+03</pdfrwt>
<pdfrwt beam="2">0</pdfrwt>
<totfact> 0.12786497E-04</totfact>
</mgrwt>
<clustering>
<clus scale="   33.893">  1  6  2 -1</clus>
<clus scale="  459.299">  4  5 -1 -1</clus>
<clus scale="  300.000">  1  4  2 -1</clus>
</clustering>
</event>
<event>
 6    1  0.9462926E-012  0.3000000E+03  0.7818608E-02  0.1093470E+00
          1   -1    0    0  502    0  0.00000000000E+00  0.00000000000E+00  0.22615812904E+03  0.22615812904E+03  0.00000000000E+00 0.  1.
         13   -1    0    0    0    0 -0.00000000000E+00 -0.00000000000E+00 -0.27500000000E+03  0.27500000000E+03  0.00000000000E+00 0.  1.
    9000005    2    1    2  501    0  0.30785843195E+02  0.12294363564E+02 -0.68742886666E+02  0.46249328787E+03  0.45615297581E+03 0.  0.
         13    1    3    3    0    0  0.22680399636E+03 -0.72194399141E+02  0.73826318831E+00  0.23801812760E+03  0.00000000000E+00 0.  1.
          1    1    3    3  501    0 -0.19601815316E+03  0.84488762705E+02 -0.69481149854E+02  0.22447516027E+03  0.00000000000E+00 0.  1.
         21    1    1    2  502  501 -0.30785843195E+02 -0.12294363564E+02  0.19901015705E+02  0.38664841171E+02  0.00000000000E+00 0. -1.
<scales pt_clust_4="550.00000" pt_clust_5="550.00000" pt_clust_6="33.14996"></scales>
<mgrwt>
<rscale>  0 0.30000000E+03</rscale>
<asrwt>  1 0.33149955E+02</asrwt>
<pdfrwt beam="1">  1        1 0.82239320E+00 0.30000000E+03</pdfrwt>
<pdfrwt beam="2">0</pdfrwt>
<totfact> 0.69618267E-04</totfact>
</mgrwt>
<clustering>
<clus scale="   33.150">  1  6  2 -1</clus>
<clus scale="  456.153">  4  5 -1 -1</clus>
<clus scale="  300.000">  1  4  2 -1</clus>
</clustering>
</event>
<event>
 6    1  0.9462926E-012  0.3000000E+03  0.7818608E-02  0.1093470E+00
          1   -1    0    0  502    0  0.00000000000E+00  0.00000000000E+00  0.25581711429E+03  0.25581711429E+03  0.00000000000E+00 0.  1.
         13   -1    0    0    0    0 -0.00000000000E+00 -0.00000000000E+00 -0.27500000000E+03  0.27500000000E+03  0.00000000000E+00 0.  1.
    9000005    2    1    2  501    0  0.31927320129E+02  0.51916437449E+01 -0.70185730871E+02  0.47042177383E+03  0.46403049634E+03 0.  0.
         13    1    3    3    0    0 -0.97417155120E+02  0.13257042314E+03  0.12293490785E+03  0.20537285793E+03  0.00000000000E+00 0.  1.
          3    1    3    3  501    0  0.12934447525E+03 -0.12737877940E+03 -0.19312063872E+03  0.26504891590E+03  0.00000000000E+00 0.  1.
         21    1    1    2  502  501 -0.31927320129E+02 -0.51916437449E+01  0.51002845163E+02  0.60395340467E+02  0.00000000000E+00 0.  1.
<scales pt_clust_4="550.00000" pt_clust_5="550.00000" pt_clust_6="32.34667"></scales>
<mgrwt>
<rscale>  0 0.30000000E+03</rscale>
<asrwt>  1 0.32346668E+02</asrwt>
<pdfrwt beam="1">  1        1 0.93024405E+00 0.30000000E+03</pdfrwt>
<pdfrwt beam="2">0</pdfrwt>
<totfact> 0.26450517E-05</totfact>
</mgrwt>
<clustering>
<clus scale="   32.347">  1  6  2 -1</clus>
<clus scale="  464.030">  4  5 -1 -1</clus>
<clus scale="  300.000">  1  4  2 -1</clus>
</clustering>
</event>
<event>
 6    1  0.9462926E-012  0.3000000E+03  0.7818608E-02  0.1093470E+00
          1   -1    0    0  502    0  0.00000000000E+00  0.00000000000E+00  0.22355971243E+03  0.22355971243E+03  0.00000000000E+00 0.  1.
         13   -1    0    0    0    0 -0.00000000000E+00 -0.00000000000E+00 -0.27500000000E+03  0.27500000000E+03  0.00000000000E+00 0.  1.
    9000005    2    1    2  501    0 -0.92414292174E+01  0.31920397453E+02 -0.45700333561E+02  0.46483638431E+03  0.46138923688E+03 0.  0.
         13    1    3    3    0    0 -0.21376446460E+03 -0.20079064941E+02 -0.11391719503E+03  0.24305460806E+03  0.00000000000E+00 0.  1.
          3    1    3    3  501    0  0.20452303538E+03  0.51999462394E+02  0.68216861466E+02  0.22178177626E+03  0.00000000000E+00 0.  1.
         21    1    1    2  502  501  0.92414292174E+01 -0.31920397453E+02 -0.57399540049E+01  0.33723328121E+02  0.00000000000E+00 0.  1.
<scales pt_clust_4="550.00000" pt_clust_5="550.00000" pt_clust_6="33.23126"></scales>
<mgrwt>
<rscale>  0 0.30000000E+03</rscale>
<asrwt>  1 0.33231264E+02</asrwt>
<pdfrwt beam="1">  1        1 0.81294441E+00 0.30000000E+03</pdfrwt>
<pdfrwt beam="2">0</pdfrwt>
<totfact> 0.83492001E-04</totfact>
</mgrwt>
<clustering>
<clus scale="   33.231">  1  6  2 -1</clus>
<clus scale="  461.389">  4  5 -1 -1</clus>
<clus scale="  300.000">  1  4  2 -1</clus>
</clustering>
</event>
<event>
 6    1  0.9462926E-012  0.3000000E+03  0.7818608E-02  0.1093470E+00
          1   -1    0    0  502    0  0.00000000000E+00  0.00000000000E+00  0.22791120413E+03  0.22791120413E+03  0.00000000000E+00 0.  1.
         13   -1    0    0    0    0 -0.00000000000E+00 -0.00000000000E+00 -0.27500000000E+03  0.27500000000E+03  0.00000000000E+00 0.  1.
    9000005    2    1    2  501    0 -0.72318970669E+01  0.30460093802E+02 -0.51257432527E+02  0.47132805702E+03  0.46748550277E+03 0.  0.
         13    1    3    3    0    0  0.14801341093E+03 -0.15728351761E+03  0.21590279891E+02  0.21705348400E+03  0.00000000000E+00 0.  1.
          1    1    3    3  501    0 -0.15524530800E+03  0.18774361142E+03 -0.72847712418E+02  0.25427457303E+03  0.00000000000E+00 0.  1.
         21    1    1    2  502  501  0.72318970669E+01 -0.30460093802E+02  0.41686366551E+01  0.31583147107E+02  0.00000000000E+00 0.  1.
<scales pt_clust_4="550.00000" pt_clust_5="550.00000" pt_clust_6="31.30683"></scales>
<mgrwt>
<rscale>  0 0.30000000E+03</rscale>
<asrwt>  1 0.31306831E+02</asrwt>
<pdfrwt beam="1">  1        1 0.82876802E+00 0.30000000E+03</pdfrwt>
<pdfrwt beam="2">0</pdfrwt>
<totfact> 0.61816111E-04</totfact>
</mgrwt>
<clustering>
<clus scale="   31.307">  1  6  2 -1</clus>
<clus scale="  467.486">  4  5 -1 -1</clus>
<clus scale="  300.000">  1  4  2 -1</clus>
</clustering>
</event>
<event>
 6    1  0.9462926E-012  0.3000000E+03  0.7818608E-02  0.1093470E+00
          1   -1    0    0  502    0  0.00000000000E+00  0.00000000000E+00  0.26874972638E+03  0.26874972638E+03  0.00000000000E+00 0.  1.
         13   -1    0    0    0    0 -0.00000000000E+00 -0.00000000000E+00 -0.27500000000E+03  0.27500000000E+03  0.00000000000E+00 0.  1.
    9000005    2    1    2  501    0 -0.24060824667E+02 -0.20884304921E+02 -0.24146836628E+02  0.50720708768E+03  0.50562919476E+03 0.  0.
         13    1    3    3    0    0 -0.23451244870E+03 -0.12780748029E+03  0.16884613950E+02  0.26761152965E+03  0.00000000000E+00 0.  1.
          1    1    3    3  501    0  0.21045162404E+03  0.10692317537E+03 -0.41031450577E+02  0.23959555803E+03  0.00000000000E+00 0.  1.
         21    1    1    2  502  501  0.24060824667E+02  0.20884304921E+02  0.17896563005E+02  0.36542638699E+02  0.00000000000E+00 0.  1.
<scales pt_clust_4="550.00000" pt_clust_5="550.00000" pt_clust_6="31.86028"></scales>
<mgrwt>
<rscale>  0 0.30000000E+03</rscale>
<asrwt>  1 0.31860281E+02</asrwt>
<pdfrwt beam="1">  1        1 0.97727173E+00 0.30000000E+03</pdfrwt>
<pdfrwt beam="2">0</pdfrwt>
<totfact> 0.36293090E-06</totfact>
</mgrwt>
<clustering>
<clus scale="   31.860">  1  6  2 -1</clus>
<clus scale="  505.629">  4  5 -1 -1</clus>
<clus scale="  300.000">  1  4  2 -1</clus>
</clustering>
</event>
<event>
 6    1  0.9462926E-012  0.3000000E+03  0.7818608E-02  0.1093470E+00
          1   -1    0    0  502    0  0.00000000000E+00  0.00000000000E+00  0.23246129213E+03  0.23246129213E+03  0.00000000000E+00 0.  1.
         13   -1    0    0    0    0 -0.00000000000E+00 -0.00000000000E+00 -0.27500000000E+03  0.27500000000E+03  0.00000000000E+00 0.  1.
    9000005    2    1    2  501    0 -0.52858623058E+00  0.30840771356E+02 -0.23444027226E+02  0.47118403465E+03  0.46958847890E+03 0.  0.
         13    1    3    3    0    0  0.16498617882E+03  0.16334544995E+03 -0.89939963529E+02  0.24898066644E+03  0.00000000000E+00 0.  1.
          3    1    3    3  501    0 -0.16551476505E+03 -0.13250467860E+03  0.66495936303E+02  0.22220336821E+03  0.00000000000E+00 0.  1.
         21    1    1    2  502  501  0.52858623058E+00 -0.30840771356E+02 -0.19094680643E+02  0.36277257477E+02  0.00000000000E+00 0. -1.
<scales pt_clust_4="550.00000" pt_clust_5="550.00000" pt_clust_6="30.84532"></scales>
<mgrwt>
<rscale>  0 0.30000000E+03</rscale>
<asrwt>  1 0.30845316E+02</asrwt>
<pdfrwt beam="1">  1        1 0.84531379E+00 0.30000000E+03</pdfrwt>
<pdfrwt beam="2">0</pdfrwt>
<totfact> 0.45984015E-04</totfact>
</mgrwt>
<clustering>
<clus scale="   30.845">  1  6  2 -1</clus>
<clus scale="  469.588">  4  5 -1 -1</clus>
<clus scale="  300.000">  1  4  2 -1</clus>
</clustering>
</event>
<event>
 6    1  0.9462926E-012  0.3000000E+03  0.7818608E-02  0.1093470E+00
          1   -1    0    0  502    0  0.00000000000E+00  0.00000000000E+00  0.23575169003E+03  0.23575169003E+03  0.00000000000E+00 0.  1.
         13   -1    0    0    0    0 -0.00000000000E+00 -0.00000000000E+00 -0.27500000000E+03  0.27500000000E+03  0.00000000000E+00 0.  1.
    9000005    2    1    2  501    0 -0.37635172768E+01 -0.31135450631E+02 -0.40337757474E+02  0.47937068870E+03  0.47663984534E+03 0.  0.
         13    1    3    3    0    0 -0.18336863423E+03  0.12575772142E+03  0.43533663925E+02  0.22657060801E+03  0.00000000000E+00 0.  1.
          3    1    3    3  501    0  0.17960511695E+03 -0.15689317205E+03 -0.83871421399E+02  0.25280008070E+03  0.00000000000E+00 0.  1.
         21    1    1    2  502  501  0.37635172768E+01  0.31135450631E+02  0.10894475037E+01  0.31381001325E+02  0.00000000000E+00 0.  1.
<scales pt_clust_4="550.00000" pt_clust_5="550.00000" pt_clust_6="31.36208"></scales>
<mgrwt>
<rscale>  0 0.30000000E+03</rscale>
<asrwt>  1 0.31362085E+02</asrwt>
<pdfrwt beam="1">  1        1 0.85727887E+00 0.30000000E+03</pdfrwt>
<pdfrwt beam="2">0</pdfrwt>
<totfact> 0.35272049E-04</totfact>
</mgrwt>
<clustering>
<clus scale="   31.362">  1  6  2 -1</clus>
<clus scale="  476.640">  4  5 -1 -1</clus>
<clus scale="  300.000">  1  4  2 -1</clus>
</clustering>
</event>
<event>
 6    1  0.9462926E-012  0.3000000E+03  0.7818608E-02  0.1093470E+00
          1   -1    0    0  502    0  0.00000000000E+00  0.00000000000E+00  0.26924235745E+03  0.26924235745E+03  0.00000000000E+00 0.  1.
         13   -1    0    0    0    0 -0.00000000000E+00 -0.00000000000E+00 -0.27500000000E+03  0.27500000000E+03  0.00000000000E+00 0.  1.
    9000005    2    1    2  501    0 -0.20798031854E+02 -0.46112417757E+02  0.26309443730E+02  0.48434902541E+03  0.48098116220E+03 0.  0.
         13    1    3    3    0    0  0.22311231241E+03  0.21527353359E+02  0.51483196573E+02  0.22998489172E+03  0.00000000000E+00 0.  1.
          1    1    3    3  501    0 -0.24391034426E+03 -0.67639771116E+02 -0.25173752843E+02  0.25436413369E+03  0.00000000000E+00 0.  1.
         21    1    1    2  502  501  0.20798031854E+02  0.46112417757E+02 -0.32067086278E+02  0.59893332039E+02  0.00000000000E+00 0.  1.
<scales pt_clust_4="550.00000" pt_clust_5="550.00000" pt_clust_6="50.58573"></scales>
<mgrwt>
<rscale>  0 0.30000000E+03</rscale>
<asrwt>  1 0.50585727E+02</asrwt>
<pdfrwt beam="1">  1        1 0.97906312E+00 0.30000000E+03</pdfrwt>
<pdfrwt beam="2">0</pdfrwt>
<totfact> 0.29095479E-06</totfact>
</mgrwt>
<clustering>
<clus scale="   50.586">  1  6  2 -1</clus>
<clus scale="  480.981">  4  5 -1 -1</clus>
<clus scale="  300.000">  1  4  2 -1</clus>
</clustering>
</event>
<event>
 6    1  0.9462926E-012  0.3000000E+03  0.7818608E-02  0.1093470E+00
          1   -1    0    0  502    0  0.00000000000E+00  0.00000000000E+00  0.24577691350E+03  0.24577691350E+03  0.00000000000E+00 0.  1.
         13   -1    0    0    0    0 -0.00000000000E+00 -0.00000000000E+00 -0.27500000000E+03  0.27500000000E+03  0.00000000000E+00 0.  1.
    9000005    2    1    2  501    0 -0.32357866839E+02 -0.19850035953E+02 -0.57326347383E+02  0.47354505195E+03  0.46852700098E+03 0.  0.
         13    1    3    3    0    0  0.70933089546E+02 -0.61384940073E+02 -0.24108550524E+03  0.25869254898E+03  0.00000000000E+00 0.  1.
          1    1    3    3  501    0 -0.10329095639E+03  0.41534904120E+02  0.18375915786E+03  0.21485250296E+03  0.00000000000E+00 0.  1.
         21    1    1    2  502  501  0.32357866839E+02  0.19850035953E+02  0.28103260883E+02  0.47231861555E+02  0.00000000000E+00 0. -1.
<scales pt_clust_4="550.00000" pt_clust_5="550.00000" pt_clust_6="37.96124"></scales>
<mgrwt>
<rscale>  0 0.30000000E+03</rscale>
<asrwt>  1 0.37961236E+02</asrwt>
<pdfrwt beam="1">  1        1 0.89373423E+00 0.30000000E+03</pdfrwt>
<pdfrwt beam="2">0</pdfrwt>
<totfact> 0.12838291E-04</totfact>
</mgrwt>
<clustering>
<clus scale="   37.961">  1  6  2 -1</clus>
<clus scale="  468.527">  4  5 -1 -1</clus>
<clus scale="  300.000">  1  4  2 -1</clus>
</clustering>
</event>
<event>
 6    1  0.9462926E-012  0.3000000E+03  0.7818608E-02  0.1093470E+00
          1   -1    0    0  502    0  0.00000000000E+00  0.00000000000E+00  0.22527254841E+03  0.22527254841E+03  0.00000000000E+00 0.  1.
         13   -1    0    0    0    0 -0.00000000000E+00 -0.00000000000E+00 -0.27500000000E+03  0.27500000000E+03  0.00000000000E+00 0.  1.
    9000005    2    1    2  501    0 -0.27656112692E+02  0.14078033059E+02 -0.46101937688E+02  0.46902841400E+03  0.46572439586E+03 0.  0.
         13    1    3    3    0    0 -0.13071177825E+03  0.17331875218E+03  0.90591260744E+02  0.23522698687E+03  0.00000000000E+00 0.  1.
          3    1    3    3  501    0  0.10305566556E+03 -0.15924071912E+03 -0.13669319843E+03  0.23380142713E+03  0.00000000000E+00 0.  1.
         21    1    1    2  502  501  0.27656112692E+02 -0.14078033059E+02 -0.36255138989E+01  0.31244134411E+02  0.00000000000E+00 0.  1.
<scales pt_clust_4="550.00000" pt_clust_5="550.00000" pt_clust_6="31.03309"></scales>
<mgrwt>
<rscale>  0 0.30000000E+03</rscale>
<asrwt>  1 0.31033088E+02</asrwt>
<pdfrwt beam="1">  1        1 0.81917290E+00 0.30000000E+03</pdfrwt>
<pdfrwt beam="2">0</pdfrwt>
<totfact> 0.75216040E-04</totfact>
</mgrwt>
<clustering>
<clus scale="   31.033">  1  6  2 -1</clus>
<clus scale="  465.724">  4  5 -1 -1</clus>
<clus scale="  300.000">  1  4  2 -1</clus>
</clustering>
</event>
<event>
 6    1  0.9462926E-012  0.3000000E+03  0.7818608E-02  0.1093470E+00
          1   -1    0    0  502    0  0.00000000000E+00  0.00000000000E+00  0.24057130939E+03  0.24057130939E+03  0.00000000000E+00 0.  1.
         13   -1    0    0    0    0 -0.00000000000E+00 -0.00000000000E+00 -0.27500000000E+03  0.27500000000E+03  0.00000000000E+00 0.  1.
    9000005    2    1    2  501    0  0.60679016155E+01  0.35144043018E+02 -0.20932730429E+02  0.47743911655E+03  0.47564483348E+03 0.  0.
         13    1    3    3    0    0 -0.13560762789E+03 -0.17041655602E+03  0.37615626392E+02  0.22101168895E+03  0.00000000000E+00 0.  1.
          1    1    3    3  501    0  0.14167552950E+03  0.20556059903E+03 -0.58548356822E+02  0.25642742759E+03  0.00000000000E+00 0.  1.
         21    1    1    2  502  501 -0.60679016155E+01 -0.35144043018E+02 -0.13495960183E+02  0.38132192841E+02  0.00000000000E+00 0.  1.
<scales pt_clust_4="550.00000" pt_clust_5="550.00000" pt_clust_6="35.66405"></scales>
<mgrwt>
<rscale>  0 0.30000000E+03</rscale>
<asrwt>  1 0.35664050E+02</asrwt>
<pdfrwt beam="1">  1        1 0.87480476E+00 0.30000000E+03</pdfrwt>
<pdfrwt beam="2">0</pdfrwt>
<totfact> 0.22520610E-04</totfact>
</mgrwt>
<clustering>
<clus scale="   35.664">  1  6  2 -1</clus>
<clus scale="  475.645">  4  5 -1 -1</clus>
<clus scale="  300.000">  1  4  2 -1</clus>
</clustering>
</event>
<event>
 6    1  0.9462926E-012  0.3000000E+03  0.7818608E-02  0.1093470E+00
          1   -1    0    0  502    0  0.00000000000E+00  0.00000000000E+00  0.25279158703E+03  0.25279158703E+03  0.00000000000E+00 0.  1.
         13   -1    0    0    0    0 -0.00000000000E+00 -0.00000000000E+00 -0.27500000000E+03  0.27500000000E+03  0.00000000000E+00 0.  1.
    9000005    2    1    2  501    0  0.51794133864E+01  0.46742992721E+02 -0.17659991269E+02  0.48054307560E+03  0.47791007368E+03 0.  0.
         13    1    3    3    0    0  0.14288299495E+02 -0.11221709590E+02 -0.24504087030E+03  0.24571347213E+03  0.00000000000E+00 0.  1.
          1    1    3    3  501    0 -0.91088861083E+01  0.57964702311E+02  0.22738087903E+03  0.23482960348E+03  0.00000000000E+00 0.  1.
         21    1    1    2  502  501 -0.51794133864E+01 -0.46742992721E+02 -0.45484217059E+01  0.47248511422E+02  0.00000000000E+00 0. -1.
<scales pt_clust_4="550.00000" pt_clust_5="550.00000" pt_clust_6="47.02910"></scales>
<mgrwt>
<rscale>  0 0.30000000E+03</rscale>
<asrwt>  1 0.47029096E+02</asrwt>
<pdfrwt beam="1">  1        1 0.91924213E+00 0.30000000E+03</pdfrwt>
<pdfrwt beam="2">0</pdfrwt>
<totfact> 0.41148804E-05</totfact>
</mgrwt>
<clustering>
<clus scale="   47.029">  1  6  2 -1</clus>
<clus scale="  477.910">  4  5 -1 -1</clus>
<clus scale="  300.000">  1  4  2 -1</clus>
</clustering>
</event>
<event>
 6    1  0.9462926E-012  0.3000000E+03  0.7818608E-02  0.1093470E+00
          1   -1    0    0  502    0  0.00000000000E+00  0.00000000000E+00  0.22599033326E+03  0.22599033326E+03  0.00000000000E+00 0.  1.
         13   -1    0    0    0    0 -0.00000000000E+00 -0.00000000000E+00 -0.27500000000E+03  0.27500000000E+03  0.00000000000E+00 0.  1.
    9000005    2    1    2  501    0 -0.32306838848E+02 -0.11999832959E+02 -0.66432378817E+02  0.46237325513E+03  0.45627627406E+03 0.  0.
         13    1    3    3    0    0 -0.56483946236E+02  0.92526135381E+02  0.17063594950E+03  0.20215872273E+03  0.00000000000E+00 0.  1.
          1    1    3    3  501    0  0.24177107388E+02 -0.10452596834E+03 -0.23706832832E+03  0.26021453240E+03  0.00000000000E+00 0.  1.
         21    1    1    2  502  501  0.32306838848E+02  0.11999832959E+02  0.17422712075E+02  0.38617078131E+02  0.00000000000E+00 0. -1.
<scales pt_clust_4="550.00000" pt_clust_5="550.00000" pt_clust_6="34.46343"></scales>
<mgrwt>
<rscale>  0 0.30000000E+03</rscale>
<asrwt>  1 0.34463427E+02</asrwt>
<pdfrwt beam="1">  1        1 0.82178303E+00 0.30000000E+03</pdfrwt>
<pdfrwt beam="2">0</pdfrwt>
<totfact> 0.69976962E-04</totfact>
</mgrwt>
<clustering>
<clus scale="   34.463">  1  6  2 -1</clus>
<clus scale="  456.276">  4  5 -1 -1</clus>
<clus scale="  300.000">  1  4  2 -1</clus>
</clustering>
</event>
<event>
 6    1  0.9462926E-012  0.3000000E+03  0.7818608E-02  0.1093470E+00
          1   -1    0    0  502    0  0.00000000000E+00  0.00000000000E+00  0.24513557437E+03  0.24513557437E+03  0.00000000000E+00 0.  1.
         13   -1    0    0    0    0 -0.00000000000E+00 -0.00000000000E+00 -0.27500000000E+03  0.27500000000E+03  0.00000000000E+00 0.  1.
    9000005    2    1    2  501    0 -0.27321379249E+02 -0.13770830399E+02 -0.44457189862E+02  0.48623804788E+03  0.48323379843E+03 0.  0.
         13    1    3    3    0    0  0.14238565736E+03 -0.97605780263E+02 -0.18307153443E+03  0.25162621183E+03  0.00000000000E+00 0.  1.
          3    1    3    3  501    0 -0.16970703661E+03  0.83834949864E+02  0.13861434457E+03  0.23461183605E+03  0.00000000000E+00 0.  1.
         21    1    1    2  502  501  0.27321379249E+02  0.13770830399E+02  0.14592764229E+02  0.33897526485E+02  0.00000000000E+00 0.  1.
<scales pt_clust_4="550.00000" pt_clust_5="550.00000" pt_clust_6="30.59565"></scales>
<mgrwt>
<rscale>  0 0.30000000E+03</rscale>
<asrwt>  1 0.30595646E+02</asrwt>
<pdfrwt beam="1">  1        1 0.89140209E+00 0.30000000E+03</pdfrwt>
<pdfrwt beam="2">0</pdfrwt>
<totfact> 0.14259452E-04</totfact>
</mgrwt>
<clustering>
<clus scale="   30.596">  1  6  2 -1</clus>
<clus scale="  483.234">  4  5 -1 -1</clus>
<clus scale="  300.000">  1  4  2 -1</clus>
</clustering>
</event>
<event>
 6    1  0.9462926E-012  0.3000000E+03  0.7818608E-02  0.1093470E+00
          1   -1    0    0  502    0  0.00000000000E+00  0.00000000000E+00  0.23223357538E+03  0.23223357538E+03  0.00000000000E+00 0.  1.
         13   -1    0    0    0    0 -0.00000000000E+00 -0.00000000000E+00 -0.27500000000E+03  0.27500000000E+03  0.00000000000E+00 0.  1.
    9000005    2    1    2  501    0  0.75142419983E+01 -0.38006528598E+02 -0.46507911218E+02  0.46831110410E+03  0.46438275632E+03 0.  0.
         13    1    3    3    0    0 -0.43916050504E+02 -0.48031592188E+02 -0.24992184435E+03  0.25825681331E+03  0.00000000000E+00 0.  1.
          3    1    3    3  501    0  0.51430292502E+02  0.10025063589E+02  0.20341393313E+03  0.21005429079E+03  0.00000000000E+00 0.  1.
         21    1    1    2  502  501 -0.75142419983E+01  0.38006528598E+02  0.37414865967E+01  0.38922471284E+02  0.00000000000E+00 0.  1.
<scales pt_clust_4="550.00000" pt_clust_5="550.00000" pt_clust_6="38.74223"></scales>
<mgrwt>
<rscale>  0 0.30000000E+03</rscale>
<asrwt>  1 0.38742226E+02</asrwt>
<pdfrwt beam="1">  1        1 0.84448573E+00 0.30000000E+03</pdfrwt>
<pdfrwt beam="2">0</pdfrwt>
<totfact> 0.44798960E-04</totfact>
</mgrwt>
<clustering>
<clus scale="   38.742">  1  6  2 -1</clus>
<clus scale="  464.383">  4  5 -1 -1</clus>
<clus scale="  300.000">  1  4  2 -1</clus>
</clustering>
</event>
<event>
 6    1  0.9462926E-012  0.3000000E+03  0.7818608E-02  0.1093470E+00
          1   -1    0    0  502    0  0.00000000000E+00  0.00000000000E+00  0.23342886465E+03  0.23342886465E+03  0.00000000000E+00 0.  1.
         13   -1    0    0    0    0 -0.00000000000E+00 -0.00000000000E+00 -0.27500000000E+03  0.27500000000E+03  0.00000000000E+00 0.  1.
    9000005    2    1    2  501    0  0.30104365754E+02 -0.20408267140E+02 -0.64340564762E+02  0.46551945868E+03  0.45961493441E+03 0.  0.
         13    1    3    3    0    0  0.23842993242E+03 -0.38943140700E+02 -0.83219119417E+02  0.25552068942E+03  0.00000000000E+00 0.  1.
          3    1    3    3  501    0 -0.20832556667E+03  0.18534873560E+02  0.18878554655E+02  0.20999876926E+03  0.00000000000E+00 0.  1.
         21    1    1    2  502  501 -0.30104365754E+02  0.20408267140E+02  0.22769429411E+02  0.42909405971E+02  0.00000000000E+00 0.  1.
<scales pt_clust_4="550.00000" pt_clust_5="550.00000" pt_clust_6="36.36991"></scales>
<mgrwt>
<rscale>  0 0.30000000E+03</rscale>
<asrwt>  1 0.36369908E+02</asrwt>
<pdfrwt beam="1">  1        1 0.84883224E+00 0.30000000E+03</pdfrwt>
<pdfrwt beam="2">0</pdfrwt>
<totfact> 0.41433744E-04</totfact>
</mgrwt>
<clustering>
<clus scale="   36.370">  1  6  2 -1</clus>
<clus scale="  459.615">  4  5 -1 -1</clus>
<clus scale="  300.000">  1  4  2 -1</clus>
</clustering>
</event>
<event>
 6    1  0.9462926E-012  0.3000000E+03  0.7818608E-02  0.1093470E+00
          1   -1    0    0  502    0  0.00000000000E+00  0.00000000000E+00  0.23936219533E+03  0.23936219533E+03  0.00000000000E+00 0.  1.
         13   -1    0    0    0    0 -0.00000000000E+00 -0.00000000000E+00 -0.27500000000E+03  0.27500000000E+03  0.00000000000E+00 0.  1.
    9000005    2    1    2  501    0  0.30297032243E+02  0.27042154342E+02 -0.37990066232E+02  0.47368392830E+03  0.47040836570E+03 0.  0.
         13    1    3    3    0    0 -0.12250113540E+02 -0.19813134553E+03 -0.11803188046E+03  0.23094938876E+03  0.00000000000E+00 0.  1.
          3    1    3    3  501    0  0.42547145783E+02  0.22517349987E+03  0.80041814230E+02  0.24273453954E+03  0.00000000000E+00 0.  1.
         21    1    1    2  502  501 -0.30297032243E+02 -0.27042154342E+02  0.23522615660E+01  0.40678267031E+02  0.00000000000E+00 0.  1.
<scales pt_clust_4="550.00000" pt_clust_5="550.00000" pt_clust_6="40.61020"></scales>
<mgrwt>
<rscale>  0 0.30000000E+03</rscale>
<asrwt>  1 0.40610199E+02</asrwt>
<pdfrwt beam="1">  1        1 0.87040798E+00 0.30000000E+03</pdfrwt>
<pdfrwt beam="2">0</pdfrwt>
<totfact> 0.24404484E-04</totfact>
</mgrwt>
<clustering>
<clus scale="   40.610">  1  6  2 -1</clus>
<clus scale="  470.408">  4  5 -1 -1</clus>
<clus scale="  300.000">  1  4  2 -1</clus>
</clustering>
</event>
<event>
 6    1  0.9462926E-012  0.3000000E+03  0.7818608E-02  0.1093470E+00
          1   -1    0    0  502    0  0.00000000000E+00  0.00000000000E+00  0.24310715865E+03  0.24310715865E+03  0.00000000000E+00 0.  1.
         13   -1    0    0    0    0 -0.00000000000E+00 -0.00000000000E+00 -0.27500000000E+03  0.27500000000E+03  0.00000000000E+00 0.  1.
    9000005    2    1    2  501    0 -0.14436097468E+02 -0.33095701035E+02 -0.53837852758E+02  0.47585423138E+03  0.47141808281E+03 0.  0.
         13    1    3    3    0    0  0.20285784788E+03 -0.50291099600E+02 -0.12862548721E+03  0.24540785869E+03  0.00000000000E+00 0.  1.
          1    1    3    3  501    0 -0.21729394535E+03  0.17195398565E+02  0.74787634455E+02  0.23044637269E+03  0.00000000000E+00 0.  1.
         21    1    1    2  502  501  0.14436097468E+02  0.33095701035E+02  0.21945011410E+02  0.42252927270E+02  0.00000000000E+00 0. -1.
<scales pt_clust_4="550.00000" pt_clust_5="550.00000" pt_clust_6="36.10715"></scales>
<mgrwt>
<rscale>  0 0.30000000E+03</rscale>
<asrwt>  1 0.36107151E+02</asrwt>
<pdfrwt beam="1">  1        1 0.88402603E+00 0.30000000E+03</pdfrwt>
<pdfrwt beam="2">0</pdfrwt>
<totfact> 0.17396003E-04</totfact>
</mgrwt>
<clustering>
<clus scale="   36.107">  1  6  2 -1</clus>
<clus scale="  471.418">  4  5 -1 -1</clus>
<clus scale="  300.000">  1  4  2 -1</clus>
</clustering>
</event>
<event>
 6    1  0.9462926E-012  0.3000000E+03  0.7818608E-02  0.1093470E+00
          1   -1    0    0  502    0  0.00000000000E+00  0.00000000000E+00  0.22785606345E+03  0.22785606345E+03  0.00000000000E+00 0.  1.
         13   -1    0    0    0    0 -0.00000000000E+00 -0.00000000000E+00 -0.27500000000E+03  0.27500000000E+03  0.00000000000E+00 0.  1.
    9000005    2    1    2  501    0 -0.27403037249E+02 -0.12845826496E+02 -0.73126721281E+02  0.46296813531E+03  0.45615352157E+03 0.  0.
         13    1    3    3    0    0 -0.35109915180E+01  0.20058265010E+03  0.61098889372E+02  0.20971123209E+03  0.00000000000E+00 0.  1.
          3    1    3    3  501    0 -0.23892045731E+02 -0.21342847660E+03 -0.13422561065E+03  0.25325690322E+03  0.00000000000E+00 0.  1.
         21    1    1    2  502  501  0.27403037249E+02  0.12845826496E+02  0.25982784727E+02  0.39887928136E+02  0.00000000000E+00 0. -1.
<scales pt_clust_4="550.00000" pt_clust_5="550.00000" pt_clust_6="30.26453"></scales>
<mgrwt>
<rscale>  0 0.30000000E+03</rscale>
<asrwt>  1 0.30264529E+02</asrwt>
<pdfrwt beam="1">  1        1 0.82856750E+00 0.30000000E+03</pdfrwt>
<pdfrwt beam="2">0</pdfrwt>
<totfact> 0.62464783E-04</totfact>
</mgrwt>
<clustering>
<clus scale="   30.265">  1  6  2 -1</clus>
<clus scale="  456.154">  4  5 -1 -1</clus>
<clus scale="  300.000">  1  4  2 -1</clus>
</clustering>
</event>
<event>
 6    1  0.9462926E-012  0.3000000E+03  0.7818608E-02  0.1093470E+00
          1   -1    0    0  502    0  0.00000000000E+00  0.00000000000E+00  0.23108017556E+03  0.23108017556E+03  0.00000000000E+00 0.  1.
         13   -1    0    0    0    0 -0.00000000000E+00 -0.00000000000E+00 -0.27500000000E+03  0.27500000000E+03  0.00000000000E+00 0.  1.
    9000005    2    1    2  501    0  0.22934479232E+01  0.31592503145E+02 -0.46954313871E+02  0.47425951742E+03  0.47086519951E+03 0.  0.
         13    1    3    3    0    0  0.88456194292E+02 -0.47800274254E+02 -0.23335534601E+03  0.25409463205E+03  0.00000000000E+00 0.  1.
          1    1    3    3  501    0 -0.86162746369E+02  0.79392777399E+02  0.18640103214E+03  0.22016488536E+03  0.00000000000E+00 0.  1.
         21    1    1    2  502  501 -0.22934479232E+01 -0.31592503145E+02  0.30344894270E+01  0.31820658139E+02  0.00000000000E+00 0.  1.
<scales pt_clust_4="550.00000" pt_clust_5="550.00000" pt_clust_6="31.67564"></scales>
<mgrwt>
<rscale>  0 0.30000000E+03</rscale>
<asrwt>  1 0.31675640E+02</asrwt>
<pdfrwt beam="1">  1        1 0.84029155E+00 0.30000000E+03</pdfrwt>
<pdfrwt beam="2">0</pdfrwt>
<totfact> 0.50388141E-04</totfact>
</mgrwt>
<clustering>
<clus scale="   31.676">  1  6  2 -1</clus>
<clus scale="  470.865">  4  5 -1 -1</clus>
<clus scale="  300.000">  1  4  2 -1</clus>
</clustering>
</event>
<event>
 6    1  0.9462926E-012  0.3000000E+03  0.7818608E-02  0.1093470E+00
          1   -1    0    0  502    0  0.00000000000E+00  0.00000000000E+00  0.22348046306E+03  0.22348046306E+03  0.00000000000E+00 0.  1.
         13   -1    0    0    0    0 -0.00000000000E+00 -0.00000000000E+00 -0.27500000000E+03  0.27500000000E+03  0.00000000000E+00 0.  1.
    9000005    2    1    2  501    0 -0.31024769368E+02  0.40490207367E+01 -0.64237678487E+02  0.46470647888E+03  0.45918046702E+03 0.  0.
         13    1    3    3    0    0  0.20834314866E+03 -0.16767942139E+02 -0.80271354498E+02  0.22390069636E+03  0.00000000000E+00 0.  1.
          3    1    3    3  501    0 -0.23936791803E+03  0.20816962876E+02  0.16033676011E+02  0.24080578251E+03  0.00000000000E+00 0.  1.
         21    1    1    2  502  501  0.31024769368E+02 -0.40490207367E+01  0.12718141550E+02  0.33773984185E+02  0.00000000000E+00 0. -1.
<scales pt_clust_4="550.00000" pt_clust_5="550.00000" pt_clust_6="31.28787"></scales>
<mgrwt>
<rscale>  0 0.30000000E+03</rscale>
<asrwt>  1 0.31287871E+02</asrwt>
<pdfrwt beam="1">  1        1 0.81265623E+00 0.30000000E+03</pdfrwt>
<pdfrwt beam="2">0</pdfrwt>
<totfact> 0.84899337E-04</totfact>
</mgrwt>
<clustering>
<clus scale="   31.288">  1  6  2 -1</clus>
<clus scale="  459.180">  4  5 -1 -1</clus>
<clus scale="  300.000">  1  4  2 -1</clus>
</clustering>
</event>
<event>
 6    1  0.9462926E-012  0.3000000E+03  0.7818608E-02  0.1093470E+00
          1   -1    0    0  502    0  0.00000000000E+00  0.00000000000E+00  0.24764946929E+03  0.24764946929E+03  0.00000000000E+00 0.  1.
         13   -1    0    0    0    0 -0.00000000000E+00 -0.00000000000E+00 -0.27500000000E+03  0.27500000000E+03  0.00000000000E+00 0.  1.
    9000005    2    1    2  501    0  0.24823893600E+01  0.31174751346E+02 -0.45430002993E+02  0.48652614308E+03  0.48338987924E+03 0.  0.
         13    1    3    3    0    0  0.24026294814E+03  0.45573365122E+02 -0.30278864310E+01  0.24456570478E+03  0.00000000000E+00 0.  1.
          1    1    3    3  501    0 -0.23778055878E+03 -0.14398613776E+02 -0.42402116562E+02  0.24196043830E+03  0.00000000000E+00 0.  1.
         21    1    1    2  502  501 -0.24823893600E+01 -0.31174751346E+02  0.18079472283E+02  0.36123326210E+02  0.00000000000E+00 0.  1.
<scales pt_clust_4="550.00000" pt_clust_5="550.00000" pt_clust_6="31.27343"></scales>
<mgrwt>
<rscale>  0 0.30000000E+03</rscale>
<asrwt>  1 0.31273429E+02</asrwt>
<pdfrwt beam="1">  1        1 0.90054352E+00 0.30000000E+03</pdfrwt>
<pdfrwt beam="2">0</pdfrwt>
<totfact> 0.11102820E-04</totfact>
</mgrwt>
<clustering>
<clus scale="   31.273">  1  6  2 -1</clus>
<clus scale="  483.390">  4  5 -1 -1</clus>
<clus scale="  300.000">  1  4  2 -1</clus>
</clustering>
</event>
<event>
 6    1  0.9462926E-012  0.3000000E+03  0.7818608E-02  0.1093470E+00
          1   -1    0    0  502    0  0.00000000000E+00  0.00000000000E+00  0.24117361644E+03  0.24117361644E+03  0.00000000000E+00 0.  1.
         13   -1    0    0    0    0 -0.00000000000E+00 -0.00000000000E+00 -0.27500000000E+03  0.27500000000E+03  0.00000000000E+00 0.  1.
    9000005    2    1    2  501    0 -0.26852918410E+02 -0.23983465539E+02 -0.40207921358E+02  0.47960847086E+03  0.47656198184E+03 0.  0.
         13    1    3    3    0    0 -0.18654258235E+03  0.78517018950E+02 -0.15756443124E+03  0.25649484846E+03  0.00000000000E+00 0.  1.
          1    1    3    3  501    0  0.15968966394E+03 -0.10250048449E+03  0.11735650988E+03  0.22311362240E+03  0.00000000000E+00 0.  1.
         21    1    1    2  502  501  0.26852918410E+02  0.23983465539E+02  0.63815377935E+01  0.36565145577E+02  0.00000000000E+00 0.  1.
<scales pt_clust_4="550.00000" pt_clust_5="550.00000" pt_clust_6="36.00397"></scales>
<mgrwt>
<rscale>  0 0.30000000E+03</rscale>
<asrwt>  1 0.36003970E+02</asrwt>
<pdfrwt beam="1">  1        1 0.87699497E+00 0.30000000E+03</pdfrwt>
<pdfrwt beam="2">0</pdfrwt>
<totfact> 0.21289266E-04</totfact>
</mgrwt>
<clustering>
<clus scale="   36.004">  1  6  2 -1</clus>
<clus scale="  476.562">  4  5 -1 -1</clus>
<clus scale="  300.000">  1  4  2 -1</clus>
</clustering>
</event>
<event>
 6    1  0.9462926E-012  0.3000000E+03  0.7818608E-02  0.1093470E+00
          1   -1    0    0  502    0  0.00000000000E+00  0.00000000000E+00  0.23634786580E+03  0.23634786580E+03  0.00000000000E+00 0.  1.
         13   -1    0    0    0    0 -0.00000000000E+00 -0.00000000000E+00 -0.27500000000E+03  0.27500000000E+03  0.00000000000E+00 0.  1.
    9000005    2    1    2  501    0 -0.47704562660E+01  0.39252448818E+02 -0.52270099100E+02  0.46952728523E+03  0.46493031341E+03 0.  0.
         13    1    3    3    0    0 -0.13555986944E+03 -0.12034198425E+03  0.10554191979E+03  0.20975644974E+03  0.00000000000E+00 0.  1.
          1    1    3    3  501    0  0.13078941317E+03  0.15959443307E+03 -0.15781201889E+03  0.25977083549E+03  0.00000000000E+00 0.  1.
         21    1    1    2  502  501  0.47704562660E+01 -0.39252448818E+02  0.13617964901E+02  0.41820580570E+02  0.00000000000E+00 0.  1.
<scales pt_clust_4="550.00000" pt_clust_5="550.00000" pt_clust_6="39.54127"></scales>
<mgrwt>
<rscale>  0 0.30000000E+03</rscale>
<asrwt>  1 0.39541269E+02</asrwt>
<pdfrwt beam="1">  1        1 0.85944678E+00 0.30000000E+03</pdfrwt>
<pdfrwt beam="2">0</pdfrwt>
<totfact> 0.32056253E-04</totfact>
</mgrwt>
<clustering>
<clus scale="   39.541">  1  6  2 -1</clus>
<clus scale="  464.930">  4  5 -1 -1</clus>
<clus scale="  300.000">  1  4  2 -1</clus>
</clustering>
</event>
<event>
 6    1  0.9462926E-012  0.3000000E+03  0.7818608E-02  0.1093470E+00
          1   -1    0    0  502    0  0.00000000000E+00  0.00000000000E+00  0.26485197270E+03  0.26485197270E+03  0.00000000000E+00 0.  1.
         13   -1    0    0    0    0 -0.00000000000E+00 -0.00000000000E+00 -0.27500000000E+03  0.27500000000E+03  0.00000000000E+00 0.  1.
    9000005    2    1    2  501    0  0.13920639475E+02 -0.29347050266E+02 -0.54517875369E+02  0.48486363775E+03  0.48069274481E+03 0.  0.
         13    1    3    3    0    0 -0.19821259929E+03  0.89166704092E+02  0.45558082686E+02  0.22206862573E+03  0.00000000000E+00 0.  1.
          1    1    3    3  501    0  0.21213323877E+03 -0.11851375436E+03 -0.10007595806E+03  0.26279501202E+03  0.00000000000E+00 0.  1.
         21    1    1    2  502  501 -0.13920639475E+02  0.29347050266E+02  0.44369848070E+02  0.54988334949E+02  0.00000000000E+00 0. -1.
<scales pt_clust_4="550.00000" pt_clust_5="550.00000" pt_clust_6="32.48128"></scales>
<mgrwt>
<rscale>  0 0.30000000E+03</rscale>
<asrwt>  1 0.32481280E+02</asrwt>
<pdfrwt beam="1">  1        1 0.96309808E+00 0.30000000E+03</pdfrwt>
<pdfrwt beam="2">0</pdfrwt>
<totfact> 0.65996805E-06</totfact>
</mgrwt>
<clustering>
<clus scale="   32.481">  1  6  2 -1</clus>
<clus scale="  480.693">  4  5 -1 -1</clus>
<clus scale="  300.000">  1  4  2 -1</clus>
</clustering>
</event>
<event>
 6    1  0.9462926E-012  0.3000000E+03  0.7818608E-02  0.1093470E+00
          1   -1    0    0  502    0  0.00000000000E+00  0.00000000000E+00  0.23471579896E+03  0.23471579896E+03  0.00000000000E+00 0.  1.
         13   -1    0    0    0    0 -0.00000000000E+00 -0.00000000000E+00 -0.27500000000E+03  0.27500000000E+03  0.00000000000E+00 0.  1.
    9000005    2    1    2  501    0 -0.35082706959E+02  0.15809317362E+02 -0.18903435599E+02  0.46569457710E+03  0.46371690547E+03 0.  0.
         13    1    3    3    0    0 -0.13364044988E+03  0.11099502236E+03  0.16282512775E+03  0.23810016182E+03  0.00000000000E+00 0.  1.
          1    1    3    3  501    0  0.98557742921E+02 -0.95185704998E+02 -0.18172856335E+03  0.22759441527E+03  0.00000000000E+00 0.  1.
         21    1    1    2  502  501  0.35082706959E+02 -0.15809317362E+02 -0.21380765444E+02  0.44021221860E+02  0.00000000000E+00 0.  1.
<scales pt_clust_4="550.00000" pt_clust_5="550.00000" pt_clust_6="38.48028"></scales>
<mgrwt>
<rscale>  0 0.30000000E+03</rscale>
<asrwt>  1 0.38480285E+02</asrwt>
<pdfrwt beam="1">  1        1 0.85351200E+00 0.30000000E+03</pdfrwt>
<pdfrwt beam="2">0</pdfrwt>
<totfact> 0.37018287E-04</totfact>
</mgrwt>
<clustering>
<clus scale="   38.480">  1  6  2 -1</clus>
<clus scale="  463.717">  4  5 -1 -1</clus>
<clus scale="  300.000">  1  4  2 -1</clus>
</clustering>
</event>
<event>
 6    1  0.9462926E-012  0.3000000E+03  0.7818608E-02  0.1093470E+00
          1   -1    0    0  502    0  0.00000000000E+00  0.00000000000E+00  0.22048073075E+03  0.22048073075E+03  0.00000000000E+00 0.  1.
         13   -1    0    0    0    0 -0.00000000000E+00 -0.00000000000E+00 -0.27500000000E+03  0.27500000000E+03  0.00000000000E+00 0.  1.
    9000005    2    1    2  501    0 -0.90974477509E+01 -0.30298374649E+02 -0.47116092293E+02  0.46299131568E+03  0.45950002958E+03 0.  0.
         13    1    3    3    0    0  0.12517906406E+03  0.10864045564E+03 -0.16725104830E+03  0.23546859629E+03  0.00000000000E+00 0.  1.
          1    1    3    3  501    0 -0.13427651182E+03 -0.13893883029E+03  0.12013495600E+03  0.22752271940E+03  0.00000000000E+00 0.  1.
         21    1    1    2  502  501  0.90974477509E+01  0.30298374649E+02 -0.74031769608E+01  0.32489415062E+02  0.00000000000E+00 0. -1.
<scales pt_clust_4="550.00000" pt_clust_5="550.00000" pt_clust_6="31.63473"></scales>
<mgrwt>
<rscale>  0 0.30000000E+03</rscale>
<asrwt>  1 0.31634729E+02</asrwt>
<pdfrwt beam="1">  1        1 0.80174811E+00 0.30000000E+03</pdfrwt>
<pdfrwt beam="2">0</pdfrwt>
<totfact> 0.10266202E-03</totfact>
</mgrwt>
<clustering>
<clus scale="   31.635">  1  6  2 -1</clus>
<clus scale="  459.500">  4  5 -1 -1</clus>
<clus scale="  300.000">  1  4  2 -1</clus>
</clustering>
</event>
<event>
 6    1  0.9462926E-012  0.3000000E+03  0.7818608E-02  0.1093470E+00
          1   -1    0    0  502    0  0.00000000000E+00  0.00000000000E+00  0.23937809939E+03  0.23937809939E+03  0.00000000000E+00 0.  1.
         13   -1    0    0    0    0 -0.00000000000E+00 -0.00000000000E+00 -0.27500000000E+03  0.27500000000E+03  0.00000000000E+00 0.  1.
    9000005    2    1    2  501    0  0.96047732507E+01  0.30970301744E+02 -0.56174202224E+02  0.47598788761E+03  0.47154800063E+03 0.  0.
         13    1    3    3    0    0  0.18986920745E+03  0.87142085954E+02  0.99384922975E+02  0.23134697318E+03  0.00000000000E+00 0.  1.
          3    1    3    3  501    0 -0.18026443420E+03 -0.56171784210E+02 -0.15555912520E+03  0.24464091443E+03  0.00000000000E+00 0.  1.
         21    1    1    2  502  501 -0.96047732507E+01 -0.30970301744E+02  0.20552301619E+02  0.38390211788E+02  0.00000000000E+00 0.  1.
<scales pt_clust_4="550.00000" pt_clust_5="550.00000" pt_clust_6="32.42547"></scales>
<mgrwt>
<rscale>  0 0.30000000E+03</rscale>
<asrwt>  1 0.32425472E+02</asrwt>
<pdfrwt beam="1">  1        1 0.87046582E+00 0.30000000E+03</pdfrwt>
<pdfrwt beam="2">0</pdfrwt>
<totfact> 0.25412132E-04</totfact>
</mgrwt>
<clustering>
<clus scale="   32.425">  1  6  2 -1</clus>
<clus scale="  471.548">  4  5 -1 -1</clus>
<clus scale="  300.000">  1  4  2 -1</clus>
</clustering>
</event>
<event>
 6    1  0.9462926E-012  0.3000000E+03  0.7818608E-02  0.1093470E+00
          1   -1    0    0  502    0  0.00000000000E+00  0.00000000000E+00  0.23719909184E+03  0.23719909184E+03  0.00000000000E+00 0.  1.
         13   -1    0    0    0    0 -0.00000000000E+00 -0.00000000000E+00 -0.27500000000E+03  0.27500000000E+03  0.00000000000E+00 0.  1.
    9000005    2    1    2  501    0 -0.30915213495E+02 -0.14638443402E+02 -0.38652164420E+02  0.47798273482E+03  0.47518782657E+03 0.  0.
         13    1    3    3    0    0  0.74508312982E+02 -0.18968489692E+03 -0.14259211227E+03  0.24872546975E+03  0.00000000000E+00 0.  1.
          1    1    3    3  501    0 -0.10542352648E+03  0.17504645352E+03  0.10393994785E+03  0.22925726506E+03  0.00000000000E+00 0.  1.
         21    1    1    2  502  501  0.30915213495E+02  0.14638443402E+02  0.85125625790E+00  0.34216357022E+02  0.00000000000E+00 0. -1.
<scales pt_clust_4="550.00000" pt_clust_5="550.00000" pt_clust_6="34.20577"></scales>
<mgrwt>
<rscale>  0 0.30000000E+03</rscale>
<asrwt>  1 0.34205766E+02</asrwt>
<pdfrwt beam="1">  1        1 0.86254215E+00 0.30000000E+03</pdfrwt>
<pdfrwt beam="2">0</pdfrwt>
<totfact> 0.30503059E-04</totfact>
</mgrwt>
<clustering>
<clus scale="   34.206">  1  6  2 -1</clus>
<clus scale="  475.188">  4  5 -1 -1</clus>
<clus scale="  300.000">  1  4  2 -1</clus>
</clustering>
</event>
<event>
 6    1  0.9462926E-012  0.3000000E+03  0.7818608E-02  0.1093470E+00
          1   -1    0    0  502    0  0.00000000000E+00  0.00000000000E+00  0.23535971063E+03  0.23535971063E+03  0.00000000000E+00 0.  1.
         13   -1    0    0    0    0 -0.00000000000E+00 -0.00000000000E+00 -0.27500000000E+03  0.27500000000E+03  0.00000000000E+00 0.  1.
    9000005    2    1    2  501    0  0.22987487370E+02 -0.23295473883E+02 -0.68155728583E+02  0.46695194690E+03  0.46079042274E+03 0.  0.
         13    1    3    3    0    0 -0.17901098967E+03  0.75337550922E+02  0.66053105414E+02  0.20514310550E+03  0.00000000000E+00 0.  1.
          1    1    3    3  501    0  0.20199847704E+03 -0.98633024804E+02 -0.13420883400E+03  0.26180884139E+03  0.00000000000E+00 0.  1.
         21    1    1    2  502  501 -0.22987487370E+02  0.23295473883E+02  0.28515439218E+02  0.43407763739E+02  0.00000000000E+00 0. -1.
<scales pt_clust_4="550.00000" pt_clust_5="550.00000" pt_clust_6="32.72772"></scales>
<mgrwt>
<rscale>  0 0.30000000E+03</rscale>
<asrwt>  1 0.32727720E+02</asrwt>
<pdfrwt beam="1">  1        1 0.85585349E+00 0.30000000E+03</pdfrwt>
<pdfrwt beam="2">0</pdfrwt>
<totfact> 0.36178919E-04</totfact>
</mgrwt>
<clustering>
<clus scale="   32.728">  1  6  2 -1</clus>
<clus scale="  460.790">  4  5 -1 -1</clus>
<clus scale="  300.000">  1  4  2 -1</clus>
</clustering>
</event>
<event>
 6    1  0.9462926E-012  0.3000000E+03  0.7818608E-02  0.1093470E+00
          1   -1    0    0  502    0  0.00000000000E+00  0.00000000000E+00  0.23643920831E+03  0.23643920831E+03  0.00000000000E+00 0.  1.
         13   -1    0    0    0    0 -0.00000000000E+00 -0.00000000000E+00 -0.27500000000E+03  0.27500000000E+03  0.00000000000E+00 0.  1.
    9000005    2    1    2  501    0  0.26640700811E+02 -0.15106893454E+02 -0.61944169211E+02  0.47290704624E+03  0.46783121862E+03 0.  0.
         13    1    3    3    0    0  0.10649849158E+03 -0.12511875707E+03 -0.21344272245E+03  0.26935929136E+03  0.00000000000E+00 0.  1.
          3    1    3    3  501    0 -0.79857790765E+02  0.11001186361E+03  0.15149855324E+03  0.20354775487E+03  0.00000000000E+00 0.  1.
         21    1    1    2  502  501 -0.26640700811E+02  0.15106893454E+02  0.23383377521E+02  0.38532162070E+02  0.00000000000E+00 0. -1.
<scales pt_clust_4="550.00000" pt_clust_5="550.00000" pt_clust_6="30.62589"></scales>
<mgrwt>
<rscale>  0 0.30000000E+03</rscale>
<asrwt>  1 0.30625891E+02</asrwt>
<pdfrwt beam="1">  1        1 0.85977894E+00 0.30000000E+03</pdfrwt>
<pdfrwt beam="2">0</pdfrwt>
<totfact> 0.33355112E-04</totfact>
</mgrwt>
<clustering>
<clus scale="   30.626">  1  6  2 -1</clus>
<clus scale="  467.831">  4  5 -1 -1</clus>
<clus scale="  300.000">  1  4  2 -1</clus>
</clustering>
</event>
<event>
 6    1  0.9462926E-012  0.3000000E+03  0.7818608E-02  0.1093470E+00
          1   -1    0    0  502    0  0.00000000000E+00  0.00000000000E+00  0.23012804770E+03  0.23012804770E+03  0.00000000000E+00 0.  1.
         13   -1    0    0    0    0 -0.00000000000E+00 -0.00000000000E+00 -0.27500000000E+03  0.27500000000E+03  0.00000000000E+00 0.  1.
    9000005    2    1    2  501    0  0.32372541489E+02 -0.36251115672E+01 -0.39035125026E+02  0.47203437113E+03  0.46928838007E+03 0.  0.
         13    1    3    3    0    0 -0.19955068288E+03 -0.59152756356E+02  0.55653890568E+02  0.21544576848E+03  0.00000000000E+00 0.  1.
          3    1    3    3  501    0  0.23192322437E+03  0.55527644789E+02 -0.94689015594E+02  0.25658860265E+03  0.00000000000E+00 0.  1.
         21    1    1    2  502  501 -0.32372541489E+02  0.36251115672E+01 -0.58368272730E+01  0.33093676571E+02  0.00000000000E+00 0.  1.
<scales pt_clust_4="550.00000" pt_clust_5="550.00000" pt_clust_6="32.57490"></scales>
<mgrwt>
<rscale>  0 0.30000000E+03</rscale>
<asrwt>  1 0.32574897E+02</asrwt>
<pdfrwt beam="1">  1        1 0.83682926E+00 0.30000000E+03</pdfrwt>
<pdfrwt beam="2">0</pdfrwt>
<totfact> 0.53182742E-04</totfact>
</mgrwt>
<clustering>
<clus scale="   32.575">  1  6  2 -1</clus>
<clus scale="  469.288">  4  5 -1 -1</clus>
<clus scale="  300.000">  1  4  2 -1</clus>
</clustering>
</event>
<event>
 6    1  0.9462926E-012  0.3000000E+03  0.7818608E-02  0.1093470E+00
          1   -1    0    0  502    0  0.00000000000E+00  0.00000000000E+00  0.23442958444E+03  0.23442958444E+03  0.00000000000E+00 0.  1.
         13   -1    0    0    0    0 -0.00000000000E+00 -0.00000000000E+00 -0.27500000000E+03  0.27500000000E+03  0.00000000000E+00 0.  1.
    9000005    2    1    2  501    0  0.13268700148E+02 -0.29586128579E+02 -0.89947472449E+01  0.46417010767E+03  0.46294879411E+03 0.  0.
         13    1    3    3    0    0  0.17334391643E+03  0.85779699226E+02 -0.12969340529E+03  0.23286616229E+03  0.00000000000E+00 0.  1.
          3    1    3    3  501    0 -0.16007521628E+03 -0.11536582780E+03  0.12069865805E+03  0.23130394538E+03  0.00000000000E+00 0.  1.
         21    1    1    2  502  501 -0.13268700148E+02  0.29586128579E+02 -0.31575668315E+02  0.45259476770E+02  0.00000000000E+00 0.  1.
<scales pt_clust_4="550.00000" pt_clust_5="550.00000" pt_clust_6="32.42528"></scales>
<mgrwt>
<rscale>  0 0.30000000E+03</rscale>
<asrwt>  1 0.32425275E+02</asrwt>
<pdfrwt beam="1">  1        1 0.85247122E+00 0.30000000E+03</pdfrwt>
<pdfrwt beam="2">0</pdfrwt>
<totfact> 0.39115195E-04</totfact>
</mgrwt>
<clustering>
<clus scale="   32.425">  1  6  2 -1</clus>
<clus scale="  462.949">  4  5 -1 -1</clus>
<clus scale="  300.000">  1  4  2 -1</clus>
</clustering>
</event>
<event>
 6    1  0.9462926E-012  0.3000000E+03  0.7818608E-02  0.1093470E+00
          1   -1    0    0  502    0  0.00000000000E+00  0.00000000000E+00  0.23723821656E+03  0.23723821656E+03  0.00000000000E+00 0.  1.
         13   -1    0    0    0    0 -0.00000000000E+00 -0.00000000000E+00 -0.27500000000E+03  0.27500000000E+03  0.00000000000E+00 0.  1.
    9000005    2    1    2  501    0 -0.12709592986E+02  0.36658448976E+02 -0.34703417790E+02  0.47331869400E+03  0.47044753507E+03 0.  0.
         13    1    3    3    0    0 -0.19794848749E+03 -0.15045090893E+02 -0.15024114687E+03  0.24896256881E+03  0.00000000000E+00 0.  1.
          3    1    3    3  501    0  0.18523889450E+03  0.51703539869E+02  0.11553772908E+03  0.22435612519E+03  0.00000000000E+00 0.  1.
         21    1    1    2  502  501  0.12709592986E+02 -0.36658448976E+02 -0.30583656534E+01  0.38919522552E+02  0.00000000000E+00 0. -1.
<scales pt_clust_4="550.00000" pt_clust_5="550.00000" pt_clust_6="38.79919"></scales>
<mgrwt>
<rscale>  0 0.30000000E+03</rscale>
<asrwt>  1 0.38799190E+02</asrwt>
<pdfrwt beam="1">  1        1 0.86268442E+00 0.30000000E+03</pdfrwt>
<pdfrwt beam="2">0</pdfrwt>
<totfact> 0.29692239E-04</totfact>
</mgrwt>
<clustering>
<clus scale="   38.799">  1  6  2 -1</clus>
<clus scale="  470.448">  4  5 -1 -1</clus>
<clus scale="  300.000">  1  4  2 -1</clus>
</clustering>
</event>
<event>
 6    1  0.9462926E-012  0.3000000E+03  0.7818608E-02  0.1093470E+00
          1   -1    0    0  502    0  0.00000000000E+00  0.00000000000E+00  0.22794966734E+03  0.22794966734E+03  0.00000000000E+00 0.  1.
         13   -1    0    0    0    0 -0.00000000000E+00 -0.00000000000E+00 -0.27500000000E+03  0.27500000000E+03  0.00000000000E+00 0.  1.
    9000005    2    1    2  501    0 -0.40951903079E+02 -0.16342448945E+00 -0.31322898970E+02  0.45908125907E+03  0.45617693208E+03 0.  0.
         13    1    3    3    0    0 -0.20228411109E+03  0.12788846596E+03  0.36801463862E+02  0.24213357691E+03  0.00000000000E+00 0.  1.
          3    1    3    3  501    0  0.16133220801E+03 -0.12805189045E+03 -0.68124362832E+02  0.21694768217E+03  0.00000000000E+00 0.  1.
         21    1    1    2  502  501  0.40951903079E+02  0.16342448945E+00 -0.15727433689E+02  0.43868408266E+02  0.00000000000E+00 0. -1.
<scales pt_clust_4="550.00000" pt_clust_5="550.00000" pt_clust_6="40.95225"></scales>
<mgrwt>
<rscale>  0 0.30000000E+03</rscale>
<asrwt>  1 0.40952250E+02</asrwt>
<pdfrwt beam="1">  1        1 0.82890788E+00 0.30000000E+03</pdfrwt>
<pdfrwt beam="2">0</pdfrwt>
<totfact> 0.58638559E-04</totfact>
</mgrwt>
<clustering>
<clus scale="   40.952">  1  6  2 -1</clus>
<clus scale="  456.177">  4  5 -1 -1</clus>
<clus scale="  300.000">  1  4  2 -1</clus>
</clustering>
</event>
<event>
 6    1  0.9462926E-012  0.3000000E+03  0.7818608E-02  0.1093470E+00
          1   -1    0    0  502    0  0.00000000000E+00  0.00000000000E+00  0.26418492116E+03  0.26418492116E+03  0.00000000000E+00 0.  1.
         13   -1    0    0    0    0 -0.00000000000E+00 -0.00000000000E+00 -0.27500000000E+03  0.27500000000E+03  0.00000000000E+00 0.  1.
    9000005    2    1    2  501    0 -0.31768255296E+02  0.98993697779E+00 -0.36461660248E+02  0.49834438789E+03  0.49599140542E+03 0.  0.
         13    1    3    3    0    0  0.12075914446E+03 -0.16288651777E+03  0.11013007818E+03  0.23074536347E+03  0.00000000000E+00 0.  1.
          3    1    3    3  501    0 -0.15252739975E+03  0.16387645475E+03 -0.14659173843E+03  0.26759902442E+03  0.00000000000E+00 0.  1.
         21    1    1    2  502  501  0.31768255296E+02 -0.98993697779E+00  0.25646581410E+02  0.40840533270E+02  0.00000000000E+00 0.  1.
<scales pt_clust_4="550.00000" pt_clust_5="550.00000" pt_clust_6="31.78368"></scales>
<mgrwt>
<rscale>  0 0.30000000E+03</rscale>
<asrwt>  1 0.31783675E+02</asrwt>
<pdfrwt beam="1">  1        1 0.96067244E+00 0.30000000E+03</pdfrwt>
<pdfrwt beam="2">0</pdfrwt>
<totfact> 0.74703675E-06</totfact>
</mgrwt>
<clustering>
<clus scale="   31.784">  1  6  2 -1</clus>
<clus scale="  495.991">  4  5 -1 -1</clus>
<clus scale="  300.000">  1  4  2 -1</clus>
</clustering>
</event>
<event>
 6    1  0.9462926E-012  0.3000000E+03  0.7818608E-02  0.1093470E+00
          1   -1    0    0  502    0  0.00000000000E+00  0.00000000000E+00  0.23097441387E+03  0.23097441387E+03  0.00000000000E+00 0.  1.
         13   -1    0    0    0    0 -0.00000000000E+00 -0.00000000000E+00 -0.27500000000E+03  0.27500000000E+03  0.00000000000E+00 0.  1.
    9000005    2    1    2  501    0 -0.22589866117E+02 -0.22280596963E+02 -0.70576342955E+02  0.46460208326E+03  0.45811281201E+03 0.  0.
         13    1    3    3    0    0  0.11278399960E+03  0.17817850461E+03 -0.71642075781E+02  0.22271146601E+03  0.00000000000E+00 0.  1.
          3    1    3    3  501    0 -0.13537386572E+03 -0.20045910158E+03  0.10657328260E+01  0.24189061724E+03  0.00000000000E+00 0.  1.
         21    1    1    2  502  501  0.22589866117E+02  0.22280596963E+02  0.26550756823E+02  0.41372330610E+02  0.00000000000E+00 0.  1.
<scales pt_clust_4="550.00000" pt_clust_5="550.00000" pt_clust_6="31.72896"></scales>
<mgrwt>
<rscale>  0 0.30000000E+03</rscale>
<asrwt>  1 0.31728962E+02</asrwt>
<pdfrwt beam="1">  1        1 0.83990696E+00 0.30000000E+03</pdfrwt>
<pdfrwt beam="2">0</pdfrwt>
<totfact> 0.50716477E-04</totfact>
</mgrwt>
<clustering>
<clus scale="   31.729">  1  6  2 -1</clus>
<clus scale="  458.113">  4  5 -1 -1</clus>
<clus scale="  300.000">  1  4  2 -1</clus>
</clustering>
</event>
<event>
 6    1  0.9462926E-012  0.3000000E+03  0.7818608E-02  0.1093470E+00
          1   -1    0    0  502    0  0.00000000000E+00  0.00000000000E+00  0.24556695169E+03  0.24556695169E+03  0.00000000000E+00 0.  1.
         13   -1    0    0    0    0 -0.00000000000E+00 -0.00000000000E+00 -0.27500000000E+03  0.27500000000E+03  0.00000000000E+00 0.  1.
    9000005    2    1    2  501    0 -0.10837850655E+02 -0.29989533517E+02 -0.57098539956E+02  0.47835071601E+03  0.47385898019E+03 0.  0.
         13    1    3    3    0    0  0.15432423526E+03 -0.15046283432E+03 -0.14079895334E+03  0.25744781872E+03  0.00000000000E+00 0.  1.
          1    1    3    3  501    0 -0.16516208591E+03  0.12047330080E+03  0.83700413389E+02  0.22090289729E+03  0.00000000000E+00 0.  1.
         21    1    1    2  502  501  0.10837850655E+02  0.29989533517E+02  0.27665491647E+02  0.42216235685E+02  0.00000000000E+00 0.  1.
<scales pt_clust_4="550.00000" pt_clust_5="550.00000" pt_clust_6="31.88779"></scales>
<mgrwt>
<rscale>  0 0.30000000E+03</rscale>
<asrwt>  1 0.31887790E+02</asrwt>
<pdfrwt beam="1">  1        1 0.89297073E+00 0.30000000E+03</pdfrwt>
<pdfrwt beam="2">0</pdfrwt>
<totfact> 0.13538904E-04</totfact>
</mgrwt>
<clustering>
<clus scale="   31.888">  1  6  2 -1</clus>
<clus scale="  473.859">  4  5 -1 -1</clus>
<clus scale="  300.000">  1  4  2 -1</clus>
</clustering>
</event>
<event>
 6    1  0.9462926E-012  0.3000000E+03  0.7818608E-02  0.1093470E+00
          1   -1    0    0  502    0  0.00000000000E+00  0.00000000000E+00  0.23741519451E+03  0.23741519451E+03  0.00000000000E+00 0.  1.
         13   -1    0    0    0    0 -0.00000000000E+00 -0.00000000000E+00 -0.27500000000E+03  0.27500000000E+03  0.00000000000E+00 0.  1.
    9000005    2    1    2  501    0 -0.33018587662E+02 -0.10080964589E+02 -0.47812202553E+02  0.47640890855E+03  0.47274473921E+03 0.  0.
         13    1    3    3    0    0  0.14181025725E+03  0.16991384922E+03 -0.19350784552E+01  0.22132467045E+03  0.00000000000E+00 0.  1.
          1    1    3    3  501    0 -0.17482884491E+03 -0.17999481381E+03 -0.45877124098E+02  0.25508423810E+03  0.00000000000E+00 0.  1.
         21    1    1    2  502  501  0.33018587662E+02  0.10080964589E+02  0.10227397064E+02  0.36006285964E+02  0.00000000000E+00 0. -1.
<scales pt_clust_4="550.00000" pt_clust_5="550.00000" pt_clust_6="34.52322"></scales>
<mgrwt>
<rscale>  0 0.30000000E+03</rscale>
<asrwt>  1 0.34523224E+02</asrwt>
<pdfrwt beam="1">  1        1 0.86332798E+00 0.30000000E+03</pdfrwt>
<pdfrwt beam="2">0</pdfrwt>
<totfact> 0.29859772E-04</totfact>
</mgrwt>
<clustering>
<clus scale="   34.523">  1  6  2 -1</clus>
<clus scale="  472.745">  4  5 -1 -1</clus>
<clus scale="  300.000">  1  4  2 -1</clus>
</clustering>
</event>
<event>
 6    1  0.9462926E-012  0.3000000E+03  0.7818608E-02  0.1093470E+00
          1   -1    0    0  502    0  0.00000000000E+00  0.00000000000E+00  0.21873881808E+03  0.21873881808E+03  0.00000000000E+00 0.  1.
         13   -1    0    0    0    0 -0.00000000000E+00 -0.00000000000E+00 -0.27500000000E+03  0.27500000000E+03  0.00000000000E+00 0.  1.
    9000005    2    1    2  501    0  0.42029795443E+01  0.31798155222E+02 -0.56090930782E+02  0.46166364547E+03  0.45711961380E+03 0.  0.
         13    1    3    3    0    0  0.35113128331E+02  0.45561913602E+01 -0.25555119155E+03  0.25799244594E+03  0.00000000000E+00 0.  1.
          1    1    3    3  501    0 -0.30910148787E+02  0.27241963862E+02  0.19946026076E+03  0.20367119953E+03  0.00000000000E+00 0.  1.
         21    1    1    2  502  501 -0.42029795443E+01 -0.31798155222E+02 -0.17025114123E+00  0.32075172611E+02  0.00000000000E+00 0.  1.
<scales pt_clust_4="550.00000" pt_clust_5="550.00000" pt_clust_6="32.07472"></scales>
<mgrwt>
<rscale>  0 0.30000000E+03</rscale>
<asrwt>  1 0.32074721E+02</asrwt>
<pdfrwt beam="1">  1        1 0.79541388E+00 0.30000000E+03</pdfrwt>
<pdfrwt beam="2">0</pdfrwt>
<totfact> 0.11386971E-03</totfact>
</mgrwt>
<clustering>
<clus scale="   32.075">  1  6  2 -1</clus>
<clus scale="  457.120">  4  5 -1 -1</clus>
<clus scale="  300.000">  1  4  2 -1</clus>
</clustering>
</event>
<event>
 6    1  0.9462926E-012  0.3000000E+03  0.7818608E-02  0.1093470E+00
          1   -1    0    0  502    0  0.00000000000E+00  0.00000000000E+00  0.23541151342E+03  0.23541151342E+03  0.00000000000E+00 0.  1.
         13   -1    0    0    0    0 -0.00000000000E+00 -0.00000000000E+00 -0.27500000000E+03  0.27500000000E+03  0.00000000000E+00 0.  1.
    9000005    2    1    2  501    0  0.27907717626E+02 -0.26622087919E+02 -0.58931563653E+02  0.46726373365E+03  0.46192520101E+03 0.  0.
         13    1    3    3    0    0  0.47564601233E+02  0.10540799159E+03 -0.22573011718E+03  0.25362831424E+03  0.00000000000E+00 0.  1.
          3    1    3    3  501    0 -0.19656883607E+02 -0.13203007951E+03  0.16679855353E+03  0.21363541941E+03  0.00000000000E+00 0.  1.
         21    1    1    2  502  501 -0.27907717626E+02  0.26622087919E+02  0.19343077076E+02  0.43147779769E+02  0.00000000000E+00 0.  1.
<scales pt_clust_4="550.00000" pt_clust_5="550.00000" pt_clust_6="38.56911"></scales>
<mgrwt>
<rscale>  0 0.30000000E+03</rscale>
<asrwt>  1 0.38569110E+02</asrwt>
<pdfrwt beam="1">  1        1 0.85604187E+00 0.30000000E+03</pdfrwt>
<pdfrwt beam="2">0</pdfrwt>
<totfact> 0.34934066E-04</totfact>
</mgrwt>
<clustering>
<clus scale="   38.569">  1  6  2 -1</clus>
<clus scale="  461.925">  4  5 -1 -1</clus>
<clus scale="  300.000">  1  4  2 -1</clus>
</clustering>
</event>
<event>
 6    1  0.9462926E-012  0.3000000E+03  0.7818608E-02  0.1093470E+00
          1   -1    0    0  502    0  0.00000000000E+00  0.00000000000E+00  0.22717791982E+03  0.22717791982E+03  0.00000000000E+00 0.  1.
         13   -1    0    0    0    0 -0.00000000000E+00 -0.00000000000E+00 -0.27500000000E+03  0.27500000000E+03  0.00000000000E+00 0.  1.
    9000005    2    1    2  501    0 -0.20734795340E+02 -0.23057592409E+02 -0.71615184955E+02  0.46309216615E+03  0.45646909569E+03 0.  0.
         13    1    3    3    0    0  0.29414158764E+02 -0.21338835282E+03 -0.13747758141E+03  0.25553838703E+03  0.00000000000E+00 0.  1.
          3    1    3    3  501    0 -0.50148954104E+02  0.19033076041E+03  0.65862396455E+02  0.20755377911E+03  0.00000000000E+00 0.  1.
         21    1    1    2  502  501  0.20734795340E+02  0.23057592409E+02  0.23793104776E+02  0.39085753675E+02  0.00000000000E+00 0. -1.
<scales pt_clust_4="550.00000" pt_clust_5="550.00000" pt_clust_6="31.00942"></scales>
<mgrwt>
<rscale>  0 0.30000000E+03</rscale>
<asrwt>  1 0.31009423E+02</asrwt>
<pdfrwt beam="1">  1        1 0.82610153E+00 0.30000000E+03</pdfrwt>
<pdfrwt beam="2">0</pdfrwt>
<totfact> 0.65338074E-04</totfact>
</mgrwt>
<clustering>
<clus scale="   31.009">  1  6  2 -1</clus>
<clus scale="  456.469">  4  5 -1 -1</clus>
<clus scale="  300.000">  1  4  2 -1</clus>
</clustering>
</event>
<event>
 6    1  0.9462926E-012  0.3000000E+03  0.7818608E-02  0.1093470E+00
          1   -1    0    0  502    0  0.00000000000E+00  0.00000000000E+00  0.24406187734E+03  0.24406187734E+03  0.00000000000E+00 0.  1.
         13   -1    0    0    0    0 -0.00000000000E+00 -0.00000000000E+00 -0.27500000000E+03  0.27500000000E+03  0.00000000000E+00 0.  1.
    9000005    2    1    2  501    0 -0.13019624349E-01 -0.33425311387E+02 -0.55597628740E+02  0.47752463079E+03  0.47309769084E+03 0.  0.
         13    1    3    3    0    0  0.37108484069E+01 -0.94219556365E+02  0.19661787253E+03  0.21805889799E+03  0.00000000000E+00 0.  1.
          3    1    3    3  501    0 -0.37238680312E+01  0.60794244977E+02 -0.25221550127E+03  0.25946573280E+03  0.00000000000E+00 0.  1.
         21    1    1    2  502  501  0.13019624349E-01  0.33425311387E+02  0.24659506082E+02  0.41537246551E+02  0.00000000000E+00 0.  1.
<scales pt_clust_4="550.00000" pt_clust_5="550.00000" pt_clust_6="33.42531"></scales>
<mgrwt>
<rscale>  0 0.30000000E+03</rscale>
<asrwt>  1 0.33425314E+02</asrwt>
<pdfrwt beam="1">  1        1 0.88749774E+00 0.30000000E+03</pdfrwt>
<pdfrwt beam="2">0</pdfrwt>
<totfact> 0.15813329E-04</totfact>
</mgrwt>
<clustering>
<clus scale="   33.425">  1  6  2 -1</clus>
<clus scale="  473.098">  4  5 -1 -1</clus>
<clus scale="  300.000">  1  4  2 -1</clus>
</clustering>
</event>
<event>
 6    1  0.9462926E-012  0.3000000E+03  0.7818608E-02  0.1093470E+00
          1   -1    0    0  502    0  0.00000000000E+00  0.00000000000E+00  0.24439741118E+03  0.24439741118E+03  0.00000000000E+00 0.  1.
         13   -1    0    0    0    0 -0.00000000000E+00 -0.00000000000E+00 -0.27500000000E+03  0.27500000000E+03  0.00000000000E+00 0.  1.
    9000005    2    1    2  501    0 -0.66536649026E+01 -0.39979794658E+02 -0.59133933948E+02  0.46983237418E+03  0.46433068222E+03 0.  0.
         13    1    3    3    0    0  0.57214189680E+01  0.52404948903E+02  0.19349972567E+03  0.20055213073E+03  0.00000000000E+00 0.  1.
          3    1    3    3  501    0 -0.12375083871E+02 -0.92384743561E+02 -0.25263365962E+03  0.26928024346E+03  0.00000000000E+00 0.  1.
         21    1    1    2  502  501  0.66536649026E+01  0.39979794658E+02  0.28531345125E+02  0.49565036994E+02  0.00000000000E+00 0. -1.
<scales pt_clust_4="550.00000" pt_clust_5="550.00000" pt_clust_6="40.52968"></scales>
<mgrwt>
<rscale>  0 0.30000000E+03</rscale>
<asrwt>  1 0.40529683E+02</asrwt>
<pdfrwt beam="1">  1        1 0.88871786E+00 0.30000000E+03</pdfrwt>
<pdfrwt beam="2">0</pdfrwt>
<totfact> 0.14681417E-04</totfact>
</mgrwt>
<clustering>
<clus scale="   40.530">  1  6  2 -1</clus>
<clus scale="  464.331">  4  5 -1 -1</clus>
<clus scale="  300.000">  1  4  2 -1</clus>
</clustering>
</event>
<event>
 6    1  0.9462926E-012  0.3000000E+03  0.7818608E-02  0.1093470E+00
          1   -1    0    0  502    0  0.00000000000E+00  0.00000000000E+00  0.22055382011E+03  0.22055382011E+03  0.00000000000E+00 0.  1.
         13   -1    0    0    0    0 -0.00000000000E+00 -0.00000000000E+00 -0.27500000000E+03  0.27500000000E+03  0.00000000000E+00 0.  1.
    9000005    2    1    2  501    0 -0.29794804213E+02  0.53377019537E+01 -0.58005143427E+02  0.46507616204E+03  0.46045088599E+03 0.  0.
         13    1    3    3    0    0  0.85951891048E+02 -0.93872153357E+02  0.15662272446E+03  0.20181770628E+03  0.00000000000E+00 0.  1.
          1    1    3    3  501    0 -0.11574669526E+03  0.99209855311E+02 -0.21462786789E+03  0.26325845576E+03  0.00000000000E+00 0.  1.
         21    1    1    2  502  501  0.29794804213E+02 -0.53377019537E+01  0.35589635398E+01  0.30477658075E+02  0.00000000000E+00 0.  1.
<scales pt_clust_4="550.00000" pt_clust_5="550.00000" pt_clust_6="30.26915"></scales>
<mgrwt>
<rscale>  0 0.30000000E+03</rscale>
<asrwt>  1 0.30269150E+02</asrwt>
<pdfrwt beam="1">  1        1 0.80201389E+00 0.30000000E+03</pdfrwt>
<pdfrwt beam="2">0</pdfrwt>
<totfact> 0.10307286E-03</totfact>
</mgrwt>
<clustering>
<clus scale="   30.269">  1  6  2 -1</clus>
<clus scale="  460.451">  4  5 -1 -1</clus>
<clus scale="  300.000">  1  4  2 -1</clus>
</clustering>
</event>
<event>
 6    1  0.9462926E-012  0.3000000E+03  0.7818608E-02  0.1093470E+00
          1   -1    0    0  502    0  0.00000000000E+00  0.00000000000E+00  0.23581558707E+03  0.23581558707E+03  0.00000000000E+00 0.  1.
         13   -1    0    0    0    0 -0.00000000000E+00 -0.00000000000E+00 -0.27500000000E+03  0.27500000000E+03  0.00000000000E+00 0.  1.
    9000005    2    1    2  501    0  0.78048545960E+01 -0.29398040908E+02 -0.49449415970E+02  0.47871370470E+03  0.47518039286E+03 0.  0.
         13    1    3    3    0    0  0.83992636456E+02  0.19813389470E+03 -0.93705356402E+02  0.23471790947E+03  0.00000000000E+00 0.  1.
          1    1    3    3  501    0 -0.76187781860E+02 -0.22753193561E+03  0.44255940432E+02  0.24399579523E+03  0.00000000000E+00 0.  1.
         21    1    1    2  502  501 -0.78048545960E+01  0.29398040908E+02  0.10265003040E+02  0.32101882373E+02  0.00000000000E+00 0. -1.
<scales pt_clust_4="550.00000" pt_clust_5="550.00000" pt_clust_6="30.41645"></scales>
<mgrwt>
<rscale>  0 0.30000000E+03</rscale>
<asrwt>  1 0.30416452E+02</asrwt>
<pdfrwt beam="1">  1        1 0.85751123E+00 0.30000000E+03</pdfrwt>
<pdfrwt beam="2">0</pdfrwt>
<totfact> 0.35283774E-04</totfact>
</mgrwt>
<clustering>
<clus scale="   30.416">  1  6  2 -1</clus>
<clus scale="  475.180">  4  5 -1 -1</clus>
<clus scale="  300.000">  1  4  2 -1</clus>
</clustering>
</event>
<event>
 6    1  0.9462926E-012  0.3000000E+03  0.7818608E-02  0.1093470E+00
          1   -1    0    0  502    0  0.00000000000E+00  0.00000000000E+00  0.24084715318E+03  0.24084715318E+03  0.00000000000E+00 0.  1.
         13   -1    0    0    0    0 -0.00000000000E+00 -0.00000000000E+00 -0.27500000000E+03  0.27500000000E+03  0.00000000000E+00 0.  1.
    9000005    2    1    2  501    0  0.59008570329E+00 -0.31011137356E+02 -0.34456941893E+02  0.48482891153E+03  0.48260724588E+03 0.  0.
         13    1    3    3    0    0  0.12718594400E+03  0.18805875590E+03  0.12989337846E+02  0.22740071003E+03  0.00000000000E+00 0.  1.
          3    1    3    3  501    0 -0.12659585830E+03 -0.21906989326E+03 -0.47446279739E+02  0.25742820151E+03  0.00000000000E+00 0.  1.
         21    1    1    2  502  501 -0.59008570329E+00  0.31011137356E+02  0.30409507419E+00  0.31018241650E+02  0.00000000000E+00 0.  1.
<scales pt_clust_4="550.00000" pt_clust_5="550.00000" pt_clust_6="31.01675"></scales>
<mgrwt>
<rscale>  0 0.30000000E+03</rscale>
<asrwt>  1 0.31016751E+02</asrwt>
<pdfrwt beam="1">  1        1 0.87580783E+00 0.30000000E+03</pdfrwt>
<pdfrwt beam="2">0</pdfrwt>
<totfact> 0.22560542E-04</totfact>
</mgrwt>
<clustering>
<clus scale="   31.017">  1  6  2 -1</clus>
<clus scale="  482.607">  4  5 -1 -1</clus>
<clus scale="  300.000">  1  4  2 -1</clus>
</clustering>
</event>
<event>
 6    1  0.9462926E-012  0.3000000E+03  0.7818608E-02  0.1093470E+00
          1   -1    0    0  502    0  0.00000000000E+00  0.00000000000E+00  0.24930389885E+03  0.24930389885E+03  0.00000000000E+00 0.  1.
         13   -1    0    0    0    0 -0.00000000000E+00 -0.00000000000E+00 -0.27500000000E+03  0.27500000000E+03  0.00000000000E+00 0.  1.
    9000005    2    1    2  501    0 -0.43452130790E+02 -0.17127798169E+02 -0.32709040651E+02  0.47707434814E+03  0.47365451879E+03 0.  0.
         13    1    3    3    0    0 -0.19722205306E+03  0.14776466224E+03 -0.48089872380E+02  0.25108478537E+03  0.00000000000E+00 0.  1.
          1    1    3    3  501    0  0.15376992227E+03 -0.16489246041E+03  0.15380831728E+02  0.22598956277E+03  0.00000000000E+00 0.  1.
         21    1    1    2  502  501  0.43452130790E+02  0.17127798169E+02  0.70129395055E+01  0.47229550716E+02  0.00000000000E+00 0. -1.
<scales pt_clust_4="550.00000" pt_clust_5="550.00000" pt_clust_6="46.70599"></scales>
<mgrwt>
<rscale>  0 0.30000000E+03</rscale>
<asrwt>  1 0.46705986E+02</asrwt>
<pdfrwt beam="1">  1        1 0.90655963E+00 0.30000000E+03</pdfrwt>
<pdfrwt beam="2">0</pdfrwt>
<totfact> 0.81667289E-05</totfact>
</mgrwt>
<clustering>
<clus scale="   46.706">  1  6  2 -1</clus>
<clus scale="  473.655">  4  5 -1 -1</clus>
<clus scale="  300.000">  1  4  2 -1</clus>
</clustering>
</event>
<event>
 6    1  0.9462926E-012  0.3000000E+03  0.7818608E-02  0.1093470E+00
          1   -1    0    0  502    0  0.00000000000E+00  0.00000000000E+00  0.23443971336E+03  0.23443971336E+03  0.00000000000E+00 0.  1.
         13   -1    0    0    0    0 -0.00000000000E+00 -0.00000000000E+00 -0.27500000000E+03  0.27500000000E+03  0.00000000000E+00 0.  1.
    9000005    2    1    2  501    0 -0.33728195267E+02 -0.30637000287E+01 -0.56317475193E+02  0.47208644838E+03  0.46749008473E+03 0.  0.
         13    1    3    3    0    0  0.14097291196E+02  0.21333899531E+03 -0.11507469486E+03  0.24280536637E+03  0.00000000000E+00 0.  1.
          3    1    3    3  501    0 -0.47825486463E+02 -0.21640269534E+03  0.58757219665E+02  0.22928108201E+03  0.00000000000E+00 0.  1.
         21    1    1    2  502  501  0.33728195267E+02  0.30637000287E+01  0.15757188556E+02  0.37353264985E+02  0.00000000000E+00 0. -1.
<scales pt_clust_4="550.00000" pt_clust_5="550.00000" pt_clust_6="33.86705"></scales>
<mgrwt>
<rscale>  0 0.30000000E+03</rscale>
<asrwt>  1 0.33867055E+02</asrwt>
<pdfrwt beam="1">  1        1 0.85250805E+00 0.30000000E+03</pdfrwt>
<pdfrwt beam="2">0</pdfrwt>
<totfact> 0.38763416E-04</totfact>
</mgrwt>
<clustering>
<clus scale="   33.867">  1  6  2 -1</clus>
<clus scale="  467.490">  4  5 -1 -1</clus>
<clus scale="  300.000">  1  4  2 -1</clus>
</clustering>
</event>
<event>
 6    1  0.9462926E-012  0.3000000E+03  0.7818608E-02  0.1093470E+00
          1   -1    0    0  502    0  0.00000000000E+00  0.00000000000E+00  0.21935261907E+03  0.21935261907E+03  0.00000000000E+00 0.  1.
         13   -1    0    0    0    0 -0.00000000000E+00 -0.00000000000E+00 -0.27500000000E+03  0.27500000000E+03  0.00000000000E+00 0.  1.
    9000005    2    1    2  501    0  0.17186673889E+02  0.27852467000E+02 -0.54618801872E+02  0.46160815920E+03  0.45719551337E+03 0.  0.
         13    1    3    3    0    0 -0.10436430344E+02  0.17394281976E+03  0.13515631353E+03  0.22052721535E+03  0.00000000000E+00 0.  1.
          1    1    3    3  501    0  0.27623104233E+02 -0.14609035276E+03 -0.18977511541E+03  0.24108094384E+03  0.00000000000E+00 0.  1.
         21    1    1    2  502  501 -0.17186673889E+02 -0.27852467000E+02 -0.10285790612E+01  0.32744459871E+02  0.00000000000E+00 0.  1.
<scales pt_clust_4="550.00000" pt_clust_5="550.00000" pt_clust_6="32.72830"></scales>
<mgrwt>
<rscale>  0 0.30000000E+03</rscale>
<asrwt>  1 0.32728301E+02</asrwt>
<pdfrwt beam="1">  1        1 0.79764589E+00 0.30000000E+03</pdfrwt>
<pdfrwt beam="2">0</pdfrwt>
<totfact> 0.10922844E-03</totfact>
</mgrwt>
<clustering>
<clus scale="   32.728">  1  6  2 -1</clus>
<clus scale="  457.196">  4  5 -1 -1</clus>
<clus scale="  300.000">  1  4  2 -1</clus>
</clustering>
</event>
<event>
 6    1  0.9462926E-012  0.3000000E+03  0.7818608E-02  0.1093470E+00
          1   -1    0    0  502    0  0.00000000000E+00  0.00000000000E+00  0.22837888054E+03  0.22837888054E+03  0.00000000000E+00 0.  1.
         13   -1    0    0    0    0 -0.00000000000E+00 -0.00000000000E+00 -0.27500000000E+03  0.27500000000E+03  0.00000000000E+00 0.  1.
    9000005    2    1    2  501    0  0.32232310455E+02 -0.74830139274E+01 -0.41857692376E+02  0.46994824231E+03  0.46690937740E+03 0.  0.
         13    1    3    3    0    0 -0.18003025230E+03  0.74767973128E+02  0.81200317552E+02  0.21117441398E+03  0.00000000000E+00 0.  1.
          3    1    3    3  501    0  0.21226256276E+03 -0.82250987055E+02 -0.12305800993E+03  0.25877382833E+03  0.00000000000E+00 0.  1.
         21    1    1    2  502  501 -0.32232310455E+02  0.74830139274E+01 -0.47634270852E+01  0.33430638228E+02  0.00000000000E+00 0.  1.
<scales pt_clust_4="550.00000" pt_clust_5="550.00000" pt_clust_6="33.08955"></scales>
<mgrwt>
<rscale>  0 0.30000000E+03</rscale>
<asrwt>  1 0.33089552E+02</asrwt>
<pdfrwt beam="1">  1        1 0.83046866E+00 0.30000000E+03</pdfrwt>
<pdfrwt beam="2">0</pdfrwt>
<totfact> 0.59202930E-04</totfact>
</mgrwt>
<clustering>
<clus scale="   33.090">  1  6  2 -1</clus>
<clus scale="  466.909">  4  5 -1 -1</clus>
<clus scale="  300.000">  1  4  2 -1</clus>
</clustering>
</event>
<event>
 6    1  0.9462926E-012  0.3000000E+03  0.7818608E-02  0.1093470E+00
          1   -1    0    0  502    0  0.00000000000E+00  0.00000000000E+00  0.22379242414E+03  0.22379242414E+03  0.00000000000E+00 0.  1.
         13   -1    0    0    0    0 -0.00000000000E+00 -0.00000000000E+00 -0.27500000000E+03  0.27500000000E+03  0.00000000000E+00 0.  1.
    9000005    2    1    2  501    0  0.20938603518E+02 -0.31086656656E+02 -0.42467614785E+02  0.46030616349E+03  0.45680790328E+03 0.  0.
         13    1    3    3    0    0  0.23890206125E+03 -0.15777910106E+02 -0.32043012969E+02  0.24155722303E+03  0.00000000000E+00 0.  1.
          3    1    3    3  501    0 -0.21796345773E+03 -0.15308746550E+02 -0.10424601815E+02  0.21874894046E+03  0.00000000000E+00 0.  1.
         21    1    1    2  502  501 -0.20938603518E+02  0.31086656656E+02 -0.87399610768E+01  0.38486260652E+02  0.00000000000E+00 0.  1.
<scales pt_clust_4="550.00000" pt_clust_5="550.00000" pt_clust_6="37.48075"></scales>
<mgrwt>
<rscale>  0 0.30000000E+03</rscale>
<asrwt>  1 0.37480752E+02</asrwt>
<pdfrwt beam="1">  1        1 0.81379063E+00 0.30000000E+03</pdfrwt>
<pdfrwt beam="2">0</pdfrwt>
<totfact> 0.80377342E-04</totfact>
</mgrwt>
<clustering>
<clus scale="   37.481">  1  6  2 -1</clus>
<clus scale="  456.808">  4  5 -1 -1</clus>
<clus scale="  300.000">  1  4  2 -1</clus>
</clustering>
</event>
<event>
 6    1  0.9462926E-012  0.3000000E+03  0.7818608E-02  0.1093470E+00
          1   -1    0    0  502    0  0.00000000000E+00  0.00000000000E+00  0.23417690825E+03  0.23417690825E+03  0.00000000000E+00 0.  1.
         13   -1    0    0    0    0 -0.00000000000E+00 -0.00000000000E+00 -0.27500000000E+03  0.27500000000E+03  0.00000000000E+00 0.  1.
    9000005    2    1    2  501    0 -0.14697216573E+02 -0.29826084898E+02 -0.35408005537E+02  0.47548823546E+03  0.47300077346E+03 0.  0.
         13    1    3    3    0    0  0.11340100453E+02 -0.23272689380E+02 -0.25396858324E+03  0.25528465920E+03  0.00000000000E+00 0.  1.
          1    1    3    3  501    0 -0.26037317026E+02 -0.65533955175E+01  0.21856057771E+03  0.22020357626E+03  0.00000000000E+00 0.  1.
         21    1    1    2  502  501  0.14697216573E+02  0.29826084898E+02 -0.54150862169E+01  0.33688672786E+02  0.00000000000E+00 0.  1.
<scales pt_clust_4="550.00000" pt_clust_5="550.00000" pt_clust_6="33.25063"></scales>
<mgrwt>
<rscale>  0 0.30000000E+03</rscale>
<asrwt>  1 0.33250633E+02</asrwt>
<pdfrwt beam="1">  1        1 0.85155239E+00 0.30000000E+03</pdfrwt>
<pdfrwt beam="2">0</pdfrwt>
<totfact> 0.39726206E-04</totfact>
</mgrwt>
<clustering>
<clus scale="   33.251">  1  6  2 -1</clus>
<clus scale="  473.001">  4  5 -1 -1</clus>
<clus scale="  300.000">  1  4  2 -1</clus>
</clustering>
</event>
<event>
 6    1  0.9462926E-012  0.3000000E+03  0.7818608E-02  0.1093470E+00
          1   -1    0    0  502    0  0.00000000000E+00  0.00000000000E+00  0.25069383625E+03  0.25069383625E+03  0.00000000000E+00 0.  1.
         13   -1    0    0    0    0 -0.00000000000E+00 -0.00000000000E+00 -0.27500000000E+03  0.27500000000E+03  0.00000000000E+00 0.  1.
    9000005    2    1    2  501    0 -0.24843494783E+02 -0.43274461949E+02 -0.60667081876E+02  0.46395248336E+03  0.45725434246E+03 0.  0.
         13    1    3    3    0    0  0.16835439620E+03 -0.11243911147E+03 -0.13761673534E+03  0.24479404069E+03  0.00000000000E+00 0.  1.
          1    1    3    3  501    0 -0.19319789099E+03  0.69164649525E+02  0.76949653465E+02  0.21915844267E+03  0.00000000000E+00 0.  1.
         21    1    1    2  502  501  0.24843494783E+02  0.43274461949E+02  0.36360918125E+02  0.61741352892E+02  0.00000000000E+00 0. -1.
<scales pt_clust_4="550.00000" pt_clust_5="550.00000" pt_clust_6="49.89868"></scales>
<mgrwt>
<rscale>  0 0.30000000E+03</rscale>
<asrwt>  1 0.49898680E+02</asrwt>
<pdfrwt beam="1">  1        1 0.91161395E+00 0.30000000E+03</pdfrwt>
<pdfrwt beam="2">0</pdfrwt>
<totfact> 0.61473102E-05</totfact>
</mgrwt>
<clustering>
<clus scale="   49.899">  1  6  2 -1</clus>
<clus scale="  457.254">  4  5 -1 -1</clus>
<clus scale="  300.000">  1  4  2 -1</clus>
</clustering>
</event>
<event>
 6    1  0.9462926E-012  0.3000000E+03  0.7818608E-02  0.1093470E+00
          1   -1    0    0  502    0  0.00000000000E+00  0.00000000000E+00  0.22667792532E+03  0.22667792532E+03  0.00000000000E+00 0.  1.
         13   -1    0    0    0    0 -0.00000000000E+00 -0.00000000000E+00 -0.27500000000E+03  0.27500000000E+03  0.00000000000E+00 0.  1.
    9000005    2    1    2  501    0  0.17639595771E+02 -0.35869839878E+02 -0.41875076352E+02  0.46118885841E+03  0.45754108050E+03 0.  0.
         13    1    3    3    0    0  0.18788780657E+03  0.12019689521E+03  0.14283375941E+02  0.22350198278E+03  0.00000000000E+00 0.  1.
          3    1    3    3  501    0 -0.17024821080E+03 -0.15606673509E+03 -0.56158452293E+02  0.23768687563E+03  0.00000000000E+00 0.  1.
         21    1    1    2  502  501 -0.17639595771E+02  0.35869839878E+02 -0.64469983310E+01  0.40489066911E+02  0.00000000000E+00 0.  1.
<scales pt_clust_4="550.00000" pt_clust_5="550.00000" pt_clust_6="39.97252"></scales>
<mgrwt>
<rscale>  0 0.30000000E+03</rscale>
<asrwt>  1 0.39972520E+02</asrwt>
<pdfrwt beam="1">  1        1 0.82428336E+00 0.30000000E+03</pdfrwt>
<pdfrwt beam="2">0</pdfrwt>
<totfact> 0.64679930E-04</totfact>
</mgrwt>
<clustering>
<clus scale="   39.973">  1  6  2 -1</clus>
<clus scale="  457.541">  4  5 -1 -1</clus>
<clus scale="  300.000">  1  4  2 -1</clus>
</clustering>
</event>
<event>
 6    1  0.9462926E-012  0.3000000E+03  0.7818608E-02  0.1093470E+00
          1   -1    0    0  502    0  0.00000000000E+00  0.00000000000E+00  0.24348662194E+03  0.24348662194E+03  0.00000000000E+00 0.  1.
         13   -1    0    0    0    0 -0.00000000000E+00 -0.00000000000E+00 -0.27500000000E+03  0.27500000000E+03  0.00000000000E+00 0.  1.
    9000005    2    1    2  501    0 -0.35534494039E+02  0.22004333649E+02 -0.17660260203E+01  0.46718558959E+03  0.46530889236E+03 0.  0.
         13    1    3    3    0    0 -0.74179298414E+01  0.17805029416E+03  0.16085059185E+03  0.24006217076E+03  0.00000000000E+00 0.  1.
          3    1    3    3  501    0 -0.28116564197E+02 -0.15604596051E+03 -0.16261661787E+03  0.22712341883E+03  0.00000000000E+00 0.  1.
         21    1    1    2  502  501  0.35534494039E+02 -0.22004333649E+02 -0.29747352044E+02  0.51301032344E+02  0.00000000000E+00 0.  1.
<scales pt_clust_4="550.00000" pt_clust_5="550.00000" pt_clust_6="41.79585"></scales>
<mgrwt>
<rscale>  0 0.30000000E+03</rscale>
<asrwt>  1 0.41795846E+02</asrwt>
<pdfrwt beam="1">  1        1 0.88540590E+00 0.30000000E+03</pdfrwt>
<pdfrwt beam="2">0</pdfrwt>
<totfact> 0.16216299E-04</totfact>
</mgrwt>
<clustering>
<clus scale="   41.796">  1  6  2 -1</clus>
<clus scale="  465.309">  4  5 -1 -1</clus>
<clus scale="  300.000">  1  4  2 -1</clus>
</clustering>
</event>
<event>
 6    1  0.9462926E-012  0.3000000E+03  0.7818608E-02  0.1093470E+00
          1   -1    0    0  502    0  0.00000000000E+00  0.00000000000E+00  0.23929954409E+03  0.23929954409E+03  0.00000000000E+00 0.  1.
         13   -1    0    0    0    0 -0.00000000000E+00 -0.00000000000E+00 -0.27500000000E+03  0.27500000000E+03  0.00000000000E+00 0.  1.
    9000005    2    1    2  501    0 -0.23989617090E+02  0.18391124569E+02 -0.70400521655E+02  0.46827965976E+03  0.46196955647E+03 0.  0.
         13    1    3    3    0    0 -0.26081192978E+02  0.20028178718E+03 -0.16722208644E+03  0.26221412833E+03  0.00000000000E+00 0.  1.
          1    1    3    3  501    0  0.20915758885E+01 -0.18189066261E+03  0.96821564787E+02  0.20606553143E+03  0.00000000000E+00 0.  1.
         21    1    1    2  502  501  0.23989617090E+02 -0.18391124569E+02  0.34700065746E+02  0.46019884330E+02  0.00000000000E+00 0.  1.
<scales pt_clust_4="550.00000" pt_clust_5="550.00000" pt_clust_6="30.22805"></scales>
<mgrwt>
<rscale>  0 0.30000000E+03</rscale>
<asrwt>  1 0.30228053E+02</asrwt>
<pdfrwt beam="1">  1        1 0.87018016E+00 0.30000000E+03</pdfrwt>
<pdfrwt beam="2">0</pdfrwt>
<totfact> 0.25928744E-04</totfact>
</mgrwt>
<clustering>
<clus scale="   30.228">  1  6  2 -1</clus>
<clus scale="  461.970">  4  5 -1 -1</clus>
<clus scale="  300.000">  1  4  2 -1</clus>
</clustering>
</event>
<event>
 6    1  0.9462926E-012  0.3000000E+03  0.7818608E-02  0.1093470E+00
          1   -1    0    0  502    0  0.00000000000E+00  0.00000000000E+00  0.25289376175E+03  0.25289376175E+03  0.00000000000E+00 0.  1.
         13   -1    0    0    0    0 -0.00000000000E+00 -0.00000000000E+00 -0.27500000000E+03  0.27500000000E+03  0.00000000000E+00 0.  1.
    9000005    2    1    2  501    0 -0.42654706758E+02  0.15343152209E+02 -0.98890235093E+00  0.47788598032E+03  0.47573017134E+03 0.  0.
         13    1    3    3    0    0 -0.82369497614E+02  0.14621191657E+03 -0.18424928908E+03  0.24921970068E+03  0.00000000000E+00 0.  1.
          1    1    3    3  501    0  0.39714790856E+02 -0.13086876436E+03  0.18326038673E+03  0.22866627963E+03  0.00000000000E+00 0.  1.
         21    1    1    2  502  501  0.42654706758E+02 -0.15343152209E+02 -0.21117335901E+02  0.50007781433E+02  0.00000000000E+00 0. -1.
<scales pt_clust_4="550.00000" pt_clust_5="550.00000" pt_clust_6="45.33033"></scales>
<mgrwt>
<rscale>  0 0.30000000E+03</rscale>
<asrwt>  1 0.45330325E+02</asrwt>
<pdfrwt beam="1">  1        1 0.91961368E+00 0.30000000E+03</pdfrwt>
<pdfrwt beam="2">0</pdfrwt>
<totfact> 0.40650816E-05</totfact>
</mgrwt>
<clustering>
<clus scale="   45.330">  1  6  2 -1</clus>
<clus scale="  475.730">  4  5 -1 -1</clus>
<clus scale="  300.000">  1  4  2 -1</clus>
</clustering>
</event>
<event>
 6    1  0.9462926E-012  0.3000000E+03  0.7818608E-02  0.1093470E+00
          1   -1    0    0  502    0  0.00000000000E+00  0.00000000000E+00  0.24112722165E+03  0.24112722165E+03  0.00000000000E+00 0.  1.
         13   -1    0    0    0    0 -0.00000000000E+00 -0.00000000000E+00 -0.27500000000E+03  0.27500000000E+03  0.00000000000E+00 0.  1.
    9000005    2    1    2  501    0  0.16330152447E+02  0.34334773607E+02 -0.34175745975E+02  0.47810561796E+03  0.47536454407E+03 0.  0.
         13    1    3    3    0    0  0.23212304216E+03 -0.61709712049E+02 -0.28123701485E+02  0.24182666901E+03  0.00000000000E+00 0.  1.
          3    1    3    3  501    0 -0.21579288971E+03  0.96044485656E+02 -0.60520444900E+01  0.23627894895E+03  0.00000000000E+00 0.  1.
         21    1    1    2  502  501 -0.16330152447E+02 -0.34334773607E+02  0.30296762416E+00  0.38021603688E+02  0.00000000000E+00 0. -1.
<scales pt_clust_4="550.00000" pt_clust_5="550.00000" pt_clust_6="38.02040"></scales>
<mgrwt>
<rscale>  0 0.30000000E+03</rscale>
<asrwt>  1 0.38020397E+02</asrwt>
<pdfrwt beam="1">  1        1 0.87682626E+00 0.30000000E+03</pdfrwt>
<pdfrwt beam="2">0</pdfrwt>
<totfact> 0.21166418E-04</totfact>
</mgrwt>
<clustering>
<clus scale="   38.020">  1  6  2 -1</clus>
<clus scale="  475.365">  4  5 -1 -1</clus>
<clus scale="  300.000">  1  4  2 -1</clus>
</clustering>
</event>
<event>
 6    1  0.9462926E-012  0.3000000E+03  0.7818608E-02  0.1093470E+00
          1   -1    0    0  502    0  0.00000000000E+00  0.00000000000E+00  0.23613225210E+03  0.23613225210E+03  0.00000000000E+00 0.  1.
         13   -1    0    0    0    0 -0.00000000000E+00 -0.00000000000E+00 -0.27500000000E+03  0.27500000000E+03  0.00000000000E+00 0.  1.
    9000005    2    1    2  501    0  0.19554231016E+02 -0.24150268246E+02 -0.42691402432E+02  0.47982372705E+03  0.47690947757E+03 0.  0.
         13    1    3    3    0    0  0.23411326527E+03 -0.17712178926E+02 -0.10370385750E+03  0.25666560408E+03  0.00000000000E+00 0.  1.
          1    1    3    3  501    0 -0.21455903425E+03 -0.64380893201E+01  0.61012455071E+02  0.22315812297E+03  0.00000000000E+00 0.  1.
         21    1    1    2  502  501 -0.19554231016E+02  0.24150268246E+02  0.38236545364E+01  0.31308525053E+02  0.00000000000E+00 0. -1.
<scales pt_clust_4="550.00000" pt_clust_5="550.00000" pt_clust_6="31.07416"></scales>
<mgrwt>
<rscale>  0 0.30000000E+03</rscale>
<asrwt>  1 0.31074160E+02</asrwt>
<pdfrwt beam="1">  1        1 0.85866273E+00 0.30000000E+03</pdfrwt>
<pdfrwt beam="2">0</pdfrwt>
<totfact> 0.34179805E-04</totfact>
</mgrwt>
<clustering>
<clus scale="   31.074">  1  6  2 -1</clus>
<clus scale="  476.909">  4  5 -1 -1</clus>
<clus scale="  300.000">  1  4  2 -1</clus>
</clustering>
</event>
<event>
 6    1  0.9462926E-012  0.3000000E+03  0.7818608E-02  0.1093470E+00
          1   -1    0    0  502    0  0.00000000000E+00  0.00000000000E+00  0.21918568675E+03  0.21918568675E+03  0.00000000000E+00 0.  1.
         13   -1    0    0    0    0 -0.00000000000E+00 -0.00000000000E+00 -0.27500000000E+03  0.27500000000E+03  0.00000000000E+00 0.  1.
    9000005    2    1    2  501    0 -0.32012450484E+02  0.18752581021E+01 -0.54981720281E+02  0.46210755105E+03  0.45770305395E+03 0.  0.
         13    1    3    3    0    0 -0.11731792440E+03 -0.19551928711E+03 -0.88274317172E+02  0.24450693669E+03  0.00000000000E+00 0.  1.
          1    1    3    3  501    0  0.85305473913E+02  0.19739454522E+03  0.33292596890E+02  0.21760061436E+03  0.00000000000E+00 0.  1.
         21    1    1    2  502  501  0.32012450484E+02 -0.18752581021E+01 -0.83259297139E+00  0.32078135700E+02  0.00000000000E+00 0.  1.
<scales pt_clust_4="550.00000" pt_clust_5="550.00000" pt_clust_6="32.06733"></scales>
<mgrwt>
<rscale>  0 0.30000000E+03</rscale>
<asrwt>  1 0.32067329E+02</asrwt>
<pdfrwt beam="1">  1        1 0.79703886E+00 0.30000000E+03</pdfrwt>
<pdfrwt beam="2">0</pdfrwt>
<totfact> 0.11077652E-03</totfact>
</mgrwt>
<clustering>
<clus scale="   32.067">  1  6  2 -1</clus>
<clus scale="  457.703">  4  5 -1 -1</clus>
<clus scale="  300.000">  1  4  2 -1</clus>
</clustering>
</event>
<event>
 6    1  0.9462926E-012  0.3000000E+03  0.7818608E-02  0.1093470E+00
          1   -1    0    0  502    0  0.00000000000E+00  0.00000000000E+00  0.24317761203E+03  0.24317761203E+03  0.00000000000E+00 0.  1.
         13   -1    0    0    0    0 -0.00000000000E+00 -0.00000000000E+00 -0.27500000000E+03  0.27500000000E+03  0.00000000000E+00 0.  1.
    9000005    2    1    2  501    0 -0.30037338768E+02 -0.35646117638E+01 -0.50391045408E+02  0.48268475055E+03  0.47909327148E+03 0.  0.
         13    1    3    3    0    0 -0.21450151868E+03 -0.68866808271E+02  0.89215072557E+02  0.24230738324E+03  0.00000000000E+00 0.  1.
          1    1    3    3  501    0  0.18446417992E+03  0.65302196508E+02 -0.13960611796E+03  0.24037736731E+03  0.00000000000E+00 0.  1.
         21    1    1    2  502  501  0.30037338768E+02  0.35646117638E+01  0.18568657437E+02  0.35492861483E+02  0.00000000000E+00 0. -1.
<scales pt_clust_4="550.00000" pt_clust_5="550.00000" pt_clust_6="30.24811"></scales>
<mgrwt>
<rscale>  0 0.30000000E+03</rscale>
<asrwt>  1 0.30248110E+02</asrwt>
<pdfrwt beam="1">  1        1 0.88428223E+00 0.30000000E+03</pdfrwt>
<pdfrwt beam="2">0</pdfrwt>
<totfact> 0.17844881E-04</totfact>
</mgrwt>
<clustering>
<clus scale="   30.248">  1  6  2 -1</clus>
<clus scale="  479.093">  4  5 -1 -1</clus>
<clus scale="  300.000">  1  4  2 -1</clus>
</clustering>
</event>
<event>
 6    1  0.9462926E-012  0.3000000E+03  0.7818608E-02  0.1093470E+00
          1   -1    0    0  502    0  0.00000000000E+00  0.00000000000E+00  0.23517246223E+03  0.23517246223E+03  0.00000000000E+00 0.  1.
         13   -1    0    0    0    0 -0.00000000000E+00 -0.00000000000E+00 -0.27500000000E+03  0.27500000000E+03  0.00000000000E+00 0.  1.
    9000005    2    1    2  501    0  0.21909432457E+02 -0.25387834225E+02 -0.40031619946E+02  0.47663730148E+03  0.47376789803E+03 0.  0.
         13    1    3    3    0    0 -0.17705714064E+03  0.10880485821E+03 -0.97970804293E+02  0.22975205486E+03  0.00000000000E+00 0.  1.
          1    1    3    3  501    0  0.19896657310E+03 -0.13419269243E+03  0.57939184347E+02  0.24688524661E+03  0.00000000000E+00 0.  1.
         21    1    1    2  502  501 -0.21909432457E+02  0.25387834225E+02  0.20408217673E+00  0.33535160754E+02  0.00000000000E+00 0.  1.
<scales pt_clust_4="550.00000" pt_clust_5="550.00000" pt_clust_6="33.53454"></scales>
<mgrwt>
<rscale>  0 0.30000000E+03</rscale>
<asrwt>  1 0.33534540E+02</asrwt>
<pdfrwt beam="1">  1        1 0.85517259E+00 0.30000000E+03</pdfrwt>
<pdfrwt beam="2">0</pdfrwt>
<totfact> 0.36582770E-04</totfact>
</mgrwt>
<clustering>
<clus scale="   33.535">  1  6  2 -1</clus>
<clus scale="  473.768">  4  5 -1 -1</clus>
<clus scale="  300.000">  1  4  2 -1</clus>
</clustering>
</event>
<event>
 6    1  0.9462926E-012  0.3000000E+03  0.7818608E-02  0.1093470E+00
          1   -1    0    0  502    0  0.00000000000E+00  0.00000000000E+00  0.23839570947E+03  0.23839570947E+03  0.00000000000E+00 0.  1.
         13   -1    0    0    0    0 -0.00000000000E+00 -0.00000000000E+00 -0.27500000000E+03  0.27500000000E+03  0.00000000000E+00 0.  1.
    9000005    2    1    2  501    0 -0.32915579254E+02  0.29538826535E+02 -0.61196367924E+02  0.46279187660E+03  0.45659100732E+03 0.  0.
         13    1    3    3    0    0  0.17382921207E+03  0.97577748399E+02 -0.12584187132E+03  0.23574178359E+03  0.00000000000E+00 0.  1.
          3    1    3    3  501    0 -0.20674479132E+03 -0.68038921865E+02  0.64645503400E+02  0.22705009301E+03  0.00000000000E+00 0.  1.
         21    1    1    2  502  501  0.32915579254E+02 -0.29538826535E+02  0.24592077389E+02  0.50603832869E+02  0.00000000000E+00 0. -1.
<scales pt_clust_4="550.00000" pt_clust_5="550.00000" pt_clust_6="44.22644"></scales>
<mgrwt>
<rscale>  0 0.30000000E+03</rscale>
<asrwt>  1 0.44226436E+02</asrwt>
<pdfrwt beam="1">  1        1 0.86689349E+00 0.30000000E+03</pdfrwt>
<pdfrwt beam="2">0</pdfrwt>
<totfact> 0.26128587E-04</totfact>
</mgrwt>
<clustering>
<clus scale="   44.226">  1  6  2 -1</clus>
<clus scale="  456.591">  4  5 -1 -1</clus>
<clus scale="  300.000">  1  4  2 -1</clus>
</clustering>
</event>
<event>
 6    1  0.9462926E-012  0.3000000E+03  0.7818608E-02  0.1093470E+00
          1   -1    0    0  502    0  0.00000000000E+00  0.00000000000E+00  0.26698341743E+03  0.26698341743E+03  0.00000000000E+00 0.  1.
         13   -1    0    0    0    0 -0.00000000000E+00 -0.00000000000E+00 -0.27500000000E+03  0.27500000000E+03  0.00000000000E+00 0.  1.
    9000005    2    1    2  501    0  0.28115679005E+02 -0.11459837405E+02 -0.17771746780E+02  0.51009325425E+03  0.50887864346E+03 0.  0.
         13    1    3    3    0    0  0.45610982389E+02 -0.48743079084E+02  0.23996993425E+03  0.24908195201E+03  0.00000000000E+00 0.  1.
          1    1    3    3  501    0 -0.17495303383E+02  0.37283241679E+02 -0.25774168103E+03  0.26101130223E+03  0.00000000000E+00 0.  1.
         21    1    1    2  502  501 -0.28115679005E+02  0.11459837405E+02  0.97551642133E+01  0.31890163187E+02  0.00000000000E+00 0. -1.
<scales pt_clust_4="550.00000" pt_clust_5="550.00000" pt_clust_6="30.36148"></scales>
<mgrwt>
<rscale>  0 0.30000000E+03</rscale>
<asrwt>  1 0.30361477E+02</asrwt>
<pdfrwt beam="1">  1        1 0.97084879E+00 0.30000000E+03</pdfrwt>
<pdfrwt beam="2">0</pdfrwt>
<totfact> 0.49449616E-06</totfact>
</mgrwt>
<clustering>
<clus scale="   30.361">  1  6  2 -1</clus>
<clus scale="  508.879">  4  5 -1 -1</clus>
<clus scale="  300.000">  1  4  2 -1</clus>
</clustering>
</event>
<event>
 6    1  0.9462926E-012  0.3000000E+03  0.7818608E-02  0.1093470E+00
          1   -1    0    0  502    0  0.00000000000E+00  0.00000000000E+00  0.26259755150E+03  0.26259755150E+03  0.00000000000E+00 0.  1.
         13   -1    0    0    0    0 -0.00000000000E+00 -0.00000000000E+00 -0.27500000000E+03  0.27500000000E+03  0.00000000000E+00 0.  1.
    9000005    2    1    2  501    0 -0.11450424016E+02 -0.34771251171E+02 -0.35314920493E+02  0.49441036022E+03  0.49178685278E+03 0.  0.
         13    1    3    3    0    0  0.11440892633E+03 -0.69196114313E+02 -0.22645378339E+03  0.26298064695E+03  0.00000000000E+00 0.  1.
          3    1    3    3  501    0 -0.12585935034E+03  0.34424863142E+02  0.19113886290E+03  0.23142971326E+03  0.00000000000E+00 0.  1.
         21    1    1    2  502  501  0.11450424016E+02  0.34771251171E+02  0.22912471996E+02  0.43187191286E+02  0.00000000000E+00 0. -1.
<scales pt_clust_4="550.00000" pt_clust_5="550.00000" pt_clust_6="36.60809"></scales>
<mgrwt>
<rscale>  0 0.30000000E+03</rscale>
<asrwt>  1 0.36608088E+02</asrwt>
<pdfrwt beam="1">  1        1 0.95490019E+00 0.30000000E+03</pdfrwt>
<pdfrwt beam="2">0</pdfrwt>
<totfact> 0.96735527E-06</totfact>
</mgrwt>
<clustering>
<clus scale="   36.608">  1  6  2 -1</clus>
<clus scale="  491.787">  4  5 -1 -1</clus>
<clus scale="  300.000">  1  4  2 -1</clus>
</clustering>
</event>
<event>
 6    1  0.9462926E-012  0.3000000E+03  0.7818608E-02  0.1093470E+00
          1   -1    0    0  502    0  0.00000000000E+00  0.00000000000E+00  0.22499560511E+03  0.22499560511E+03  0.00000000000E+00 0.  1.
         13   -1    0    0    0    0 -0.00000000000E+00 -0.00000000000E+00 -0.27500000000E+03  0.27500000000E+03  0.00000000000E+00 0.  1.
    9000005    2    1    2  501    0  0.27733716063E+02 -0.23680310040E+02 -0.59112559200E+02  0.46240737893E+03  0.45716121155E+03 0.  0.
         13    1    3    3    0    0 -0.96923327479E+02 -0.21163472400E+03 -0.38448434206E+02  0.23592725553E+03  0.00000000000E+00 0.  1.
          1    1    3    3  501    0  0.12465704354E+03  0.18795441396E+03 -0.20664124994E+02  0.22648012339E+03  0.00000000000E+00 0.  1.
         21    1    1    2  502  501 -0.27733716063E+02  0.23680310040E+02  0.91081643066E+01  0.37588226179E+02  0.00000000000E+00 0.  1.
<scales pt_clust_4="550.00000" pt_clust_5="550.00000" pt_clust_6="36.46801"></scales>
<mgrwt>
<rscale>  0 0.30000000E+03</rscale>
<asrwt>  1 0.36468015E+02</asrwt>
<pdfrwt beam="1">  1        1 0.81816584E+00 0.30000000E+03</pdfrwt>
<pdfrwt beam="2">0</pdfrwt>
<totfact> 0.74409845E-04</totfact>
</mgrwt>
<clustering>
<clus scale="   36.468">  1  6  2 -1</clus>
<clus scale="  457.161">  4  5 -1 -1</clus>
<clus scale="  300.000">  1  4  2 -1</clus>
</clustering>
</event>
<event>
 6    1  0.9462926E-012  0.3000000E+03  0.7818608E-02  0.1093470E+00
          1   -1    0    0  502    0  0.00000000000E+00  0.00000000000E+00  0.23965667281E+03  0.23965667281E+03  0.00000000000E+00 0.  1.
         13   -1    0    0    0    0 -0.00000000000E+00 -0.00000000000E+00 -0.27500000000E+03  0.27500000000E+03  0.00000000000E+00 0.  1.
    9000005    2    1    2  501    0  0.36028883404E+02  0.29060291928E+02 -0.51377874836E+02  0.46567006520E+03  0.46050661515E+03 0.  0.
         13    1    3    3    0    0  0.92835959897E+02  0.14872473811E+03  0.14587108930E+03  0.22807002843E+03  0.00000000000E+00 0.  1.
          1    1    3    3  501    0 -0.56807076494E+02 -0.11966444618E+03 -0.19724896414E+03  0.23760003677E+03  0.00000000000E+00 0.  1.
         21    1    1    2  502  501 -0.36028883404E+02 -0.29060291928E+02  0.16034547644E+02  0.48986607602E+02  0.00000000000E+00 0. -1.
<scales pt_clust_4="550.00000" pt_clust_5="550.00000" pt_clust_6="46.28802"></scales>
<mgrwt>
<rscale>  0 0.30000000E+03</rscale>
<asrwt>  1 0.46288022E+02</asrwt>
<pdfrwt beam="1">  1        1 0.87147881E+00 0.30000000E+03</pdfrwt>
<pdfrwt beam="2">0</pdfrwt>
<totfact> 0.23244395E-04</totfact>
</mgrwt>
<clustering>
<clus scale="   46.288">  1  6  2 -1</clus>
<clus scale="  460.507">  4  5 -1 -1</clus>
<clus scale="  300.000">  1  4  2 -1</clus>
</clustering>
</event>
<event>
 6    1  0.9462926E-012  0.3000000E+03  0.7818608E-02  0.1093470E+00
          1   -1    0    0  502    0  0.00000000000E+00  0.00000000000E+00  0.23870405902E+03  0.23870405902E+03  0.00000000000E+00 0.  1.
         13   -1    0    0    0    0 -0.00000000000E+00 -0.00000000000E+00 -0.27500000000E+03  0.27500000000E+03  0.00000000000E+00 0.  1.
    9000005    2    1    2  501    0  0.14018666088E+02  0.30897173584E+02 -0.62694440122E+02  0.47071523383E+03  0.46528601978E+03 0.  0.
         13    1    3    3    0    0  0.13116717552E+03 -0.61890865296E+02  0.15137525147E+03  0.20964201368E+03  0.00000000000E+00 0.  1.
          1    1    3    3  501    0 -0.11714850943E+03  0.92788038880E+02 -0.21406969159E+03  0.26107322015E+03  0.00000000000E+00 0.  1.
         21    1    1    2  502  501 -0.14018666088E+02 -0.30897173584E+02  0.26398499147E+02  0.42988825194E+02  0.00000000000E+00 0. -1.
<scales pt_clust_4="550.00000" pt_clust_5="550.00000" pt_clust_6="33.92872"></scales>
<mgrwt>
<rscale>  0 0.30000000E+03</rscale>
<asrwt>  1 0.33928724E+02</asrwt>
<pdfrwt beam="1">  1        1 0.86801476E+00 0.30000000E+03</pdfrwt>
<pdfrwt beam="2">0</pdfrwt>
<totfact> 0.26700708E-04</totfact>
</mgrwt>
<clustering>
<clus scale="   33.929">  1  6  2 -1</clus>
<clus scale="  465.286">  4  5 -1 -1</clus>
<clus scale="  300.000">  1  4  2 -1</clus>
</clustering>
</event>
<event>
 6    1  0.9462926E-012  0.3000000E+03  0.7818608E-02  0.1093470E+00
          1   -1    0    0  502    0  0.00000000000E+00  0.00000000000E+00  0.24921149989E+03  0.24921149989E+03  0.00000000000E+00 0.  1.
         13   -1    0    0    0    0 -0.00000000000E+00 -0.00000000000E+00 -0.27500000000E+03  0.27500000000E+03  0.00000000000E+00 0.  1.
    9000005    2    1    2  501    0  0.22801808433E+02 -0.20177725626E+02 -0.59818099990E+02  0.47854885928E+03  0.47381825899E+03 0.  0.
         13    1    3    3    0    0  0.18197859618E+03  0.14275936124E+02  0.13322339733E+03  0.22598337420E+03  0.00000000000E+00 0.  1.
          3    1    3    3  501    0 -0.15917678775E+03 -0.34453661750E+02 -0.19304149732E+03  0.25256548508E+03  0.00000000000E+00 0.  1.
         21    1    1    2  502  501 -0.22801808433E+02  0.20177725626E+02  0.34029599878E+02  0.45662640606E+02  0.00000000000E+00 0. -1.
<scales pt_clust_4="550.00000" pt_clust_5="550.00000" pt_clust_6="30.44771"></scales>
<mgrwt>
<rscale>  0 0.30000000E+03</rscale>
<asrwt>  1 0.30447711E+02</asrwt>
<pdfrwt beam="1">  1        1 0.90622364E+00 0.30000000E+03</pdfrwt>
<pdfrwt beam="2">0</pdfrwt>
<totfact> 0.89806841E-05</totfact>
</mgrwt>
<clustering>
<clus scale="   30.448">  1  6  2 -1</clus>
<clus scale="  473.818">  4  5 -1 -1</clus>
<clus scale="  300.000">  1  4  2 -1</clus>
</clustering>
</event>
<event>
 6    1  0.9462926E-012  0.3000000E+03  0.7818608E-02  0.1093470E+00
          1   -1    0    0  502    0  0.00000000000E+00  0.00000000000E+00  0.22301030956E+03  0.22301030956E+03  0.00000000000E+00 0.  1.
         13   -1    0    0    0    0 -0.00000000000E+00 -0.00000000000E+00 -0.27500000000E+03  0.27500000000E+03  0.00000000000E+00 0.  1.
    9000005    2    1    2  501    0  0.22103673136E+02 -0.24399207624E+02 -0.59528487626E+02  0.46423565691E+03  0.45922457535E+03 0.  0.
         13    1    3    3    0    0 -0.73441417406E+01  0.11917061746E+03  0.16039301994E+03  0.19995372797E+03  0.00000000000E+00 0.  1.
          3    1    3    3  501    0  0.29447814877E+02 -0.14356982509E+03 -0.21992150756E+03  0.26428192894E+03  0.00000000000E+00 0.  1.
         21    1    1    2  502  501 -0.22103673136E+02  0.24399207624E+02  0.75387971882E+01  0.33774652653E+02  0.00000000000E+00 0.  1.
<scales pt_clust_4="550.00000" pt_clust_5="550.00000" pt_clust_6="32.92254"></scales>
<mgrwt>
<rscale>  0 0.30000000E+03</rscale>
<asrwt>  1 0.32922541E+02</asrwt>
<pdfrwt beam="1">  1        1 0.81094658E+00 0.30000000E+03</pdfrwt>
<pdfrwt beam="2">0</pdfrwt>
<totfact> 0.86733204E-04</totfact>
</mgrwt>
<clustering>
<clus scale="   32.923">  1  6  2 -1</clus>
<clus scale="  459.225">  4  5 -1 -1</clus>
<clus scale="  300.000">  1  4  2 -1</clus>
</clustering>
</event>
<event>
 6    1  0.9462926E-012  0.3000000E+03  0.7818608E-02  0.1093470E+00
          1   -1    0    0  502    0  0.00000000000E+00  0.00000000000E+00  0.24613915004E+03  0.24613915004E+03  0.00000000000E+00 0.  1.
         13   -1    0    0    0    0 -0.00000000000E+00 -0.00000000000E+00 -0.27500000000E+03  0.27500000000E+03  0.00000000000E+00 0.  1.
    9000005    2    1    2  501    0 -0.30141778823E+02  0.27681338880E+02 -0.45239046035E+02  0.47705935127E+03  0.47314296993E+03 0.  0.
         13    1    3    3    0    0 -0.11401208081E+03 -0.41521651380E+02  0.18568576627E+03  0.22181525172E+03  0.00000000000E+00 0.  1.
          1    1    3    3  501    0  0.83870301982E+02  0.69202990260E+02 -0.23092481230E+03  0.25524409954E+03  0.00000000000E+00 0.  1.
         21    1    1    2  502  501  0.30141778823E+02 -0.27681338880E+02  0.16378196070E+02  0.44079798767E+02  0.00000000000E+00 0.  1.
<scales pt_clust_4="550.00000" pt_clust_5="550.00000" pt_clust_6="40.92412"></scales>
<mgrwt>
<rscale>  0 0.30000000E+03</rscale>
<asrwt>  1 0.40924117E+02</asrwt>
<pdfrwt beam="1">  1        1 0.89505145E+00 0.30000000E+03</pdfrwt>
<pdfrwt beam="2">0</pdfrwt>
<totfact> 0.12234647E-04</totfact>
</mgrwt>
<clustering>
<clus scale="   40.924">  1  6  2 -1</clus>
<clus scale="  473.143">  4  5 -1 -1</clus>
<clus scale="  300.000">  1  4  2 -1</clus>
</clustering>
</event>
<event>
 6    1  0.9462926E-012  0.3000000E+03  0.7818608E-02  0.1093470E+00
          1   -1    0    0  502    0  0.00000000000E+00  0.00000000000E+00  0.23274477170E+03  0.23274477170E+03  0.00000000000E+00 0.  1.
         13   -1    0    0    0    0 -0.00000000000E+00 -0.00000000000E+00 -0.27500000000E+03  0.27500000000E+03  0.00000000000E+00 0.  1.
    9000005    2    1    2  501    0  0.30438724347E+02 -0.23726434324E+02 -0.63746353058E+02  0.46357093251E+03  0.45754229565E+03 0.  0.
         13    1    3    3    0    0 -0.13166934134E+03 -0.17948147825E+03  0.20397164868E+02  0.22353178928E+03  0.00000000000E+00 0.  1.
          1    1    3    3  501    0  0.16210806569E+03  0.15575504393E+03 -0.84143517926E+02  0.24003914322E+03  0.00000000000E+00 0.  1.
         21    1    1    2  502  501 -0.30438724347E+02  0.23726434324E+02  0.21491124756E+02  0.44173839191E+02  0.00000000000E+00 0. -1.
<scales pt_clust_4="550.00000" pt_clust_5="550.00000" pt_clust_6="38.59352"></scales>
<mgrwt>
<rscale>  0 0.30000000E+03</rscale>
<asrwt>  1 0.38593518E+02</asrwt>
<pdfrwt beam="1">  1        1 0.84634462E+00 0.30000000E+03</pdfrwt>
<pdfrwt beam="2">0</pdfrwt>
<totfact> 0.43173778E-04</totfact>
</mgrwt>
<clustering>
<clus scale="   38.594">  1  6  2 -1</clus>
<clus scale="  457.542">  4  5 -1 -1</clus>
<clus scale="  300.000">  1  4  2 -1</clus>
</clustering>
</event>
<event>
 6    1  0.9462926E-012  0.3000000E+03  0.7818608E-02  0.1093470E+00
          1   -1    0    0  502    0  0.00000000000E+00  0.00000000000E+00  0.22815911557E+03  0.22815911557E+03  0.00000000000E+00 0.  1.
         13   -1    0    0    0    0 -0.00000000000E+00 -0.00000000000E+00 -0.27500000000E+03  0.27500000000E+03  0.00000000000E+00 0.  1.
    9000005    2    1    2  501    0  0.60124946149E+01  0.30950005806E+02 -0.40373446903E+02  0.47097401500E+03  0.46817993831E+03 0.  0.
         13    1    3    3    0    0  0.20142945198E+03 -0.10021981234E+03 -0.65380580700E+02  0.23429138961E+03  0.00000000000E+00 0.  1.
          3    1    3    3  501    0 -0.19541695737E+03  0.13116981815E+03  0.25007133797E+02  0.23668262539E+03  0.00000000000E+00 0.  1.
         21    1    1    2  502  501 -0.60124946149E+01 -0.30950005806E+02 -0.64674375229E+01  0.32185100575E+02  0.00000000000E+00 0. -1.
<scales pt_clust_4="550.00000" pt_clust_5="550.00000" pt_clust_6="31.52862"></scales>
<mgrwt>
<rscale>  0 0.30000000E+03</rscale>
<asrwt>  1 0.31528621E+02</asrwt>
<pdfrwt beam="1">  1        1 0.82966951E+00 0.30000000E+03</pdfrwt>
<pdfrwt beam="2">0</pdfrwt>
<totfact> 0.60660415E-04</totfact>
</mgrwt>
<clustering>
<clus scale="   31.529">  1  6  2 -1</clus>
<clus scale="  468.180">  4  5 -1 -1</clus>
<clus scale="  300.000">  1  4  2 -1</clus>
</clustering>
</event>
<event>
 6    1  0.9462926E-012  0.3000000E+03  0.7818608E-02  0.1093470E+00
          1   -1    0    0  502    0  0.00000000000E+00  0.00000000000E+00  0.22916755973E+03  0.22916755973E+03  0.00000000000E+00 0.  1.
         13   -1    0    0    0    0 -0.00000000000E+00 -0.00000000000E+00 -0.27500000000E+03  0.27500000000E+03  0.00000000000E+00 0.  1.
    9000005    2    1    2  501    0 -0.28402787820E+02  0.11319609706E+02 -0.46779010986E+02  0.47357756274E+03  0.47026862551E+03 0.  0.
         13    1    3    3    0    0  0.70694189578E+02  0.16976176148E+03  0.12288195989E+03  0.22117120104E+03  0.00000000000E+00 0.  1.
          3    1    3    3  501    0 -0.99096977398E+02 -0.15844215178E+03 -0.16966097087E+03  0.25240636170E+03  0.00000000000E+00 0.  1.
         21    1    1    2  502  501  0.28402787820E+02 -0.11319609706E+02  0.94657071248E+00  0.30589996991E+02  0.00000000000E+00 0.  1.
<scales pt_clust_4="550.00000" pt_clust_5="550.00000" pt_clust_6="30.57535"></scales>
<mgrwt>
<rscale>  0 0.30000000E+03</rscale>
<asrwt>  1 0.30575348E+02</asrwt>
<pdfrwt beam="1">  1        1 0.83333658E+00 0.30000000E+03</pdfrwt>
<pdfrwt beam="2">0</pdfrwt>
<totfact> 0.57093669E-04</totfact>
</mgrwt>
<clustering>
<clus scale="   30.575">  1  6  2 -1</clus>
<clus scale="  470.269">  4  5 -1 -1</clus>
<clus scale="  300.000">  1  4  2 -1</clus>
</clustering>
</event>
<event>
 6    1  0.9462926E-012  0.3000000E+03  0.7818608E-02  0.1093470E+00
          1   -1    0    0  502    0  0.00000000000E+00  0.00000000000E+00  0.23989049514E+03  0.23989049514E+03  0.00000000000E+00 0.  1.
         13   -1    0    0    0    0 -0.00000000000E+00 -0.00000000000E+00 -0.27500000000E+03  0.27500000000E+03  0.00000000000E+00 0.  1.
    9000005    2    1    2  501    0 -0.73703945176E+01  0.30799778296E+02 -0.57055489403E+02  0.47636030832E+03  0.47186954280E+03 0.  0.
         13    1    3    3    0    0 -0.14845705545E+03  0.52049284849E+02  0.15495179484E+03  0.22081368637E+03  0.00000000000E+00 0.  1.
          3    1    3    3  501    0  0.14108666093E+03 -0.21249506553E+02 -0.21200728424E+03  0.25554662195E+03  0.00000000000E+00 0.  1.
         21    1    1    2  502  501  0.73703945176E+01 -0.30799778296E+02  0.21945984541E+02  0.38530186814E+02  0.00000000000E+00 0. -1.
<scales pt_clust_4="550.00000" pt_clust_5="550.00000" pt_clust_6="31.66937"></scales>
<mgrwt>
<rscale>  0 0.30000000E+03</rscale>
<asrwt>  1 0.31669371E+02</asrwt>
<pdfrwt beam="1">  1        1 0.87232907E+00 0.30000000E+03</pdfrwt>
<pdfrwt beam="2">0</pdfrwt>
<totfact> 0.24432057E-04</totfact>
</mgrwt>
<clustering>
<clus scale="   31.669">  1  6  2 -1</clus>
<clus scale="  471.870">  4  5 -1 -1</clus>
<clus scale="  300.000">  1  4  2 -1</clus>
</clustering>
</event>
<event>
 6    1  0.9462926E-012  0.3000000E+03  0.7818608E-02  0.1093470E+00
          1   -1    0    0  502    0  0.00000000000E+00  0.00000000000E+00  0.24182610009E+03  0.24182610009E+03  0.00000000000E+00 0.  1.
         13   -1    0    0    0    0 -0.00000000000E+00 -0.00000000000E+00 -0.27500000000E+03  0.27500000000E+03  0.00000000000E+00 0.  1.
    9000005    2    1    2  501    0  0.27236551350E+02 -0.18653556574E+02 -0.42607720926E+02  0.48249270699E+03  0.47947263688E+03 0.  0.
         13    1    3    3    0    0  0.14508979200E+02 -0.20294540871E+03 -0.16409874761E+03  0.26139194395E+03  0.00000000000E+00 0.  1.
          3    1    3    3  501    0  0.12727572151E+02  0.18429185213E+03  0.12149102668E+03  0.22110076305E+03  0.00000000000E+00 0.  1.
         21    1    1    2  502  501 -0.27236551350E+02  0.18653556574E+02  0.94338210125E+01  0.34333393092E+02  0.00000000000E+00 0.  1.
<scales pt_clust_4="550.00000" pt_clust_5="550.00000" pt_clust_6="33.01189"></scales>
<mgrwt>
<rscale>  0 0.30000000E+03</rscale>
<asrwt>  1 0.33011890E+02</asrwt>
<pdfrwt beam="1">  1        1 0.87936764E+00 0.30000000E+03</pdfrwt>
<pdfrwt beam="2">0</pdfrwt>
<totfact> 0.20313489E-04</totfact>
</mgrwt>
<clustering>
<clus scale="   33.012">  1  6  2 -1</clus>
<clus scale="  479.473">  4  5 -1 -1</clus>
<clus scale="  300.000">  1  4  2 -1</clus>
</clustering>
</event>
<event>
 6    1  0.9462926E-012  0.3000000E+03  0.7818608E-02  0.1093470E+00
          1   -1    0    0  502    0  0.00000000000E+00  0.00000000000E+00  0.25071039808E+03  0.25071039808E+03  0.00000000000E+00 0.  1.
         13   -1    0    0    0    0 -0.00000000000E+00 -0.00000000000E+00 -0.27500000000E+03  0.27500000000E+03  0.00000000000E+00 0.  1.
    9000005    2    1    2  501    0  0.15918883085E+02  0.37898671277E+02 -0.29559103770E+02  0.48426781403E+03  0.48161380271E+03 0.  0.
         13    1    3    3    0    0  0.69941991892E+02  0.22444923433E+03 -0.12675570213E+03  0.26708865390E+03  0.00000000000E+00 0.  1.
          3    1    3    3  501    0 -0.54023108807E+02 -0.18655056305E+03  0.97196598356E+02  0.21717916012E+03  0.00000000000E+00 0.  1.
         21    1    1    2  502  501 -0.15918883085E+02 -0.37898671277E+02  0.52695018476E+01  0.41442584052E+02  0.00000000000E+00 0.  1.
<scales pt_clust_4="550.00000" pt_clust_5="550.00000" pt_clust_6="41.10621"></scales>
<mgrwt>
<rscale>  0 0.30000000E+03</rscale>
<asrwt>  1 0.41106205E+02</asrwt>
<pdfrwt beam="1">  1        1 0.91167417E+00 0.30000000E+03</pdfrwt>
<pdfrwt beam="2">0</pdfrwt>
<totfact> 0.63416416E-05</totfact>
</mgrwt>
<clustering>
<clus scale="   41.106">  1  6  2 -1</clus>
<clus scale="  481.614">  4  5 -1 -1</clus>
<clus scale="  300.000">  1  4  2 -1</clus>
</clustering>
</event>
<event>
 6    1  0.9462926E-012  0.3000000E+03  0.7818608E-02  0.1093470E+00
          1   -1    0    0  502    0  0.00000000000E+00  0.00000000000E+00  0.24079727501E+03  0.24079727501E+03  0.00000000000E+00 0.  1.
         13   -1    0    0    0    0 -0.00000000000E+00 -0.00000000000E+00 -0.27500000000E+03  0.27500000000E+03  0.00000000000E+00 0.  1.
    9000005    2    1    2  501    0  0.97164529017E+01 -0.32819215694E+02 -0.30035104618E+02  0.48131714399E+03  0.47915819435E+03 0.  0.
         13    1    3    3    0    0 -0.74384979783E+02  0.50130817434E+02 -0.23122375824E+03  0.24801340780E+03  0.00000000000E+00 0.  1.
          1    1    3    3  501    0  0.84101432685E+02 -0.82950033128E+02  0.20118865362E+03  0.23330373619E+03  0.00000000000E+00 0.  1.
         21    1    1    2  502  501 -0.97164529017E+01  0.32819215694E+02 -0.41676203698E+01  0.34480131022E+02  0.00000000000E+00 0.  1.
<scales pt_clust_4="550.00000" pt_clust_5="550.00000" pt_clust_6="34.22735"></scales>
<mgrwt>
<rscale>  0 0.30000000E+03</rscale>
<asrwt>  1 0.34227351E+02</asrwt>
<pdfrwt beam="1">  1        1 0.87562645E+00 0.30000000E+03</pdfrwt>
<pdfrwt beam="2">0</pdfrwt>
<totfact> 0.22242791E-04</totfact>
</mgrwt>
<clustering>
<clus scale="   34.227">  1  6  2 -1</clus>
<clus scale="  479.158">  4  5 -1 -1</clus>
<clus scale="  300.000">  1  4  2 -1</clus>
</clustering>
</event>
<event>
 6    1  0.9462926E-012  0.3000000E+03  0.7818608E-02  0.1093470E+00
          1   -1    0    0  502    0  0.00000000000E+00  0.00000000000E+00  0.23311424463E+03  0.23311424463E+03  0.00000000000E+00 0.  1.
         13   -1    0    0    0    0 -0.00000000000E+00 -0.00000000000E+00 -0.27500000000E+03  0.27500000000E+03  0.00000000000E+00 0.  1.
    9000005    2    1    2  501    0 -0.31101666019E+02  0.70215579530E+01 -0.45232678623E+02  0.47605464700E+03  0.47282704640E+03 0.  0.
         13    1    3    3    0    0  0.16258639147E+03  0.74189160254E+02 -0.16107067044E+03  0.24058704676E+03  0.00000000000E+00 0.  1.
          3    1    3    3  501    0 -0.19368805749E+03 -0.67167602301E+02  0.11583799182E+03  0.23546760024E+03  0.00000000000E+00 0.  1.
         21    1    1    2  502  501  0.31101666019E+02 -0.70215579530E+01  0.33469232579E+01  0.32059597636E+02  0.00000000000E+00 0. -1.
<scales pt_clust_4="550.00000" pt_clust_5="550.00000" pt_clust_6="31.88441"></scales>
<mgrwt>
<rscale>  0 0.30000000E+03</rscale>
<asrwt>  1 0.31884415E+02</asrwt>
<pdfrwt beam="1">  1        1 0.84768816E+00 0.30000000E+03</pdfrwt>
<pdfrwt beam="2">0</pdfrwt>
<totfact> 0.43511658E-04</totfact>
</mgrwt>
<clustering>
<clus scale="   31.884">  1  6  2 -1</clus>
<clus scale="  472.827">  4  5 -1 -1</clus>
<clus scale="  300.000">  1  4  2 -1</clus>
</clustering>
</event>
<event>
 6    1  0.9462926E-012  0.3000000E+03  0.7818608E-02  0.1093470E+00
          1   -1    0    0  502    0  0.00000000000E+00  0.00000000000E+00  0.23220832403E+03  0.23220832403E+03  0.00000000000E+00 0.  1.
         13   -1    0    0    0    0 -0.00000000000E+00 -0.00000000000E+00 -0.27500000000E+03  0.27500000000E+03  0.00000000000E+00 0.  1.
    9000005    2    1    2  501    0 -0.15171122247E+02 -0.35728511014E+02 -0.40039593182E+02  0.46829478642E+03  0.46496252378E+03 0.  0.
         13    1    3    3    0    0 -0.11928688453E+03  0.21192778819E+02  0.18077390914E+03  0.21761824584E+03  0.00000000000E+00 0.  1.
          1    1    3    3  501    0  0.10411576229E+03 -0.56921289833E+02 -0.22081350232E+03  0.25067654058E+03  0.00000000000E+00 0.  1.
         21    1    1    2  502  501  0.15171122247E+02  0.35728511014E+02 -0.27520827884E+01  0.38913537609E+02  0.00000000000E+00 0.  1.
<scales pt_clust_4="550.00000" pt_clust_5="550.00000" pt_clust_6="38.81610"></scales>
<mgrwt>
<rscale>  0 0.30000000E+03</rscale>
<asrwt>  1 0.38816098E+02</asrwt>
<pdfrwt beam="1">  1        1 0.84439391E+00 0.30000000E+03</pdfrwt>
<pdfrwt beam="2">0</pdfrwt>
<totfact> 0.44865315E-04</totfact>
</mgrwt>
<clustering>
<clus scale="   38.816">  1  6  2 -1</clus>
<clus scale="  464.963">  4  5 -1 -1</clus>
<clus scale="  300.000">  1  4  2 -1</clus>
</clustering>
</event>
<event>
 6    1  0.9462926E-012  0.3000000E+03  0.7818608E-02  0.1093470E+00
          1   -1    0    0  502    0  0.00000000000E+00  0.00000000000E+00  0.24326365263E+03  0.24326365263E+03  0.00000000000E+00 0.  1.
         13   -1    0    0    0    0 -0.00000000000E+00 -0.00000000000E+00 -0.27500000000E+03  0.27500000000E+03  0.00000000000E+00 0.  1.
    9000005    2    1    2  501    0  0.14639554113E+02 -0.49607083583E+02 -0.33420559202E+02  0.46651410330E+03  0.46243193609E+03 0.  0.
         13    1    3    3    0    0  0.12011031773E+03  0.54675000960E+02  0.16971928597E+03  0.21498948854E+03  0.00000000000E+00 0.  1.
          1    1    3    3  501    0 -0.10547076362E+03 -0.10428208454E+03 -0.20313984517E+03  0.25152461476E+03  0.00000000000E+00 0.  1.
         21    1    1    2  502  501 -0.14639554113E+02  0.49607083583E+02  0.16842118328E+01  0.51749549329E+02  0.00000000000E+00 0. -1.
<scales pt_clust_4="550.00000" pt_clust_5="550.00000" pt_clust_6="51.72214"></scales>
<mgrwt>
<rscale>  0 0.30000000E+03</rscale>
<asrwt>  1 0.51722135E+02</asrwt>
<pdfrwt beam="1">  1        1 0.88459510E+00 0.30000000E+03</pdfrwt>
<pdfrwt beam="2">0</pdfrwt>
<totfact> 0.16018414E-04</totfact>
</mgrwt>
<clustering>
<clus scale="   51.722">  1  6  2 -1</clus>
<clus scale="  462.432">  4  5 -1 -1</clus>
<clus scale="  300.000">  1  4  2 -1</clus>
</clustering>
</event>
<event>
 6    1  0.9462926E-012  0.3000000E+03  0.7818608E-02  0.1093470E+00
          1   -1    0    0  502    0  0.00000000000E+00  0.00000000000E+00  0.25360861953E+03  0.25360861953E+03  0.00000000000E+00 0.  1.
         13   -1    0    0    0    0 -0.00000000000E+00 -0.00000000000E+00 -0.27500000000E+03  0.27500000000E+03  0.00000000000E+00 0.  1.
    9000005    2    1    2  501    0 -0.20406129467E+02  0.36275787318E+02 -0.53030196002E+02  0.47632709781E+03  0.47153256468E+03 0.  0.
         13    1    3    3    0    0 -0.36127169248E+02 -0.21309761874E+03  0.17070828726E+02  0.21681139422E+03  0.00000000000E+00 0.  1.
          3    1    3    3  501    0  0.15721039781E+02  0.24937340606E+03 -0.70101024728E+02  0.25951570359E+03  0.00000000000E+00 0.  1.
         21    1    1    2  502  501  0.20406129467E+02 -0.36275787318E+02  0.31638815533E+02  0.52281521724E+02  0.00000000000E+00 0. -1.
<scales pt_clust_4="550.00000" pt_clust_5="550.00000" pt_clust_6="41.62142"></scales>
<mgrwt>
<rscale>  0 0.30000000E+03</rscale>
<asrwt>  1 0.41621423E+02</asrwt>
<pdfrwt beam="1">  1        1 0.92221316E+00 0.30000000E+03</pdfrwt>
<pdfrwt beam="2">0</pdfrwt>
<totfact> 0.36306582E-05</totfact>
</mgrwt>
<clustering>
<clus scale="   41.621">  1  6  2 -1</clus>
<clus scale="  471.533">  4  5 -1 -1</clus>
<clus scale="  300.000">  1  4  2 -1</clus>
</clustering>
</event>
<event>
 6    1  0.9462926E-012  0.3000000E+03  0.7818608E-02  0.1093470E+00
          1   -1    0    0  502    0  0.00000000000E+00  0.00000000000E+00  0.26262710547E+03  0.26262710547E+03  0.00000000000E+00 0.  1.
         13   -1    0    0    0    0 -0.00000000000E+00 -0.00000000000E+00 -0.27500000000E+03  0.27500000000E+03  0.00000000000E+00 0.  1.
    9000005    2    1    2  501    0  0.10947844759E+01  0.38802860032E+02 -0.28276224191E+02  0.49567741663E+03  0.49334541247E+03 0.  0.
         13    1    3    3    0    0  0.94752226885E+02  0.20224568189E+03  0.12219361634E+03  0.25458314991E+03  0.00000000000E+00 0.  1.
          3    1    3    3  501    0 -0.93657442409E+02 -0.16344282186E+03 -0.15046984053E+03  0.24109426672E+03  0.00000000000E+00 0.  1.
         21    1    1    2  502  501 -0.10947844759E+01 -0.38802860032E+02  0.15903329663E+02  0.41949688844E+02  0.00000000000E+00 0.  1.
<scales pt_clust_4="550.00000" pt_clust_5="550.00000" pt_clust_6="38.81830"></scales>
<mgrwt>
<rscale>  0 0.30000000E+03</rscale>
<asrwt>  1 0.38818301E+02</asrwt>
<pdfrwt beam="1">  1        1 0.95500766E+00 0.30000000E+03</pdfrwt>
<pdfrwt beam="2">0</pdfrwt>
<totfact> 0.95194580E-06</totfact>
</mgrwt>
<clustering>
<clus scale="   38.818">  1  6  2 -1</clus>
<clus scale="  493.345">  4  5 -1 -1</clus>
<clus scale="  300.000">  1  4  2 -1</clus>
</clustering>
</event>
<event>
 6    1  0.9462926E-012  0.3000000E+03  0.7818608E-02  0.1093470E+00
          1   -1    0    0  502    0  0.00000000000E+00  0.00000000000E+00  0.22863108655E+03  0.22863108655E+03  0.00000000000E+00 0.  1.
         13   -1    0    0    0    0 -0.00000000000E+00 -0.00000000000E+00 -0.27500000000E+03  0.27500000000E+03  0.00000000000E+00 0.  1.
    9000005    2    1    2  501    0 -0.14803956617E+02  0.26673266583E+02 -0.40414123923E+02  0.47254926228E+03  0.46982856830E+03 0.  0.
         13    1    3    3    0    0  0.14751024135E+03  0.15406160572E+03 -0.12760393104E+03  0.24854981971E+03  0.00000000000E+00 0.  1.
          1    1    3    3  501    0 -0.16231419797E+03 -0.12738833914E+03  0.87189807113E+02  0.22399944258E+03  0.00000000000E+00 0.  1.
         21    1    1    2  502  501  0.14803956617E+02 -0.26673266583E+02 -0.59547895236E+01  0.31081824271E+02  0.00000000000E+00 0.  1.
<scales pt_clust_4="550.00000" pt_clust_5="550.00000" pt_clust_6="30.50608"></scales>
<mgrwt>
<rscale>  0 0.30000000E+03</rscale>
<asrwt>  1 0.30506085E+02</asrwt>
<pdfrwt beam="1">  1        1 0.83138577E+00 0.30000000E+03</pdfrwt>
<pdfrwt beam="2">0</pdfrwt>
<totfact> 0.59120341E-04</totfact>
</mgrwt>
<clustering>
<clus scale="   30.506">  1  6  2 -1</clus>
<clus scale="  469.829">  4  5 -1 -1</clus>
<clus scale="  300.000">  1  4  2 -1</clus>
</clustering>
</event>
<event>
 6    1  0.9462926E-012  0.3000000E+03  0.7818608E-02  0.1093470E+00
          1   -1    0    0  502    0  0.00000000000E+00  0.00000000000E+00  0.22350456398E+03  0.22350456398E+03  0.00000000000E+00 0.  1.
         13   -1    0    0    0    0 -0.00000000000E+00 -0.00000000000E+00 -0.27500000000E+03  0.27500000000E+03  0.00000000000E+00 0.  1.
    9000005    2    1    2  501    0 -0.37627831841E+01 -0.30121639728E+02 -0.63232869088E+02  0.46595861105E+03  0.46064906356E+03 0.  0.
         13    1    3    3    0    0  0.14526667150E+03  0.52262555480E+02  0.13467979546E+03  0.20487173514E+03  0.00000000000E+00 0.  1.
          1    1    3    3  501    0 -0.14902945468E+03 -0.82384195208E+02 -0.19791266454E+03  0.26108687591E+03  0.00000000000E+00 0.  1.
         21    1    1    2  502  501  0.37627831841E+01  0.30121639728E+02  0.11737433063E+02  0.32545952930E+02  0.00000000000E+00 0. -1.
<scales pt_clust_4="550.00000" pt_clust_5="550.00000" pt_clust_6="30.35575"></scales>
<mgrwt>
<rscale>  0 0.30000000E+03</rscale>
<asrwt>  1 0.30355753E+02</asrwt>
<pdfrwt beam="1">  1        1 0.81274387E+00 0.30000000E+03</pdfrwt>
<pdfrwt beam="2">0</pdfrwt>
<totfact> 0.85256205E-04</totfact>
</mgrwt>
<clustering>
<clus scale="   30.356">  1  6  2 -1</clus>
<clus scale="  460.649">  4  5 -1 -1</clus>
<clus scale="  300.000">  1  4  2 -1</clus>
</clustering>
</event>
<event>
 6    1  0.9462926E-012  0.3000000E+03  0.7818608E-02  0.1093470E+00
          1   -1    0    0  502    0  0.00000000000E+00  0.00000000000E+00  0.23469956641E+03  0.23469956641E+03  0.00000000000E+00 0.  1.
         13   -1    0    0    0    0 -0.00000000000E+00 -0.00000000000E+00 -0.27500000000E+03  0.27500000000E+03  0.00000000000E+00 0.  1.
    9000005    2    1    2  501    0 -0.14200887474E+02 -0.40334769383E+02 -0.57996848104E+02  0.46342082493E+03  0.45778452111E+03 0.  0.
         13    1    3    3    0    0  0.10925908104E+03  0.13629633462E+03  0.95270967876E+02  0.19897435749E+03  0.00000000000E+00 0.  1.
          3    1    3    3  501    0 -0.12345996851E+03 -0.17663110400E+03 -0.15326781598E+03  0.26444646744E+03  0.00000000000E+00 0.  1.
         21    1    1    2  502  501  0.14200887474E+02  0.40334769383E+02  0.17696414515E+02  0.46278741479E+02  0.00000000000E+00 0. -1.
<scales pt_clust_4="550.00000" pt_clust_5="550.00000" pt_clust_6="42.76165"></scales>
<mgrwt>
<rscale>  0 0.30000000E+03</rscale>
<asrwt>  1 0.42761651E+02</asrwt>
<pdfrwt beam="1">  1        1 0.85345297E+00 0.30000000E+03</pdfrwt>
<pdfrwt beam="2">0</pdfrwt>
<totfact> 0.36362218E-04</totfact>
</mgrwt>
<clustering>
<clus scale="   42.762">  1  6  2 -1</clus>
<clus scale="  457.785">  4  5 -1 -1</clus>
<clus scale="  300.000">  1  4  2 -1</clus>
</clustering>
</event>
<event>
 6    1  0.9462926E-012  0.3000000E+03  0.7818608E-02  0.1093470E+00
          1   -1    0    0  502    0  0.00000000000E+00  0.00000000000E+00  0.22965637232E+03  0.22965637232E+03  0.00000000000E+00 0.  1.
         13   -1    0    0    0    0 -0.00000000000E+00 -0.00000000000E+00 -0.27500000000E+03  0.27500000000E+03  0.00000000000E+00 0.  1.
    9000005    2    1    2  501    0  0.30086430996E+02 -0.74340448004E+01 -0.68256001554E+02  0.46611502791E+03  0.46004769225E+03 0.  0.
         13    1    3    3    0    0 -0.79088951722E+02  0.20583705496E+03 -0.47977435945E+02  0.22566743194E+03  0.00000000000E+00 0.  1.
          3    1    3    3  501    0  0.10917538272E+03 -0.21327109976E+03 -0.20278565609E+02  0.24044759597E+03  0.00000000000E+00 0.  1.
         21    1    1    2  502  501 -0.30086430996E+02  0.74340448004E+01  0.22912373872E+02  0.38541344405E+02  0.00000000000E+00 0.  1.
<scales pt_clust_4="550.00000" pt_clust_5="550.00000" pt_clust_6="30.99126"></scales>
<mgrwt>
<rscale>  0 0.30000000E+03</rscale>
<asrwt>  1 0.30991263E+02</asrwt>
<pdfrwt beam="1">  1        1 0.83511408E+00 0.30000000E+03</pdfrwt>
<pdfrwt beam="2">0</pdfrwt>
<totfact> 0.55252353E-04</totfact>
</mgrwt>
<clustering>
<clus scale="   30.991">  1  6  2 -1</clus>
<clus scale="  460.048">  4  5 -1 -1</clus>
<clus scale="  300.000">  1  4  2 -1</clus>
</clustering>
</event>
<event>
 6    1  0.9462926E-012  0.3000000E+03  0.7818608E-02  0.1093470E+00
          1   -1    0    0  502    0  0.00000000000E+00  0.00000000000E+00  0.24738044553E+03  0.24738044553E+03  0.00000000000E+00 0.  1.
         13   -1    0    0    0    0 -0.00000000000E+00 -0.00000000000E+00 -0.27500000000E+03  0.27500000000E+03  0.00000000000E+00 0.  1.
    9000005    2    1    2  501    0  0.28459853012E+02  0.10608494503E+02 -0.47998574752E+02  0.48580438974E+03  0.48247231892E+03 0.  0.
         13    1    3    3    0    0 -0.78680109500E+02  0.15835570377E+01  0.20031146650E+03  0.21521559166E+03  0.00000000000E+00 0.  1.
          3    1    3    3  501    0  0.10713996251E+03  0.90249374655E+01 -0.24831004125E+03  0.27058879808E+03  0.00000000000E+00 0.  1.
         21    1    1    2  502  501 -0.28459853012E+02 -0.10608494503E+02  0.20379020278E+02  0.36576055782E+02  0.00000000000E+00 0.  1.
<scales pt_clust_4="550.00000" pt_clust_5="550.00000" pt_clust_6="30.37274"></scales>
<mgrwt>
<rscale>  0 0.30000000E+03</rscale>
<asrwt>  1 0.30372741E+02</asrwt>
<pdfrwt beam="1">  1        1 0.89956526E+00 0.30000000E+03</pdfrwt>
<pdfrwt beam="2">0</pdfrwt>
<totfact> 0.11486795E-04</totfact>
</mgrwt>
<clustering>
<clus scale="   30.373">  1  6  2 -1</clus>
<clus scale="  482.472">  4  5 -1 -1</clus>
<clus scale="  300.000">  1  4  2 -1</clus>
</clustering>
</event>
<event>
 6    1  0.9462926E-012  0.3000000E+03  0.7818608E-02  0.1093470E+00
          1   -1    0    0  502    0  0.00000000000E+00  0.00000000000E+00  0.23050077387E+03  0.23050077387E+03  0.00000000000E+00 0.  1.
         13   -1    0    0    0    0 -0.00000000000E+00 -0.00000000000E+00 -0.27500000000E+03  0.27500000000E+03  0.00000000000E+00 0.  1.
    9000005    2    1    2  501    0  0.31423494081E+02 -0.99461807632E+01 -0.67559267000E+02  0.46527481239E+03  0.45916231770E+03 0.  0.
         13    1    3    3    0    0  0.80558875865E+02 -0.19567914654E+03  0.76633014543E+02  0.22506150224E+03  0.00000000000E+00 0.  1.
          3    1    3    3  501    0 -0.49135381784E+02  0.18573296578E+03 -0.14419228154E+03  0.24021331015E+03  0.00000000000E+00 0.  1.
         21    1    1    2  502  501 -0.31423494081E+02  0.99461807632E+01  0.23060040870E+02  0.40225961480E+02  0.00000000000E+00 0.  1.
<scales pt_clust_4="550.00000" pt_clust_5="550.00000" pt_clust_6="32.96001"></scales>
<mgrwt>
<rscale>  0 0.30000000E+03</rscale>
<asrwt>  1 0.32960014E+02</asrwt>
<pdfrwt beam="1">  1        1 0.83818463E+00 0.30000000E+03</pdfrwt>
<pdfrwt beam="2">0</pdfrwt>
<totfact> 0.51869123E-04</totfact>
</mgrwt>
<clustering>
<clus scale="   32.960">  1  6  2 -1</clus>
<clus scale="  459.162">  4  5 -1 -1</clus>
<clus scale="  300.000">  1  4  2 -1</clus>
</clustering>
</event>
<event>
 6    1  0.9462926E-012  0.3000000E+03  0.7818608E-02  0.1093470E+00
          1   -1    0    0  502    0  0.00000000000E+00  0.00000000000E+00  0.23772766330E+03  0.23772766330E+03  0.00000000000E+00 0.  1.
         13   -1    0    0    0    0 -0.00000000000E+00 -0.00000000000E+00 -0.27500000000E+03  0.27500000000E+03  0.00000000000E+00 0.  1.
    9000005    2    1    2  501    0 -0.12363443362E+02 -0.29333413442E+02 -0.35097208706E+02  0.48082100165E+03  0.47848063461E+03 0.  0.
         13    1    3    3    0    0 -0.16176209797E+03 -0.19629009283E+03 -0.35200020491E+02  0.25677970778E+03  0.00000000000E+00 0.  1.
          1    1    3    3  501    0  0.14939865460E+03  0.16695667939E+03  0.10281178470E+00  0.22404129387E+03  0.00000000000E+00 0.  1.
         21    1    1    2  502  501  0.12363443362E+02  0.29333413442E+02 -0.21751279930E+01  0.31906661651E+02  0.00000000000E+00 0. -1.
<scales pt_clust_4="550.00000" pt_clust_5="550.00000" pt_clust_6="31.83243"></scales>
<mgrwt>
<rscale>  0 0.30000000E+03</rscale>
<asrwt>  1 0.31832434E+02</asrwt>
<pdfrwt beam="1">  1        1 0.86446423E+00 0.30000000E+03</pdfrwt>
<pdfrwt beam="2">0</pdfrwt>
<totfact> 0.29475413E-04</totfact>
</mgrwt>
<clustering>
<clus scale="   31.832">  1  6  2 -1</clus>
<clus scale="  478.481">  4  5 -1 -1</clus>
<clus scale="  300.000">  1  4  2 -1</clus>
</clustering>
</event>
<event>
 6    1  0.9462926E-012  0.3000000E+03  0.7818608E-02  0.1093470E+00
          1   -1    0    0  502    0  0.00000000000E+00  0.00000000000E+00  0.23762341457E+03  0.23762341457E+03  0.00000000000E+00 0.  1.
         13   -1    0    0    0    0 -0.00000000000E+00 -0.00000000000E+00 -0.27500000000E+03  0.27500000000E+03  0.00000000000E+00 0.  1.
    9000005    2    1    2  501    0  0.25030792603E+02 -0.16762664367E+02 -0.49632123279E+02  0.48010071937E+03  0.47657719793E+03 0.  0.
         13    1    3    3    0    0  0.32527390425E+02  0.21849548236E+03  0.46678645191E+02  0.22578131645E+03  0.00000000000E+00 0.  1.
          3    1    3    3  501    0 -0.74965978211E+01 -0.23525814673E+03 -0.96310768470E+02  0.25431940293E+03  0.00000000000E+00 0.  1.
         21    1    1    2  502  501 -0.25030792603E+02  0.16762664367E+02  0.12255537852E+02  0.32522695200E+02  0.00000000000E+00 0.  1.
<scales pt_clust_4="550.00000" pt_clust_5="550.00000" pt_clust_6="30.12520"></scales>
<mgrwt>
<rscale>  0 0.30000000E+03</rscale>
<asrwt>  1 0.30125197E+02</asrwt>
<pdfrwt beam="1">  1        1 0.86408514E+00 0.30000000E+03</pdfrwt>
<pdfrwt beam="2">0</pdfrwt>
<totfact> 0.30070295E-04</totfact>
</mgrwt>
<clustering>
<clus scale="   30.125">  1  6  2 -1</clus>
<clus scale="  476.577">  4  5 -1 -1</clus>
<clus scale="  300.000">  1  4  2 -1</clus>
</clustering>
</event>
<event>
 6    1  0.9462926E-012  0.3000000E+03  0.7818608E-02  0.1093470E+00
          1   -1    0    0  502    0  0.00000000000E+00  0.00000000000E+00  0.23145213240E+03  0.23145213240E+03  0.00000000000E+00 0.  1.
         13   -1    0    0    0    0 -0.00000000000E+00 -0.00000000000E+00 -0.27500000000E+03  0.27500000000E+03  0.00000000000E+00 0.  1.
    9000005    2    1    2  501    0 -0.31262911087E+02  0.27509046520E+00 -0.44039752193E+02  0.47518414182E+03  0.47210488621E+03 0.  0.
         13    1    3    3    0    0 -0.73153289476E+02  0.63260878377E+02 -0.24342426473E+03  0.26193265385E+03  0.00000000000E+00 0.  1.
          1    1    3    3  501    0  0.41890378389E+02 -0.62985787911E+02  0.19938451254E+03  0.21325148797E+03  0.00000000000E+00 0.  1.
         21    1    1    2  502  501  0.31262911087E+02 -0.27509046520E+00  0.49188459684E+00  0.31267990579E+02  0.00000000000E+00 0. -1.
<scales pt_clust_4="550.00000" pt_clust_5="550.00000" pt_clust_6="31.26412"></scales>
<mgrwt>
<rscale>  0 0.30000000E+03</rscale>
<asrwt>  1 0.31264121E+02</asrwt>
<pdfrwt beam="1">  1        1 0.84164412E+00 0.30000000E+03</pdfrwt>
<pdfrwt beam="2">0</pdfrwt>
<totfact> 0.49280532E-04</totfact>
</mgrwt>
<clustering>
<clus scale="   31.264">  1  6  2 -1</clus>
<clus scale="  472.105">  4  5 -1 -1</clus>
<clus scale="  300.000">  1  4  2 -1</clus>
</clustering>
</event>
<event>
 6    1  0.9462926E-012  0.3000000E+03  0.7818608E-02  0.1093470E+00
          1   -1    0    0  502    0  0.00000000000E+00  0.00000000000E+00  0.23600281732E+03  0.23600281732E+03  0.00000000000E+00 0.  1.
         13   -1    0    0    0    0 -0.00000000000E+00 -0.00000000000E+00 -0.27500000000E+03  0.27500000000E+03  0.00000000000E+00 0.  1.
    9000005    2    1    2  501    0 -0.27476831624E+02 -0.17911605052E+02 -0.69601766275E+02  0.46614256310E+03  0.45974849798E+03 0.  0.
         13    1    3    3    0    0 -0.45304626504E+02 -0.15877914526E+03  0.13761512955E+03  0.21494476042E+03  0.00000000000E+00 0.  1.
          1    1    3    3  501    0  0.17827794880E+02  0.14086754021E+03 -0.20721689582E+03  0.25119780268E+03  0.00000000000E+00 0.  1.
         21    1    1    2  502  501  0.27476831624E+02  0.17911605052E+02  0.30604583591E+02  0.44860254217E+02  0.00000000000E+00 0.  1.
<scales pt_clust_4="550.00000" pt_clust_5="550.00000" pt_clust_6="32.79942"></scales>
<mgrwt>
<rscale>  0 0.30000000E+03</rscale>
<asrwt>  1 0.32799419E+02</asrwt>
<pdfrwt beam="1">  1        1 0.85819206E+00 0.30000000E+03</pdfrwt>
<pdfrwt beam="2">0</pdfrwt>
<totfact> 0.34216933E-04</totfact>
</mgrwt>
<clustering>
<clus scale="   32.799">  1  6  2 -1</clus>
<clus scale="  459.748">  4  5 -1 -1</clus>
<clus scale="  300.000">  1  4  2 -1</clus>
</clustering>
</event>
<event>
 6    1  0.9462926E-012  0.3000000E+03  0.7818608E-02  0.1093470E+00
          1   -1    0    0  502    0  0.00000000000E+00  0.00000000000E+00  0.23795677406E+03  0.23795677406E+03  0.00000000000E+00 0.  1.
         13   -1    0    0    0    0 -0.00000000000E+00 -0.00000000000E+00 -0.27500000000E+03  0.27500000000E+03  0.00000000000E+00 0.  1.
    9000005    2    1    2  501    0  0.38491298446E+02  0.21590133953E+02 -0.57082816157E+02  0.46448720509E+03  0.45884877885E+03 0.  0.
         13    1    3    3    0    0 -0.91113854282E+02  0.21167391438E+03 -0.18286625697E+02  0.23117521742E+03  0.00000000000E+00 0.  1.
          3    1    3    3  501    0  0.12960515273E+03 -0.19008378043E+03 -0.38796190461E+02  0.23331198767E+03  0.00000000000E+00 0.  1.
         21    1    1    2  502  501 -0.38491298446E+02 -0.21590133953E+02  0.20039590222E+02  0.48469568973E+02  0.00000000000E+00 0.  1.
<scales pt_clust_4="550.00000" pt_clust_5="550.00000" pt_clust_6="44.13291"></scales>
<mgrwt>
<rscale>  0 0.30000000E+03</rscale>
<asrwt>  1 0.44132912E+02</asrwt>
<pdfrwt beam="1">  1        1 0.86529736E+00 0.30000000E+03</pdfrwt>
<pdfrwt beam="2">0</pdfrwt>
<totfact> 0.27181876E-04</totfact>
</mgrwt>
<clustering>
<clus scale="   44.133">  1  6  2 -1</clus>
<clus scale="  458.849">  4  5 -1 -1</clus>
<clus scale="  300.000">  1  4  2 -1</clus>
</clustering>
</event>
<event>
 6    1  0.9462926E-012  0.3000000E+03  0.7818608E-02  0.1093470E+00
          1   -1    0    0  502    0  0.00000000000E+00  0.00000000000E+00  0.22645026216E+03  0.22645026216E+03  0.00000000000E+00 0.  1.
         13   -1    0    0    0    0 -0.00000000000E+00 -0.00000000000E+00 -0.27500000000E+03  0.27500000000E+03  0.00000000000E+00 0.  1.
    9000005    2    1    2  501    0  0.31663673820E+02 -0.13184281481E+02 -0.46571508096E+02  0.46709437604E+03  0.46349955474E+03 0.  0.
         13    1    3    3    0    0 -0.41055710686E+01  0.91839394142E+00 -0.25505772834E+03  0.25509242236E+03  0.00000000000E+00 0.  1.
          3    1    3    3  501    0  0.35769244889E+02 -0.14102675422E+02  0.20848622024E+03  0.21200195368E+03  0.00000000000E+00 0.  1.
         21    1    1    2  502  501 -0.31663673820E+02  0.13184281481E+02 -0.19782297462E+01  0.34355886117E+02  0.00000000000E+00 0. -1.
<scales pt_clust_4="550.00000" pt_clust_5="550.00000" pt_clust_6="34.29889"></scales>
<mgrwt>
<rscale>  0 0.30000000E+03</rscale>
<asrwt>  1 0.34298885E+02</asrwt>
<pdfrwt beam="1">  1        1 0.82345550E+00 0.30000000E+03</pdfrwt>
<pdfrwt beam="2">0</pdfrwt>
<totfact> 0.67682002E-04</totfact>
</mgrwt>
<clustering>
<clus scale="   34.299">  1  6  2 -1</clus>
<clus scale="  463.500">  4  5 -1 -1</clus>
<clus scale="  300.000">  1  4  2 -1</clus>
</clustering>
</event>
<event>
 6    1  0.9462926E-012  0.3000000E+03  0.7818608E-02  0.1093470E+00
          1   -1    0    0  502    0  0.00000000000E+00  0.00000000000E+00  0.22948287273E+03  0.22948287273E+03  0.00000000000E+00 0.  1.
         13   -1    0    0    0    0 -0.00000000000E+00 -0.00000000000E+00 -0.27500000000E+03  0.27500000000E+03  0.00000000000E+00 0.  1.
    9000005    2    1    2  501    0  0.20916560075E+02 -0.36544828149E+02 -0.43166647945E+02  0.46230999397E+03  0.45836027760E+03 0.  0.
         13    1    3    3    0    0 -0.10300189509E+03  0.18067267221E+03 -0.42303612846E+02  0.21223006510E+03  0.00000000000E+00 0.  1.
          1    1    3    3  501    0  0.12391845516E+03 -0.21721750036E+03 -0.86303509835E+00  0.25007992886E+03  0.00000000000E+00 0.  1.
         21    1    1    2  502  501 -0.20916560075E+02  0.36544828149E+02 -0.23504793278E+01  0.42172878760E+02  0.00000000000E+00 0. -1.
<scales pt_clust_4="550.00000" pt_clust_5="550.00000" pt_clust_6="42.10733"></scales>
<mgrwt>
<rscale>  0 0.30000000E+03</rscale>
<asrwt>  1 0.42107327E+02</asrwt>
<pdfrwt beam="1">  1        1 0.83448317E+00 0.30000000E+03</pdfrwt>
<pdfrwt beam="2">0</pdfrwt>
<totfact> 0.52748416E-04</totfact>
</mgrwt>
<clustering>
<clus scale="   42.107">  1  6  2 -1</clus>
<clus scale="  458.360">  4  5 -1 -1</clus>
<clus scale="  300.000">  1  4  2 -1</clus>
</clustering>
</event>
<event>
 6    1  0.9462926E-012  0.3000000E+03  0.7818608E-02  0.1093470E+00
          1   -1    0    0  502    0  0.00000000000E+00  0.00000000000E+00  0.22106444454E+03  0.22106444454E+03  0.00000000000E+00 0.  1.
         13   -1    0    0    0    0 -0.00000000000E+00 -0.00000000000E+00 -0.27500000000E+03  0.27500000000E+03  0.00000000000E+00 0.  1.
    9000005    2    1    2  501    0 -0.20193885265E+02 -0.26682472894E+02 -0.60792483004E+02  0.46190650524E+03  0.45666415037E+03 0.  0.
         13    1    3    3    0    0 -0.68810930203E+02 -0.22857292652E+03 -0.83768496272E+02  0.25297764292E+03  0.00000000000E+00 0.  1.
          3    1    3    3  501    0  0.48617044938E+02  0.20189045362E+03  0.22976013268E+02  0.20892886231E+03  0.00000000000E+00 0.  1.
         21    1    1    2  502  501  0.20193885265E+02  0.26682472894E+02  0.68569275409E+01  0.34157939299E+02  0.00000000000E+00 0.  1.
<scales pt_clust_4="550.00000" pt_clust_5="550.00000" pt_clust_6="33.46263"></scales>
<mgrwt>
<rscale>  0 0.30000000E+03</rscale>
<asrwt>  1 0.33462626E+02</asrwt>
<pdfrwt beam="1">  1        1 0.80387071E+00 0.30000000E+03</pdfrwt>
<pdfrwt beam="2">0</pdfrwt>
<totfact> 0.97993661E-04</totfact>
</mgrwt>
<clustering>
<clus scale="   33.463">  1  6  2 -1</clus>
<clus scale="  456.664">  4  5 -1 -1</clus>
<clus scale="  300.000">  1  4  2 -1</clus>
</clustering>
</event>
<event>
 6    1  0.9462926E-012  0.3000000E+03  0.7818608E-02  0.1093470E+00
          1   -1    0    0  502    0  0.00000000000E+00  0.00000000000E+00  0.22141523676E+03  0.22141523676E+03  0.00000000000E+00 0.  1.
         13   -1    0    0    0    0 -0.00000000000E+00 -0.00000000000E+00 -0.27500000000E+03  0.27500000000E+03  0.00000000000E+00 0.  1.
    9000005    2    1    2  501    0  0.11771862131E+02  0.28094122302E+02 -0.62849385505E+02  0.46457674321E+03  0.45929690683E+03 0.  0.
         13    1    3    3    0    0  0.14302847353E+03  0.19837428200E+03 -0.46660530370E+02  0.24897129371E+03  0.00000000000E+00 0.  1.
          3    1    3    3  501    0 -0.13125661140E+03 -0.17028015969E+03 -0.16188855135E+02  0.21560544950E+03  0.00000000000E+00 0.  1.
         21    1    1    2  502  501 -0.11771862131E+02 -0.28094122302E+02  0.92646222652E+01  0.31838493552E+02  0.00000000000E+00 0.  1.
<scales pt_clust_4="550.00000" pt_clust_5="550.00000" pt_clust_6="30.46074"></scales>
<mgrwt>
<rscale>  0 0.30000000E+03</rscale>
<asrwt>  1 0.30460736E+02</asrwt>
<pdfrwt beam="1">  1        1 0.80514632E+00 0.30000000E+03</pdfrwt>
<pdfrwt beam="2">0</pdfrwt>
<totfact> 0.97587013E-04</totfact>
</mgrwt>
<clustering>
<clus scale="   30.461">  1  6  2 -1</clus>
<clus scale="  459.297">  4  5 -1 -1</clus>
<clus scale="  300.000">  1  4  2 -1</clus>
</clustering>
</event>
<event>
 6    1  0.9462926E-012  0.3000000E+03  0.7818608E-02  0.1093470E+00
          1   -1    0    0  502    0  0.00000000000E+00  0.00000000000E+00  0.23906441669E+03  0.23906441669E+03  0.00000000000E+00 0.  1.
         13   -1    0    0    0    0 -0.00000000000E+00 -0.00000000000E+00 -0.27500000000E+03  0.27500000000E+03  0.00000000000E+00 0.  1.
    9000005    2    1    2  501    0 -0.24783276065E+02  0.24464202221E+02 -0.52239980926E+02  0.47561261121E+03  0.47145056196E+03 0.  0.
         13    1    3    3    0    0 -0.20159673585E+03  0.14001476047E+03 -0.89249998740E+02  0.26117224073E+03  0.00000000000E+00 0.  1.
          1    1    3    3  501    0  0.17681345978E+03 -0.11555055825E+03  0.37010017814E+02  0.21444037048E+03  0.00000000000E+00 0.  1.
         21    1    1    2  502  501  0.24783276065E+02 -0.24464202221E+02  0.16304397615E+02  0.38451805476E+02  0.00000000000E+00 0.  1.
<scales pt_clust_4="550.00000" pt_clust_5="550.00000" pt_clust_6="34.82396"></scales>
<mgrwt>
<rscale>  0 0.30000000E+03</rscale>
<asrwt>  1 0.34823957E+02</asrwt>
<pdfrwt beam="1">  1        1 0.86932515E+00 0.30000000E+03</pdfrwt>
<pdfrwt beam="2">0</pdfrwt>
<totfact> 0.25755813E-04</totfact>
</mgrwt>
<clustering>
<clus scale="   34.824">  1  6  2 -1</clus>
<clus scale="  471.451">  4  5 -1 -1</clus>
<clus scale="  300.000">  1  4  2 -1</clus>
</clustering>
</event>
<event>
 6    1  0.9462926E-012  0.3000000E+03  0.7818608E-02  0.1093470E+00
          1   -1    0    0  502    0  0.00000000000E+00  0.00000000000E+00  0.23606978765E+03  0.23606978765E+03  0.00000000000E+00 0.  1.
         13   -1    0    0    0    0 -0.00000000000E+00 -0.00000000000E+00 -0.27500000000E+03  0.27500000000E+03  0.00000000000E+00 0.  1.
    9000005    2    1    2  501    0  0.27447109446E+02  0.13291080231E+02 -0.64324505896E+02  0.47138519649E+03  0.46597893169E+03 0.  0.
         13    1    3    3    0    0 -0.13578916455E+03  0.59124648260E+02 -0.20373730592E+03  0.25187955666E+03  0.00000000000E+00 0.  1.
          3    1    3    3  501    0  0.16323627400E+03 -0.45833568029E+02  0.13941280002E+03  0.21950563983E+03  0.00000000000E+00 0.  1.
         21    1    1    2  502  501 -0.27447109446E+02 -0.13291080231E+02  0.25394293543E+02  0.39684591156E+02  0.00000000000E+00 0. -1.
<scales pt_clust_4="550.00000" pt_clust_5="550.00000" pt_clust_6="30.49585"></scales>
<mgrwt>
<rscale>  0 0.30000000E+03</rscale>
<asrwt>  1 0.30495846E+02</asrwt>
<pdfrwt beam="1">  1        1 0.85843559E+00 0.30000000E+03</pdfrwt>
<pdfrwt beam="2">0</pdfrwt>
<totfact> 0.34492114E-04</totfact>
</mgrwt>
<clustering>
<clus scale="   30.496">  1  6  2 -1</clus>
<clus scale="  465.979">  4  5 -1 -1</clus>
<clus scale="  300.000">  1  4  2 -1</clus>
</clustering>
</event>
<event>
 6    1  0.9462926E-012  0.3000000E+03  0.7818608E-02  0.1093470E+00
          1   -1    0    0  502    0  0.00000000000E+00  0.00000000000E+00  0.22309367834E+03  0.22309367834E+03  0.00000000000E+00 0.  1.
         13   -1    0    0    0    0 -0.00000000000E+00 -0.00000000000E+00 -0.27500000000E+03  0.27500000000E+03  0.00000000000E+00 0.  1.
    9000005    2    1    2  501    0  0.29924961854E+02 -0.22854848886E+02 -0.50620852530E+02  0.46041742732E+03  0.45607443385E+03 0.  0.
         13    1    3    3    0    0  0.13977006476E+03 -0.18634091487E+03 -0.10585374954E+03  0.25585860128E+03  0.00000000000E+00 0.  1.
          3    1    3    3  501    0 -0.10984510290E+03  0.16348606598E+03  0.55232897006E+02  0.20455882605E+03  0.00000000000E+00 0.  1.
         21    1    1    2  502  501 -0.29924961854E+02  0.22854848886E+02 -0.12854691349E+01  0.37676251014E+02  0.00000000000E+00 0. -1.
<scales pt_clust_4="550.00000" pt_clust_5="550.00000" pt_clust_6="37.65432"></scales>
<mgrwt>
<rscale>  0 0.30000000E+03</rscale>
<asrwt>  1 0.37654315E+02</asrwt>
<pdfrwt beam="1">  1        1 0.81124974E+00 0.30000000E+03</pdfrwt>
<pdfrwt beam="2">0</pdfrwt>
<totfact> 0.84121702E-04</totfact>
</mgrwt>
<clustering>
<clus scale="   37.654">  1  6  2 -1</clus>
<clus scale="  456.074">  4  5 -1 -1</clus>
<clus scale="  300.000">  1  4  2 -1</clus>
</clustering>
</event>
<event>
 6    1  0.9462926E-012  0.3000000E+03  0.7818608E-02  0.1093470E+00
          1   -1    0    0  502    0  0.00000000000E+00  0.00000000000E+00  0.22930779298E+03  0.22930779298E+03  0.00000000000E+00 0.  1.
         13   -1    0    0    0    0 -0.00000000000E+00 -0.00000000000E+00 -0.27500000000E+03  0.27500000000E+03  0.00000000000E+00 0.  1.
    9000005    2    1    2  501    0  0.29895545700E+02  0.14612953784E+02 -0.46853418437E+02  0.47101168986E+03  0.46749276689E+03 0.  0.
         13    1    3    3    0    0  0.44092487659E+02  0.15144254709E+03  0.15864954005E+03  0.22371559868E+03  0.00000000000E+00 0.  1.
          1    1    3    3  501    0 -0.14196941959E+02 -0.13682959330E+03 -0.20550295849E+03  0.24729609118E+03  0.00000000000E+00 0.  1.
         21    1    1    2  502  501 -0.29895545700E+02 -0.14612953784E+02  0.11612114210E+01  0.33296103120E+02  0.00000000000E+00 0. -1.
<scales pt_clust_4="550.00000" pt_clust_5="550.00000" pt_clust_6="33.27585"></scales>
<mgrwt>
<rscale>  0 0.30000000E+03</rscale>
<asrwt>  1 0.33275848E+02</asrwt>
<pdfrwt beam="1">  1        1 0.83384652E+00 0.30000000E+03</pdfrwt>
<pdfrwt beam="2">0</pdfrwt>
<totfact> 0.55691911E-04</totfact>
</mgrwt>
<clustering>
<clus scale="   33.276">  1  6  2 -1</clus>
<clus scale="  467.493">  4  5 -1 -1</clus>
<clus scale="  300.000">  1  4  2 -1</clus>
</clustering>
</event>
<event>
 6    1  0.9462926E-012  0.3000000E+03  0.7818608E-02  0.1093470E+00
          1   -1    0    0  502    0  0.00000000000E+00  0.00000000000E+00  0.23413063187E+03  0.23413063187E+03  0.00000000000E+00 0.  1.
         13   -1    0    0    0    0 -0.00000000000E+00 -0.00000000000E+00 -0.27500000000E+03  0.27500000000E+03  0.00000000000E+00 0.  1.
    9000005    2    1    2  501    0  0.85210018373E+01  0.33541977646E+02 -0.63045623055E+02  0.46802761471E+03  0.46246883767E+03 0.  0.
         13    1    3    3    0    0 -0.12713845926E+03 -0.17099002680E+03 -0.64385063998E+02  0.22259203390E+03  0.00000000000E+00 0.  1.
          1    1    3    3  501    0  0.13565946110E+03  0.20453200445E+03  0.13394409423E+01  0.24543558082E+03  0.00000000000E+00 0.  1.
         21    1    1    2  502  501 -0.85210018373E+01 -0.33541977646E+02  0.22176254923E+02  0.41103017154E+02  0.00000000000E+00 0.  1.
<scales pt_clust_4="550.00000" pt_clust_5="550.00000" pt_clust_6="34.60739"></scales>
<mgrwt>
<rscale>  0 0.30000000E+03</rscale>
<asrwt>  1 0.34607394E+02</asrwt>
<pdfrwt beam="1">  1        1 0.85138412E+00 0.30000000E+03</pdfrwt>
<pdfrwt beam="2">0</pdfrwt>
<totfact> 0.39574318E-04</totfact>
</mgrwt>
<clustering>
<clus scale="   34.607">  1  6  2 -1</clus>
<clus scale="  462.469">  4  5 -1 -1</clus>
<clus scale="  300.000">  1  4  2 -1</clus>
</clustering>
</event>
<event>
 6    1  0.9462926E-012  0.3000000E+03  0.7818608E-02  0.1093470E+00
          1   -1    0    0  502    0  0.00000000000E+00  0.00000000000E+00  0.24824374226E+03  0.24824374226E+03  0.00000000000E+00 0.  1.
         13   -1    0    0    0    0 -0.00000000000E+00 -0.00000000000E+00 -0.27500000000E+03  0.27500000000E+03  0.00000000000E+00 0.  1.
    9000005    2    1    2  501    0  0.31446647901E+02 -0.19405258337E+01 -0.33084442200E+02  0.49110804213E+03  0.48897839566E+03 0.  0.
         13    1    3    3    0    0  0.23455095098E+03  0.84557276847E+02  0.51699014761E+02  0.25463085005E+03  0.00000000000E+00 0.  1.
          1    1    3    3  501    0 -0.20310430308E+03 -0.86497802681E+02 -0.84783456961E+02  0.23647719207E+03  0.00000000000E+00 0.  1.
         21    1    1    2  502  501 -0.31446647901E+02  0.19405258337E+01  0.63281844651E+01  0.32135700138E+02  0.00000000000E+00 0.  1.
<scales pt_clust_4="550.00000" pt_clust_5="550.00000" pt_clust_6="31.50646"></scales>
<mgrwt>
<rscale>  0 0.30000000E+03</rscale>
<asrwt>  1 0.31506464E+02</asrwt>
<pdfrwt beam="1">  1        1 0.90270452E+00 0.30000000E+03</pdfrwt>
<pdfrwt beam="2">0</pdfrwt>
<totfact> 0.10332607E-04</totfact>
</mgrwt>
<clustering>
<clus scale="   31.506">  1  6  2 -1</clus>
<clus scale="  488.978">  4  5 -1 -1</clus>
<clus scale="  300.000">  1  4  2 -1</clus>
</clustering>
</event>
<event>
 6    1  0.9462926E-012  0.3000000E+03  0.7818608E-02  0.1093470E+00
          1   -1    0    0  502    0  0.00000000000E+00  0.00000000000E+00  0.23423651931E+03  0.23423651931E+03  0.00000000000E+00 0.  1.
         13   -1    0    0    0    0 -0.00000000000E+00 -0.00000000000E+00 -0.27500000000E+03  0.27500000000E+03  0.00000000000E+00 0.  1.
    9000005    2    1    2  501    0 -0.18861615898E+02 -0.23580920052E+02 -0.24630506060E+02  0.47500067238E+03  0.47339957392E+03 0.  0.
         13    1    3    3    0    0 -0.10627673765E+03 -0.21759036647E+03  0.54068780087E+02  0.24812042545E+03  0.00000000000E+00 0.  1.
          1    1    3    3  501    0  0.87415121756E+02  0.19400944641E+03 -0.78699286146E+02  0.22688024693E+03  0.00000000000E+00 0.  1.
         21    1    1    2  502  501  0.18861615898E+02  0.23580920052E+02 -0.16132974626E+02  0.34235846931E+02  0.00000000000E+00 0.  1.
<scales pt_clust_4="550.00000" pt_clust_5="550.00000" pt_clust_6="30.19638"></scales>
<mgrwt>
<rscale>  0 0.30000000E+03</rscale>
<asrwt>  1 0.30196378E+02</asrwt>
<pdfrwt beam="1">  1        1 0.85176916E+00 0.30000000E+03</pdfrwt>
<pdfrwt beam="2">0</pdfrwt>
<totfact> 0.40270155E-04</totfact>
</mgrwt>
<clustering>
<clus scale="   30.196">  1  6  2 -1</clus>
<clus scale="  473.400">  4  5 -1 -1</clus>
<clus scale="  300.000">  1  4  2 -1</clus>
</clustering>
</event>
<event>
 6    1  0.9462926E-012  0.3000000E+03  0.7818608E-02  0.1093470E+00
          1   -1    0    0  502    0  0.00000000000E+00  0.00000000000E+00  0.22987767535E+03  0.22987767535E+03  0.00000000000E+00 0.  1.
         13   -1    0    0    0    0 -0.00000000000E+00 -0.00000000000E+00 -0.27500000000E+03  0.27500000000E+03  0.00000000000E+00 0.  1.
    9000005    2    1    2  501    0 -0.26562447880E+02  0.17917784101E+02 -0.16776624376E+02  0.46209813178E+03  0.46068060264E+03 0.  0.
         13    1    3    3    0    0  0.23692986655E+01 -0.77570939469E+02  0.20484445942E+03  0.21905277168E+03  0.00000000000E+00 0.  1.
          3    1    3    3  501    0 -0.28931746545E+02  0.95488723569E+02 -0.22162108379E+03  0.24304536010E+03  0.00000000000E+00 0.  1.
         21    1    1    2  502  501  0.26562447880E+02 -0.17917784101E+02 -0.28345700271E+02  0.42779543572E+02  0.00000000000E+00 0. -1.
<scales pt_clust_4="550.00000" pt_clust_5="550.00000" pt_clust_6="32.04078"></scales>
<mgrwt>
<rscale>  0 0.30000000E+03</rscale>
<asrwt>  1 0.32040781E+02</asrwt>
<pdfrwt beam="1">  1        1 0.83591882E+00 0.30000000E+03</pdfrwt>
<pdfrwt beam="2">0</pdfrwt>
<totfact> 0.54167591E-04</totfact>
</mgrwt>
<clustering>
<clus scale="   32.041">  1  6  2 -1</clus>
<clus scale="  460.681">  4  5 -1 -1</clus>
<clus scale="  300.000">  1  4  2 -1</clus>
</clustering>
</event>
<event>
 6    1  0.9462926E-012  0.3000000E+03  0.7818608E-02  0.1093470E+00
          1   -1    0    0  502    0  0.00000000000E+00  0.00000000000E+00  0.23033018656E+03  0.23033018656E+03  0.00000000000E+00 0.  1.
         13   -1    0    0    0    0 -0.00000000000E+00 -0.00000000000E+00 -0.27500000000E+03  0.27500000000E+03  0.00000000000E+00 0.  1.
    9000005    2    1    2  501    0 -0.30334659052E+02 -0.48081402991E+01 -0.48595647379E+02  0.47436695151E+03  0.47087063827E+03 0.  0.
         13    1    3    3    0    0  0.19922916840E+03  0.91165307152E+02 -0.53369029676E+02  0.22550305563E+03  0.00000000000E+00 0.  1.
          3    1    3    3  501    0 -0.22956382746E+03 -0.95973447451E+02  0.47733822970E+01  0.24886389588E+03  0.00000000000E+00 0.  1.
         21    1    1    2  502  501  0.30334659052E+02  0.48081402991E+01  0.39258339438E+01  0.30963235056E+02  0.00000000000E+00 0.  1.
<scales pt_clust_4="550.00000" pt_clust_5="550.00000" pt_clust_6="30.71335"></scales>
<mgrwt>
<rscale>  0 0.30000000E+03</rscale>
<asrwt>  1 0.30713348E+02</asrwt>
<pdfrwt beam="1">  1        1 0.83756431E+00 0.30000000E+03</pdfrwt>
<pdfrwt beam="2">0</pdfrwt>
<totfact> 0.53124258E-04</totfact>
</mgrwt>
<clustering>
<clus scale="   30.713">  1  6  2 -1</clus>
<clus scale="  470.871">  4  5 -1 -1</clus>
<clus scale="  300.000">  1  4  2 -1</clus>
</clustering>
</event>
<event>
 6    1  0.9462926E-012  0.3000000E+03  0.7818608E-02  0.1093470E+00
          1   -1    0    0  502    0  0.00000000000E+00  0.00000000000E+00  0.23055994744E+03  0.23055994744E+03  0.00000000000E+00 0.  1.
         13   -1    0    0    0    0 -0.00000000000E+00 -0.00000000000E+00 -0.27500000000E+03  0.27500000000E+03  0.00000000000E+00 0.  1.
    9000005    2    1    2  501    0  0.32763380810E+02  0.54380808274E+01 -0.71377050323E+02  0.46279765455E+03  0.45605259992E+03 0.  0.
         13    1    3    3    0    0 -0.89434151833E+02  0.20317330903E+03 -0.60563717536E+02  0.23009959778E+03  0.00000000000E+00 0.  1.
          1    1    3    3  501    0  0.12219753264E+03 -0.19773522820E+03 -0.10813332788E+02  0.23269805677E+03  0.00000000000E+00 0.  1.
         21    1    1    2  502  501 -0.32763380810E+02 -0.54380808274E+01  0.26936997768E+02  0.42762292898E+02  0.00000000000E+00 0. -1.
<scales pt_clust_4="550.00000" pt_clust_5="550.00000" pt_clust_6="33.21162"></scales>
<mgrwt>
<rscale>  0 0.30000000E+03</rscale>
<asrwt>  1 0.33211622E+02</asrwt>
<pdfrwt beam="1">  1        1 0.83839981E+00 0.30000000E+03</pdfrwt>
<pdfrwt beam="2">0</pdfrwt>
<totfact> 0.51605811E-04</totfact>
</mgrwt>
<clustering>
<clus scale="   33.212">  1  6  2 -1</clus>
<clus scale="  456.053">  4  5 -1 -1</clus>
<clus scale="  300.000">  1  4  2 -1</clus>
</clustering>
</event>
<event>
 6    1  0.9462926E-012  0.3000000E+03  0.7818608E-02  0.1093470E+00
          1   -1    0    0  502    0  0.00000000000E+00  0.00000000000E+00  0.23107611460E+03  0.23107611460E+03  0.00000000000E+00 0.  1.
         13   -1    0    0    0    0 -0.00000000000E+00 -0.00000000000E+00 -0.27500000000E+03  0.27500000000E+03  0.00000000000E+00 0.  1.
    9000005    2    1    2  501    0 -0.27644409878E+02 -0.23987404268E+02 -0.50545655937E+02  0.46888126541E+03  0.46470976831E+03 0.  0.
         13    1    3    3    0    0  0.20559679982E+03  0.40750726586E+02 -0.81432515718E+02  0.22485977948E+03  0.00000000000E+00 0.  1.
          1    1    3    3  501    0 -0.23324120970E+03 -0.64738130853E+02  0.30886859781E+02  0.24402148593E+03  0.00000000000E+00 0.  1.
         21    1    1    2  502  501  0.27644409878E+02  0.23987404268E+02  0.66217705382E+01  0.37194849187E+02  0.00000000000E+00 0.  1.
<scales pt_clust_4="550.00000" pt_clust_5="550.00000" pt_clust_6="36.60067"></scales>
<mgrwt>
<rscale>  0 0.30000000E+03</rscale>
<asrwt>  1 0.36600669E+02</asrwt>
<pdfrwt beam="1">  1        1 0.84027678E+00 0.30000000E+03</pdfrwt>
<pdfrwt beam="2">0</pdfrwt>
<totfact> 0.49050439E-04</totfact>
</mgrwt>
<clustering>
<clus scale="   36.601">  1  6  2 -1</clus>
<clus scale="  464.710">  4  5 -1 -1</clus>
<clus scale="  300.000">  1  4  2 -1</clus>
</clustering>
</event>
<event>
 6    1  0.9462926E-012  0.3000000E+03  0.7818608E-02  0.1093470E+00
          1   -1    0    0  502    0  0.00000000000E+00  0.00000000000E+00  0.23451242013E+03  0.23451242013E+03  0.00000000000E+00 0.  1.
         13   -1    0    0    0    0 -0.00000000000E+00 -0.00000000000E+00 -0.27500000000E+03  0.27500000000E+03  0.00000000000E+00 0.  1.
    9000005    2    1    2  501    0 -0.33946065395E+02 -0.17765437144E+02 -0.67373709267E+02  0.46270633007E+03  0.45616881204E+03 0.  0.
         13    1    3    3    0    0 -0.18790197685E+03  0.12367601564E+03 -0.10831587182E+03  0.24967025822E+03  0.00000000000E+00 0.  1.
          3    1    3    3  501    0  0.15395591145E+03 -0.14144145278E+03  0.40942162556E+02  0.21303607186E+03  0.00000000000E+00 0.  1.
         21    1    1    2  502  501  0.33946065395E+02  0.17765437144E+02  0.26886129401E+02  0.46806090063E+02  0.00000000000E+00 0.  1.
<scales pt_clust_4="550.00000" pt_clust_5="550.00000" pt_clust_6="38.31378"></scales>
<mgrwt>
<rscale>  0 0.30000000E+03</rscale>
<asrwt>  1 0.38313785E+02</asrwt>
<pdfrwt beam="1">  1        1 0.85277244E+00 0.30000000E+03</pdfrwt>
<pdfrwt beam="2">0</pdfrwt>
<totfact> 0.37662397E-04</totfact>
</mgrwt>
<clustering>
<clus scale="   38.314">  1  6  2 -1</clus>
<clus scale="  456.169">  4  5 -1 -1</clus>
<clus scale="  300.000">  1  4  2 -1</clus>
</clustering>
</event>
<event>
 6    1  0.9462926E-012  0.3000000E+03  0.7818608E-02  0.1093470E+00
          1   -1    0    0  502    0  0.00000000000E+00  0.00000000000E+00  0.23753492784E+03  0.23753492784E+03  0.00000000000E+00 0.  1.
         13   -1    0    0    0    0 -0.00000000000E+00 -0.00000000000E+00 -0.27500000000E+03  0.27500000000E+03  0.00000000000E+00 0.  1.
    9000005    2    1    2  501    0 -0.25734195997E+02  0.24785094841E+02 -0.60851426963E+02  0.46983280423E+03  0.46450341010E+03 0.  0.
         13    1    3    3    0    0 -0.87932213831E+02 -0.25214041790E+02  0.18768935789E+03  0.20879443766E+03  0.00000000000E+00 0.  1.
          1    1    3    3  501    0  0.62198017834E+02  0.49999136632E+02 -0.24854078485E+03  0.26103836657E+03  0.00000000000E+00 0.  1.
         21    1    1    2  502  501  0.25734195997E+02 -0.24785094841E+02  0.23386354798E+02  0.42702123608E+02  0.00000000000E+00 0. -1.
<scales pt_clust_4="550.00000" pt_clust_5="550.00000" pt_clust_6="35.72884"></scales>
<mgrwt>
<rscale>  0 0.30000000E+03</rscale>
<asrwt>  1 0.35728837E+02</asrwt>
<pdfrwt beam="1">  1        1 0.86376337E+00 0.30000000E+03</pdfrwt>
<pdfrwt beam="2">0</pdfrwt>
<totfact> 0.29348709E-04</totfact>
</mgrwt>
<clustering>
<clus scale="   35.729">  1  6  2 -1</clus>
<clus scale="  464.503">  4  5 -1 -1</clus>
<clus scale="  300.000">  1  4  2 -1</clus>
</clustering>
</event>
<event>
 6    1  0.9462926E-012  0.3000000E+03  0.7818608E-02  0.1093470E+00
          1   -1    0    0  502    0  0.00000000000E+00  0.00000000000E+00  0.22736904087E+03  0.22736904087E+03  0.00000000000E+00 0.  1.
         13   -1    0    0    0    0 -0.00000000000E+00 -0.00000000000E+00 -0.27500000000E+03  0.27500000000E+03  0.00000000000E+00 0.  1.
    9000005    2    1    2  501    0  0.27432022928E+02  0.14136974069E+02 -0.72123213686E+02  0.46297055802E+03  0.45627580445E+03 0.  0.
         13    1    3    3    0    0  0.15284737969E+03 -0.13459386048E+03 -0.15049043629E+03  0.25322954048E+03  0.00000000000E+00 0.  1.
          3    1    3    3  501    0 -0.12541535676E+03  0.14873083455E+03  0.78367222601E+02  0.20974101754E+03  0.00000000000E+00 0.  1.
         21    1    1    2  502  501 -0.27432022928E+02 -0.14136974069E+02  0.24492254558E+02  0.39398482853E+02  0.00000000000E+00 0.  1.
<scales pt_clust_4="550.00000" pt_clust_5="550.00000" pt_clust_6="30.86049"></scales>
<mgrwt>
<rscale>  0 0.30000000E+03</rscale>
<asrwt>  1 0.30860491E+02</asrwt>
<pdfrwt beam="1">  1        1 0.82679651E+00 0.30000000E+03</pdfrwt>
<pdfrwt beam="2">0</pdfrwt>
<totfact> 0.64479359E-04</totfact>
</mgrwt>
<clustering>
<clus scale="   30.860">  1  6  2 -1</clus>
<clus scale="  456.276">  4  5 -1 -1</clus>
<clus scale="  300.000">  1  4  2 -1</clus>
</clustering>
</event>
<event>
 6    1  0.9462926E-012  0.3000000E+03  0.7818608E-02  0.1093470E+00
          1   -1    0    0  502    0  0.00000000000E+00  0.00000000000E+00  0.23628384062E+03  0.23628384062E+03  0.00000000000E+00 0.  1.
         13   -1    0    0    0    0 -0.00000000000E+00 -0.00000000000E+00 -0.27500000000E+03  0.27500000000E+03  0.00000000000E+00 0.  1.
    9000005    2    1    2  501    0  0.28477502388E+02 -0.21777937438E+02 -0.43219477929E+02  0.47515176928E+03  0.47182203624E+03 0.  0.
         13    1    3    3    0    0  0.12524674606E+02  0.20653111234E+03 -0.11316631291E+03  0.23583592223E+03  0.00000000000E+00 0.  1.
          3    1    3    3  501    0  0.15952827783E+02 -0.22830904978E+03  0.69946834983E+02  0.23931584705E+03  0.00000000000E+00 0.  1.
         21    1    1    2  502  501 -0.28477502388E+02  0.21777937438E+02  0.45033185536E+01  0.36132071340E+02  0.00000000000E+00 0. -1.
<scales pt_clust_4="550.00000" pt_clust_5="550.00000" pt_clust_6="35.85034"></scales>
<mgrwt>
<rscale>  0 0.30000000E+03</rscale>
<asrwt>  1 0.35850338E+02</asrwt>
<pdfrwt beam="1">  1        1 0.85921397E+00 0.30000000E+03</pdfrwt>
<pdfrwt beam="2">0</pdfrwt>
<totfact> 0.32827271E-04</totfact>
</mgrwt>
<clustering>
<clus scale="   35.850">  1  6  2 -1</clus>
<clus scale="  471.822">  4  5 -1 -1</clus>
<clus scale="  300.000">  1  4  2 -1</clus>
</clustering>
</event>
<event>
 6    1  0.9462926E-012  0.3000000E+03  0.7818608E-02  0.1093470E+00
          1   -1    0    0  502    0  0.00000000000E+00  0.00000000000E+00  0.25139230883E+03  0.25139230883E+03  0.00000000000E+00 0.  1.
         13   -1    0    0    0    0 -0.00000000000E+00 -0.00000000000E+00 -0.27500000000E+03  0.27500000000E+03  0.00000000000E+00 0.  1.
    9000005    2    1    2  501    0  0.25547385340E+02  0.47130073380E+02  0.53527187712E+01  0.46546105201E+03  0.46233259308E+03 0.  0.
         13    1    3    3    0    0 -0.12857282670E+03 -0.16124296566E+03 -0.38118146035E-01  0.20622867694E+03  0.00000000000E+00 0.  1.
          1    1    3    3  501    0  0.15412021204E+03  0.20837303904E+03  0.53908369173E+01  0.25923237506E+03  0.00000000000E+00 0.  1.
         21    1    1    2  502  501 -0.25547385340E+02 -0.47130073380E+02 -0.28960409937E+02  0.60931256825E+02  0.00000000000E+00 0. -1.
<scales pt_clust_4="550.00000" pt_clust_5="550.00000" pt_clust_6="53.60891"></scales>
<mgrwt>
<rscale>  0 0.30000000E+03</rscale>
<asrwt>  1 0.53608913E+02</asrwt>
<pdfrwt beam="1">  1        1 0.91415385E+00 0.30000000E+03</pdfrwt>
<pdfrwt beam="2">0</pdfrwt>
<totfact> 0.52511357E-05</totfact>
</mgrwt>
<clustering>
<clus scale="   53.609">  1  6  2 -1</clus>
<clus scale="  462.333">  4  5 -1 -1</clus>
<clus scale="  300.000">  1  4  2 -1</clus>
</clustering>
</event>
<event>
 6    1  0.9462926E-012  0.3000000E+03  0.7818608E-02  0.1093470E+00
          1   -1    0    0  502    0  0.00000000000E+00  0.00000000000E+00  0.24119685795E+03  0.24119685795E+03  0.00000000000E+00 0.  1.
         13   -1    0    0    0    0 -0.00000000000E+00 -0.00000000000E+00 -0.27500000000E+03  0.27500000000E+03  0.00000000000E+00 0.  1.
    9000005    2    1    2  501    0 -0.11537070913E+02 -0.32115674147E+02 -0.55203153976E+02  0.47591682516E+03  0.47147101261E+03 0.  0.
         13    1    3    3    0    0 -0.37805475970E+02 -0.13245002821E+03 -0.23265897087E+03  0.27037466729E+03  0.00000000000E+00 0.  1.
          3    1    3    3  501    0  0.26268405057E+02  0.10033435407E+03  0.17745581690E+03  0.20554215787E+03  0.00000000000E+00 0.  1.
         21    1    1    2  502  501  0.11537070913E+02  0.32115674147E+02  0.21400011925E+02  0.40280032790E+02  0.00000000000E+00 0. -1.
<scales pt_clust_4="550.00000" pt_clust_5="550.00000" pt_clust_6="34.12507"></scales>
<mgrwt>
<rscale>  0 0.30000000E+03</rscale>
<asrwt>  1 0.34125072E+02</asrwt>
<pdfrwt beam="1">  1        1 0.87707948E+00 0.30000000E+03</pdfrwt>
<pdfrwt beam="2">0</pdfrwt>
<totfact> 0.21457204E-04</totfact>
</mgrwt>
<clustering>
<clus scale="   34.125">  1  6  2 -1</clus>
<clus scale="  471.471">  4  5 -1 -1</clus>
<clus scale="  300.000">  1  4  2 -1</clus>
</clustering>
</event>
<event>
 6    1  0.9462926E-012  0.3000000E+03  0.7818608E-02  0.1093470E+00
          1   -1    0    0  502    0  0.00000000000E+00  0.00000000000E+00  0.22678444059E+03  0.22678444059E+03  0.00000000000E+00 0.  1.
         13   -1    0    0    0    0 -0.00000000000E+00 -0.00000000000E+00 -0.27500000000E+03  0.27500000000E+03  0.00000000000E+00 0.  1.
    9000005    2    1    2  501    0 -0.30719551784E+02 -0.22886640407E+02 -0.49137351206E+02  0.46346553049E+03  0.45925845610E+03 0.  0.
         13    1    3    3    0    0 -0.12475991655E+03  0.29075686917E+02  0.17384653594E+03  0.21594686940E+03  0.00000000000E+00 0.  1.
          1    1    3    3  501    0  0.94040364763E+02 -0.51962327324E+02 -0.22298388714E+03  0.24751866110E+03  0.00000000000E+00 0.  1.
         21    1    1    2  502  501  0.30719551784E+02  0.22886640407E+02  0.92179179772E+00  0.38318910097E+02  0.00000000000E+00 0.  1.
<scales pt_clust_4="550.00000" pt_clust_5="550.00000" pt_clust_6="38.30782"></scales>
<mgrwt>
<rscale>  0 0.30000000E+03</rscale>
<asrwt>  1 0.38307821E+02</asrwt>
<pdfrwt beam="1">  1        1 0.82467069E+00 0.30000000E+03</pdfrwt>
<pdfrwt beam="2">0</pdfrwt>
<totfact> 0.64668466E-04</totfact>
</mgrwt>
<clustering>
<clus scale="   38.308">  1  6  2 -1</clus>
<clus scale="  459.258">  4  5 -1 -1</clus>
<clus scale="  300.000">  1  4  2 -1</clus>
</clustering>
</event>
<event>
 6    1  0.9462926E-012  0.3000000E+03  0.7818608E-02  0.1093470E+00
          1   -1    0    0  502    0  0.00000000000E+00  0.00000000000E+00  0.23082542825E+03  0.23082542825E+03  0.00000000000E+00 0.  1.
         13   -1    0    0    0    0 -0.00000000000E+00 -0.00000000000E+00 -0.27500000000E+03  0.27500000000E+03  0.00000000000E+00 0.  1.
    9000005    2    1    2  501    0 -0.12225271929E+02  0.42980849532E+02 -0.41498932271E+02  0.46105970759E+03  0.45700884223E+03 0.  0.
         13    1    3    3    0    0  0.15213780425E+03  0.57969269928E+02 -0.18208378241E+03  0.24425570936E+03  0.00000000000E+00 0.  1.
          1    1    3    3  501    0 -0.16436307618E+03 -0.14988420397E+02  0.14058485014E+03  0.21680399822E+03  0.00000000000E+00 0.  1.
         21    1    1    2  502  501  0.12225271929E+02 -0.42980849532E+02 -0.26756394763E+01  0.44765720667E+02  0.00000000000E+00 0. -1.
<scales pt_clust_4="550.00000" pt_clust_5="550.00000" pt_clust_6="44.68569"></scales>
<mgrwt>
<rscale>  0 0.30000000E+03</rscale>
<asrwt>  1 0.44685688E+02</asrwt>
<pdfrwt beam="1">  1        1 0.83936519E+00 0.30000000E+03</pdfrwt>
<pdfrwt beam="2">0</pdfrwt>
<totfact> 0.48063410E-04</totfact>
</mgrwt>
<clustering>
<clus scale="   44.686">  1  6  2 -1</clus>
<clus scale="  457.009">  4  5 -1 -1</clus>
<clus scale="  300.000">  1  4  2 -1</clus>
</clustering>
</event>
<event>
 6    1  0.9462926E-012  0.3000000E+03  0.7818608E-02  0.1093470E+00
          1   -1    0    0  502    0  0.00000000000E+00  0.00000000000E+00  0.23641337292E+03  0.23641337292E+03  0.00000000000E+00 0.  1.
         13   -1    0    0    0    0 -0.00000000000E+00 -0.00000000000E+00 -0.27500000000E+03  0.27500000000E+03  0.00000000000E+00 0.  1.
    9000005    2    1    2  501    0 -0.38620665938E+02  0.13252696085E+02 -0.51042979670E+02  0.46872437538E+03  0.46414433586E+03 0.  0.
         13    1    3    3    0    0  0.51504982646E+01 -0.46608369438E+02 -0.25106063991E+03  0.25540225654E+03  0.00000000000E+00 0.  1.
          1    1    3    3  501    0 -0.43771164202E+02  0.59861065523E+02  0.20001766024E+03  0.21332211884E+03  0.00000000000E+00 0.  1.
         21    1    1    2  502  501  0.38620665938E+02 -0.13252696085E+02  0.12456352589E+02  0.42688997538E+02  0.00000000000E+00 0. -1.
<scales pt_clust_4="550.00000" pt_clust_5="550.00000" pt_clust_6="40.83124"></scales>
<mgrwt>
<rscale>  0 0.30000000E+03</rscale>
<asrwt>  1 0.40831235E+02</asrwt>
<pdfrwt beam="1">  1        1 0.85968499E+00 0.30000000E+03</pdfrwt>
<pdfrwt beam="2">0</pdfrwt>
<totfact> 0.31684031E-04</totfact>
</mgrwt>
<clustering>
<clus scale="   40.831">  1  6  2 -1</clus>
<clus scale="  464.144">  4  5 -1 -1</clus>
<clus scale="  300.000">  1  4  2 -1</clus>
</clustering>
</event>
<event>
 6    1  0.9462926E-012  0.3000000E+03  0.7818608E-02  0.1093470E+00
          1   -1    0    0  502    0  0.00000000000E+00  0.00000000000E+00  0.22278007981E+03  0.22278007981E+03  0.00000000000E+00 0.  1.
         13   -1    0    0    0    0 -0.00000000000E+00 -0.00000000000E+00 -0.27500000000E+03  0.27500000000E+03  0.00000000000E+00 0.  1.
    9000005    2    1    2  501    0 -0.29899975233E+02 -0.51693306791E+01 -0.45335390621E+02  0.46666533658E+03  0.46346575734E+03 0.  0.
         13    1    3    3    0    0  0.14112128736E+03 -0.15366957400E+03  0.59683902355E+02  0.21700627622E+03  0.00000000000E+00 0.  1.
          3    1    3    3  501    0 -0.17102126259E+03  0.14850024332E+03 -0.10501929298E+03  0.24965906036E+03  0.00000000000E+00 0.  1.
         21    1    1    2  502  501  0.29899975233E+02  0.51693306791E+01 -0.68845295706E+01  0.31114743226E+02  0.00000000000E+00 0.  1.
<scales pt_clust_4="550.00000" pt_clust_5="550.00000" pt_clust_6="30.34356"></scales>
<mgrwt>
<rscale>  0 0.30000000E+03</rscale>
<asrwt>  1 0.30343556E+02</asrwt>
<pdfrwt beam="1">  1        1 0.81010938E+00 0.30000000E+03</pdfrwt>
<pdfrwt beam="2">0</pdfrwt>
<totfact> 0.89431320E-04</totfact>
</mgrwt>
<clustering>
<clus scale="   30.344">  1  6  2 -1</clus>
<clus scale="  463.466">  4  5 -1 -1</clus>
<clus scale="  300.000">  1  4  2 -1</clus>
</clustering>
</event>
<event>
 6    1  0.9462926E-012  0.3000000E+03  0.7818608E-02  0.1093470E+00
          1   -1    0    0  502    0  0.00000000000E+00  0.00000000000E+00  0.22843845511E+03  0.22843845511E+03  0.00000000000E+00 0.  1.
         13   -1    0    0    0    0 -0.00000000000E+00 -0.00000000000E+00 -0.27500000000E+03  0.27500000000E+03  0.00000000000E+00 0.  1.
    9000005    2    1    2  501    0  0.88553446006E+01  0.30887906739E+02 -0.56454914716E+02  0.46981764790E+03  0.46530525999E+03 0.  0.
         13    1    3    3    0    0 -0.11820494268E+03 -0.73321103897E+02  0.15090861131E+03  0.20523596595E+03  0.00000000000E+00 0.  1.
          1    1    3    3  501    0  0.12706028728E+03  0.10420901064E+03 -0.20736352603E+03  0.26458168196E+03  0.00000000000E+00 0.  1.
         21    1    1    2  502  501 -0.88553446006E+01 -0.30887906739E+02  0.98933698234E+01  0.33620807206E+02  0.00000000000E+00 0.  1.
<scales pt_clust_4="550.00000" pt_clust_5="550.00000" pt_clust_6="32.13223"></scales>
<mgrwt>
<rscale>  0 0.30000000E+03</rscale>
<asrwt>  1 0.32132225E+02</asrwt>
<pdfrwt beam="1">  1        1 0.83068529E+00 0.30000000E+03</pdfrwt>
<pdfrwt beam="2">0</pdfrwt>
<totfact> 0.59293573E-04</totfact>
</mgrwt>
<clustering>
<clus scale="   32.132">  1  6  2 -1</clus>
<clus scale="  465.305">  4  5 -1 -1</clus>
<clus scale="  300.000">  1  4  2 -1</clus>
</clustering>
</event>
<event>
 6    1  0.9462926E-012  0.3000000E+03  0.7818608E-02  0.1093470E+00
          1   -1    0    0  502    0  0.00000000000E+00  0.00000000000E+00  0.23251997868E+03  0.23251997868E+03  0.00000000000E+00 0.  1.
         13   -1    0    0    0    0 -0.00000000000E+00 -0.00000000000E+00 -0.27500000000E+03  0.27500000000E+03  0.00000000000E+00 0.  1.
    9000005    2    1    2  501    0  0.32723255644E+02 -0.84312739742E+01 -0.43392246889E+02  0.47371568907E+03  0.47051224122E+03 0.  0.
         13    1    3    3    0    0  0.15082967909E+03  0.11599499406E+02 -0.21594318589E+03  0.26365811198E+03  0.00000000000E+00 0.  1.
          1    1    3    3  501    0 -0.11810642345E+03 -0.20030773380E+02  0.17255093900E+03  0.21005757709E+03  0.00000000000E+00 0.  1.
         21    1    1    2  502  501 -0.32723255644E+02  0.84312739742E+01  0.91222557048E+00  0.33804289613E+02  0.00000000000E+00 0.  1.
<scales pt_clust_4="550.00000" pt_clust_5="550.00000" pt_clust_6="33.79198"></scales>
<mgrwt>
<rscale>  0 0.30000000E+03</rscale>
<asrwt>  1 0.33791979E+02</asrwt>
<pdfrwt beam="1">  1        1 0.84552720E+00 0.30000000E+03</pdfrwt>
<pdfrwt beam="2">0</pdfrwt>
<totfact> 0.44999216E-04</totfact>
</mgrwt>
<clustering>
<clus scale="   33.792">  1  6  2 -1</clus>
<clus scale="  470.512">  4  5 -1 -1</clus>
<clus scale="  300.000">  1  4  2 -1</clus>
</clustering>
</event>
<event>
 6    1  0.9462926E-012  0.3000000E+03  0.7818608E-02  0.1093470E+00
          1   -1    0    0  502    0  0.00000000000E+00  0.00000000000E+00  0.23565113677E+03  0.23565113677E+03  0.00000000000E+00 0.  1.
         13   -1    0    0    0    0 -0.00000000000E+00 -0.00000000000E+00 -0.27500000000E+03  0.27500000000E+03  0.00000000000E+00 0.  1.
    9000005    2    1    2  501    0 -0.33268239126E+02  0.11167932410E+02 -0.16790296277E+02  0.46893318630E+03  0.46731672420E+03 0.  0.
         13    1    3    3    0    0  0.10559021003E+03 -0.16453630970E+03  0.96428468803E+02  0.21799068618E+03  0.00000000000E+00 0.  1.
          3    1    3    3  501    0 -0.13885844916E+03  0.17570424211E+03 -0.11321876508E+03  0.25094250012E+03  0.00000000000E+00 0.  1.
         21    1    1    2  502  501  0.33268239126E+02 -0.11167932410E+02 -0.22558566952E+02  0.41717950474E+02  0.00000000000E+00 0.  1.
<scales pt_clust_4="550.00000" pt_clust_5="550.00000" pt_clust_6="35.09273"></scales>
<mgrwt>
<rscale>  0 0.30000000E+03</rscale>
<asrwt>  1 0.35092730E+02</asrwt>
<pdfrwt beam="1">  1        1 0.85691322E+00 0.30000000E+03</pdfrwt>
<pdfrwt beam="2">0</pdfrwt>
<totfact> 0.34831642E-04</totfact>
</mgrwt>
<clustering>
<clus scale="   35.093">  1  6  2 -1</clus>
<clus scale="  467.317">  4  5 -1 -1</clus>
<clus scale="  300.000">  1  4  2 -1</clus>
</clustering>
</event>
<event>
 6    1  0.9462926E-012  0.3000000E+03  0.7818608E-02  0.1093470E+00
          1   -1    0    0  502    0  0.00000000000E+00  0.00000000000E+00  0.23500277837E+03  0.23500277837E+03  0.00000000000E+00 0.  1.
         13   -1    0    0    0    0 -0.00000000000E+00 -0.00000000000E+00 -0.27500000000E+03  0.27500000000E+03  0.00000000000E+00 0.  1.
    9000005    2    1    2  501    0  0.27325733269E+02  0.23587564996E+02 -0.58766072496E+02  0.46931692476E+03  0.46422177423E+03 0.  0.
         13    1    3    3    0    0  0.18838016699E+03 -0.12101647293E+03  0.46423940221E+02  0.22866406859E+03  0.00000000000E+00 0.  1.
          3    1    3    3  501    0 -0.16105443372E+03  0.14460403793E+03 -0.10519001272E+03  0.24065285617E+03  0.00000000000E+00 0.  1.
         21    1    1    2  502  501 -0.27325733269E+02 -0.23587564996E+02  0.18768850864E+02  0.40685853609E+02  0.00000000000E+00 0.  1.
<scales pt_clust_4="550.00000" pt_clust_5="550.00000" pt_clust_6="36.09805"></scales>
<mgrwt>
<rscale>  0 0.30000000E+03</rscale>
<asrwt>  1 0.36098046E+02</asrwt>
<pdfrwt beam="1">  1        1 0.85455556E+00 0.30000000E+03</pdfrwt>
<pdfrwt beam="2">0</pdfrwt>
<totfact> 0.36592135E-04</totfact>
</mgrwt>
<clustering>
<clus scale="   36.098">  1  6  2 -1</clus>
<clus scale="  464.222">  4  5 -1 -1</clus>
<clus scale="  300.000">  1  4  2 -1</clus>
</clustering>
</event>
<event>
 6    1  0.9462926E-012  0.3000000E+03  0.7818608E-02  0.1093470E+00
          1   -1    0    0  502    0  0.00000000000E+00  0.00000000000E+00  0.24304758769E+03  0.24304758769E+03  0.00000000000E+00 0.  1.
         13   -1    0    0    0    0 -0.00000000000E+00 -0.00000000000E+00 -0.27500000000E+03  0.27500000000E+03  0.00000000000E+00 0.  1.
    9000005    2    1    2  501    0 -0.52894743731E+02  0.93143508719E+01 -0.14012650745E+02  0.46142209793E+03  0.45807137766E+03 0.  0.
         13    1    3    3    0    0  0.10684760269E+03 -0.10669667141E+03  0.14392091133E+03  0.20859966110E+03  0.00000000000E+00 0.  1.
          1    1    3    3  501    0 -0.15974234643E+03  0.11601102228E+03 -0.15793356208E+03  0.25282243683E+03  0.00000000000E+00 0.  1.
         21    1    1    2  502  501  0.52894743731E+02 -0.93143508719E+01 -0.17939761561E+02  0.56625489767E+02  0.00000000000E+00 0. -1.
<scales pt_clust_4="550.00000" pt_clust_5="550.00000" pt_clust_6="53.70860"></scales>
<mgrwt>
<rscale>  0 0.30000000E+03</rscale>
<asrwt>  1 0.53708602E+02</asrwt>
<pdfrwt beam="1">  1        1 0.88380941E+00 0.30000000E+03</pdfrwt>
<pdfrwt beam="2">0</pdfrwt>
<totfact> 0.16309420E-04</totfact>
</mgrwt>
<clustering>
<clus scale="   53.709">  1  6  2 -1</clus>
<clus scale="  458.071">  4  5 -1 -1</clus>
<clus scale="  300.000">  1  4  2 -1</clus>
</clustering>
</event>
<event>
 6    1  0.9462926E-012  0.3000000E+03  0.7818608E-02  0.1093470E+00
          1   -1    0    0  502    0  0.00000000000E+00  0.00000000000E+00  0.23796584292E+03  0.23796584292E+03  0.00000000000E+00 0.  1.
         13   -1    0    0    0    0 -0.00000000000E+00 -0.00000000000E+00 -0.27500000000E+03  0.27500000000E+03  0.00000000000E+00 0.  1.
    9000005    2    1    2  501    0  0.36723892639E+02  0.58237806180E+01 -0.58048777756E+02  0.47025548126E+03  0.46517523187E+03 0.  0.
         13    1    3    3    0    0  0.17128859529E+03  0.15728877874E+03  0.53989026410E+02  0.23873491107E+03  0.00000000000E+00 0.  1.
          1    1    3    3  501    0 -0.13456470265E+03 -0.15146499812E+03 -0.11203780417E+03  0.23152057018E+03  0.00000000000E+00 0.  1.
         21    1    1    2  502  501 -0.36723892639E+02 -0.58237806180E+01  0.21014620676E+02  0.42710361663E+02  0.00000000000E+00 0.  1.
<scales pt_clust_4="550.00000" pt_clust_5="550.00000" pt_clust_6="37.18280"></scales>
<mgrwt>
<rscale>  0 0.30000000E+03</rscale>
<asrwt>  1 0.37182801E+02</asrwt>
<pdfrwt beam="1">  1        1 0.86533034E+00 0.30000000E+03</pdfrwt>
<pdfrwt beam="2">0</pdfrwt>
<totfact> 0.28020401E-04</totfact>
</mgrwt>
<clustering>
<clus scale="   37.183">  1  6  2 -1</clus>
<clus scale="  465.175">  4  5 -1 -1</clus>
<clus scale="  300.000">  1  4  2 -1</clus>
</clustering>
</event>
<event>
 6    1  0.9462926E-012  0.3000000E+03  0.7818608E-02  0.1093470E+00
          1   -1    0    0  502    0  0.00000000000E+00  0.00000000000E+00  0.23630554683E+03  0.23630554683E+03  0.00000000000E+00 0.  1.
         13   -1    0    0    0    0 -0.00000000000E+00 -0.00000000000E+00 -0.27500000000E+03  0.27500000000E+03  0.00000000000E+00 0.  1.
    9000005    2    1    2  501    0  0.31870411088E+02  0.28396675721E+00 -0.60228568289E+02  0.47284099361E+03  0.46790524795E+03 0.  0.
         13    1    3    3    0    0 -0.15316719729E+03 -0.14410448841E+03  0.45907005238E+02  0.21525275152E+03  0.00000000000E+00 0.  1.
          3    1    3    3  501    0  0.18503760838E+03  0.14438845516E+03 -0.10613557353E+03  0.25758824210E+03  0.00000000000E+00 0.  1.
         21    1    1    2  502  501 -0.31870411088E+02 -0.28396675721E+00  0.21534115116E+02  0.38464553213E+02  0.00000000000E+00 0. -1.
<scales pt_clust_4="550.00000" pt_clust_5="550.00000" pt_clust_6="31.87168"></scales>
<mgrwt>
<rscale>  0 0.30000000E+03</rscale>
<asrwt>  1 0.31871676E+02</asrwt>
<pdfrwt beam="1">  1        1 0.85929290E+00 0.30000000E+03</pdfrwt>
<pdfrwt beam="2">0</pdfrwt>
<totfact> 0.33497753E-04</totfact>
</mgrwt>
<clustering>
<clus scale="   31.872">  1  6  2 -1</clus>
<clus scale="  467.905">  4  5 -1 -1</clus>
<clus scale="  300.000">  1  4  2 -1</clus>
</clustering>
</event>
<event>
 6    1  0.9462926E-012  0.3000000E+03  0.7818608E-02  0.1093470E+00
          1   -1    0    0  502    0  0.00000000000E+00  0.00000000000E+00  0.24652682276E+03  0.24652682276E+03  0.00000000000E+00 0.  1.
         13   -1    0    0    0    0 -0.00000000000E+00 -0.00000000000E+00 -0.27500000000E+03  0.27500000000E+03  0.00000000000E+00 0.  1.
    9000005    2    1    2  501    0 -0.34785276333E+02 -0.21142832616E+02 -0.48418072736E+02  0.47619654946E+03  0.47197649214E+03 0.  0.
         13    1    3    3    0    0  0.68165997839E+02  0.41777282023E+01 -0.24419020454E+03  0.25356047142E+03  0.00000000000E+00 0.  1.
          1    1    3    3  501    0 -0.10295127417E+03 -0.25320560819E+02  0.19577213181E+03  0.22263607804E+03  0.00000000000E+00 0.  1.
         21    1    1    2  502  501  0.34785276333E+02  0.21142832616E+02  0.19944895493E+02  0.45330273293E+02  0.00000000000E+00 0.  1.
<scales pt_clust_4="550.00000" pt_clust_5="550.00000" pt_clust_6="40.70669"></scales>
<mgrwt>
<rscale>  0 0.30000000E+03</rscale>
<asrwt>  1 0.40706693E+02</asrwt>
<pdfrwt beam="1">  1        1 0.89646117E+00 0.30000000E+03</pdfrwt>
<pdfrwt beam="2">0</pdfrwt>
<totfact> 0.11810859E-04</totfact>
</mgrwt>
<clustering>
<clus scale="   40.707">  1  6  2 -1</clus>
<clus scale="  471.976">  4  5 -1 -1</clus>
<clus scale="  300.000">  1  4  2 -1</clus>
</clustering>
</event>
<event>
 6    1  0.9462926E-012  0.3000000E+03  0.7818608E-02  0.1093470E+00
          1   -1    0    0  502    0  0.00000000000E+00  0.00000000000E+00  0.26018244494E+03  0.26018244494E+03  0.00000000000E+00 0.  1.
         13   -1    0    0    0    0 -0.00000000000E+00 -0.00000000000E+00 -0.27500000000E+03  0.27500000000E+03  0.00000000000E+00 0.  1.
    9000005    2    1    2  501    0  0.23741414100E+02 -0.19945139241E+02 -0.22479567215E+02  0.50324234862E+03  0.50178288849E+03 0.  0.
         13    1    3    3    0    0 -0.19835359155E+03  0.80643103683E+02 -0.11429497474E+03  0.24271546861E+03  0.00000000000E+00 0.  1.
          3    1    3    3  501    0  0.22209500565E+03 -0.10058824292E+03  0.91815407526E+02  0.26052688001E+03  0.00000000000E+00 0.  1.
         21    1    1    2  502  501 -0.23741414100E+02  0.19945139241E+02  0.76620121567E+01  0.31940096323E+02  0.00000000000E+00 0. -1.
<scales pt_clust_4="550.00000" pt_clust_5="550.00000" pt_clust_6="31.00747"></scales>
<mgrwt>
<rscale>  0 0.30000000E+03</rscale>
<asrwt>  1 0.31007472E+02</asrwt>
<pdfrwt beam="1">  1        1 0.94611798E+00 0.30000000E+03</pdfrwt>
<pdfrwt beam="2">0</pdfrwt>
<totfact> 0.15128562E-05</totfact>
</mgrwt>
<clustering>
<clus scale="   31.007">  1  6  2 -1</clus>
<clus scale="  501.783">  4  5 -1 -1</clus>
<clus scale="  300.000">  1  4  2 -1</clus>
</clustering>
</event>
<event>
 6    1  0.9462926E-012  0.3000000E+03  0.7818608E-02  0.1093470E+00
          1   -1    0    0  502    0  0.00000000000E+00  0.00000000000E+00  0.22855475895E+03  0.22855475895E+03  0.00000000000E+00 0.  1.
         13   -1    0    0    0    0 -0.00000000000E+00 -0.00000000000E+00 -0.27500000000E+03  0.27500000000E+03  0.00000000000E+00 0.  1.
    9000005    2    1    2  501    0 -0.14157430591E+02 -0.32422853614E+02 -0.54985152037E+02  0.46715964448E+03  0.46256144696E+03 0.  0.
         13    1    3    3    0    0  0.54427277911E+02 -0.15486633729E+03  0.14757204468E+03  0.22073382019E+03  0.00000000000E+00 0.  1.
          1    1    3    3  501    0 -0.68584708503E+02  0.12244348367E+03 -0.20255719672E+03  0.24642582429E+03  0.00000000000E+00 0.  1.
         21    1    1    2  502  501  0.14157430591E+02  0.32422853614E+02  0.85399109855E+01  0.36395114467E+02  0.00000000000E+00 0.  1.
<scales pt_clust_4="550.00000" pt_clust_5="550.00000" pt_clust_6="35.37901"></scales>
<mgrwt>
<rscale>  0 0.30000000E+03</rscale>
<asrwt>  1 0.35379009E+02</asrwt>
<pdfrwt beam="1">  1        1 0.83110821E+00 0.30000000E+03</pdfrwt>
<pdfrwt beam="2">0</pdfrwt>
<totfact> 0.57776514E-04</totfact>
</mgrwt>
<clustering>
<clus scale="   35.379">  1  6  2 -1</clus>
<clus scale="  462.561">  4  5 -1 -1</clus>
<clus scale="  300.000">  1  4  2 -1</clus>
</clustering>
</event>
<event>
 6    1  0.9462926E-012  0.3000000E+03  0.7818608E-02  0.1093470E+00
          1   -1    0    0  502    0  0.00000000000E+00  0.00000000000E+00  0.22833304878E+03  0.22833304878E+03  0.00000000000E+00 0.  1.
         13   -1    0    0    0    0 -0.00000000000E+00 -0.00000000000E+00 -0.27500000000E+03  0.27500000000E+03  0.00000000000E+00 0.  1.
    9000005    2    1    2  501    0  0.34424472536E+02 -0.19317878356E+01 -0.59089212460E+02  0.46668487436E+03  0.46164321810E+03 0.  0.
         13    1    3    3    0    0  0.95438250411E+02  0.62742555937E+02  0.17911270794E+03  0.21242987104E+03  0.00000000000E+00 0.  1.
          1    1    3    3  501    0 -0.61013777876E+02 -0.64674343772E+02 -0.23820192040E+03  0.25425500332E+03  0.00000000000E+00 0.  1.
         21    1    1    2  502  501 -0.34424472536E+02  0.19317878356E+01  0.12422261239E+02  0.36648174414E+02  0.00000000000E+00 0.  1.
<scales pt_clust_4="550.00000" pt_clust_5="550.00000" pt_clust_6="34.47863"></scales>
<mgrwt>
<rscale>  0 0.30000000E+03</rscale>
<asrwt>  1 0.34478633E+02</asrwt>
<pdfrwt beam="1">  1        1 0.83030200E+00 0.30000000E+03</pdfrwt>
<pdfrwt beam="2">0</pdfrwt>
<totfact> 0.58930198E-04</totfact>
</mgrwt>
<clustering>
<clus scale="   34.479">  1  6  2 -1</clus>
<clus scale="  461.643">  4  5 -1 -1</clus>
<clus scale="  300.000">  1  4  2 -1</clus>
</clustering>
</event>
<event>
 6    1  0.9462926E-012  0.3000000E+03  0.7818608E-02  0.1093470E+00
          1   -1    0    0  502    0  0.00000000000E+00  0.00000000000E+00  0.22968082343E+03  0.22968082343E+03  0.00000000000E+00 0.  1.
         13   -1    0    0    0    0 -0.00000000000E+00 -0.00000000000E+00 -0.27500000000E+03  0.27500000000E+03  0.00000000000E+00 0.  1.
    9000005    2    1    2  501    0  0.29115721478E+02 -0.21848765980E+02 -0.66741969654E+02  0.46244304561E+03  0.45615127546E+03 0.  0.
         13    1    3    3    0    0  0.23551297546E+03 -0.65768897545E+02 -0.57654965064E+02  0.25122898816E+03  0.00000000000E+00 0.  1.
          1    1    3    3  501    0 -0.20639725399E+03  0.43920131565E+02 -0.90870045902E+01  0.21121405745E+03  0.00000000000E+00 0.  1.
         21    1    1    2  502  501 -0.29115721478E+02  0.21848765980E+02  0.21422793087E+02  0.42237777826E+02  0.00000000000E+00 0. -1.
<scales pt_clust_4="550.00000" pt_clust_5="550.00000" pt_clust_6="36.40184"></scales>
<mgrwt>
<rscale>  0 0.30000000E+03</rscale>
<asrwt>  1 0.36401838E+02</asrwt>
<pdfrwt beam="1">  1        1 0.83520299E+00 0.30000000E+03</pdfrwt>
<pdfrwt beam="2">0</pdfrwt>
<totfact> 0.53521751E-04</totfact>
</mgrwt>
<clustering>
<clus scale="   36.402">  1  6  2 -1</clus>
<clus scale="  456.151">  4  5 -1 -1</clus>
<clus scale="  300.000">  1  4  2 -1</clus>
</clustering>
</event>
<event>
 6    1  0.9462926E-012  0.3000000E+03  0.7818608E-02  0.1093470E+00
          1   -1    0    0  502    0  0.00000000000E+00  0.00000000000E+00  0.25340217317E+03  0.25340217317E+03  0.00000000000E+00 0.  1.
         13   -1    0    0    0    0 -0.00000000000E+00 -0.00000000000E+00 -0.27500000000E+03  0.27500000000E+03  0.00000000000E+00 0.  1.
    9000005    2    1    2  501    0  0.11517319097E+02  0.28307364712E+02 -0.48404251583E+02  0.48775072862E+03  0.48437985730E+03 0.  0.
         13    1    3    3    0    0  0.67395430577E+02  0.24874468414E+03 -0.33049779213E+02  0.25982368994E+03  0.00000000000E+00 0.  1.
          1    1    3    3  501    0 -0.55878111480E+02 -0.22043731943E+03 -0.15354472370E+02  0.22792703868E+03  0.00000000000E+00 0.  1.
         21    1    1    2  502  501 -0.11517319097E+02 -0.28307364712E+02  0.26806424758E+02  0.40651444555E+02  0.00000000000E+00 0. -1.
<scales pt_clust_4="550.00000" pt_clust_5="550.00000" pt_clust_6="30.56069"></scales>
<mgrwt>
<rscale>  0 0.30000000E+03</rscale>
<asrwt>  1 0.30560686E+02</asrwt>
<pdfrwt beam="1">  1        1 0.92146245E+00 0.30000000E+03</pdfrwt>
<pdfrwt beam="2">0</pdfrwt>
<totfact> 0.39893639E-05</totfact>
</mgrwt>
<clustering>
<clus scale="   30.561">  1  6  2 -1</clus>
<clus scale="  484.380">  4  5 -1 -1</clus>
<clus scale="  300.000">  1  4  2 -1</clus>
</clustering>
</event>
<event>
 6    1  0.9462926E-012  0.3000000E+03  0.7818608E-02  0.1093470E+00
          1   -1    0    0  502    0  0.00000000000E+00  0.00000000000E+00  0.24722735153E+03  0.24722735153E+03  0.00000000000E+00 0.  1.
         13   -1    0    0    0    0 -0.00000000000E+00 -0.00000000000E+00 -0.27500000000E+03  0.27500000000E+03  0.00000000000E+00 0.  1.
    9000005    2    1    2  501    0 -0.29148749991E+02 -0.27455564049E+02 -0.35998413496E+02  0.48134800670E+03  0.47832683403E+03 0.  0.
         13    1    3    3    0    0  0.18738081185E+03  0.76613963695E+02  0.76063634009E+02  0.21625666349E+03  0.00000000000E+00 0.  1.
          1    1    3    3  501    0 -0.21652956184E+03 -0.10406952774E+03 -0.11206204750E+03  0.26509134322E+03  0.00000000000E+00 0.  1.
         21    1    1    2  502  501  0.29148749991E+02  0.27455564049E+02  0.82257650239E+01  0.40879344827E+02  0.00000000000E+00 0.  1.
<scales pt_clust_4="550.00000" pt_clust_5="550.00000" pt_clust_6="40.04320"></scales>
<mgrwt>
<rscale>  0 0.30000000E+03</rscale>
<asrwt>  1 0.40043197E+02</asrwt>
<pdfrwt beam="1">  1        1 0.89900855E+00 0.30000000E+03</pdfrwt>
<pdfrwt beam="2">0</pdfrwt>
<totfact> 0.11077673E-04</totfact>
</mgrwt>
<clustering>
<clus scale="   40.043">  1  6  2 -1</clus>
<clus scale="  478.327">  4  5 -1 -1</clus>
<clus scale="  300.000">  1  4  2 -1</clus>
</clustering>
</event>
<event>
 6    1  0.9462926E-012  0.3000000E+03  0.7818608E-02  0.1093470E+00
          1   -1    0    0  502    0  0.00000000000E+00  0.00000000000E+00  0.25503142026E+03  0.25503142026E+03  0.00000000000E+00 0.  1.
         13   -1    0    0    0    0 -0.00000000000E+00 -0.00000000000E+00 -0.27500000000E+03  0.27500000000E+03  0.00000000000E+00 0.  1.
    9000005    2    1    2  501    0  0.41033868343E+02 -0.28481682239E+02 -0.42063404187E+02  0.47541305483E+03  0.47090684658E+03 0.  0.
         13    1    3    3    0    0  0.12909669162E+03  0.52734596850E+01 -0.23075523293E+03  0.26446501222E+03  0.00000000000E+00 0.  1.
          1    1    3    3  501    0 -0.88062823277E+02 -0.33755141924E+02  0.18869182874E+03  0.21094804261E+03  0.00000000000E+00 0.  1.
         21    1    1    2  502  501 -0.41033868343E+02  0.28481682239E+02  0.22094824443E+02  0.54618365423E+02  0.00000000000E+00 0. -1.
<scales pt_clust_4="550.00000" pt_clust_5="550.00000" pt_clust_6="49.94982"></scales>
<mgrwt>
<rscale>  0 0.30000000E+03</rscale>
<asrwt>  1 0.49949821E+02</asrwt>
<pdfrwt beam="1">  1        1 0.92738698E+00 0.30000000E+03</pdfrwt>
<pdfrwt beam="2">0</pdfrwt>
<totfact> 0.27460032E-05</totfact>
</mgrwt>
<clustering>
<clus scale="   49.950">  1  6  2 -1</clus>
<clus scale="  470.907">  4  5 -1 -1</clus>
<clus scale="  300.000">  1  4  2 -1</clus>
</clustering>
</event>
<event>
 6    1  0.9462926E-012  0.3000000E+03  0.7818608E-02  0.1093470E+00
          1   -1    0    0  502    0  0.00000000000E+00  0.00000000000E+00  0.25012867746E+03  0.25012867746E+03  0.00000000000E+00 0.  1.
         13   -1    0    0    0    0 -0.00000000000E+00 -0.00000000000E+00 -0.27500000000E+03  0.27500000000E+03  0.00000000000E+00 0.  1.
    9000005    2    1    2  501    0 -0.50231790925E+02 -0.15437868213E+02 -0.57039803953E+02  0.46351397312E+03  0.45697932497E+03 0.  0.
         13    1    3    3    0    0  0.14447797424E+03 -0.14820321053E+03 -0.89737888063E+02  0.22559025956E+03  0.00000000000E+00 0.  1.
          1    1    3    3  501    0 -0.19470976517E+03  0.13276534232E+03  0.32698084110E+02  0.23792371357E+03  0.00000000000E+00 0.  1.
         21    1    1    2  502  501  0.50231790925E+02  0.15437868213E+02  0.32168481417E+02  0.61614704342E+02  0.00000000000E+00 0.  1.
<scales pt_clust_4="550.00000" pt_clust_5="550.00000" pt_clust_6="52.55055"></scales>
<mgrwt>
<rscale>  0 0.30000000E+03</rscale>
<asrwt>  1 0.52550553E+02</asrwt>
<pdfrwt beam="1">  1        1 0.90955883E+00 0.30000000E+03</pdfrwt>
<pdfrwt beam="2">0</pdfrwt>
<totfact> 0.68440925E-05</totfact>
</mgrwt>
<clustering>
<clus scale="   52.551">  1  6  2 -1</clus>
<clus scale="  456.979">  4  5 -1 -1</clus>
<clus scale="  300.000">  1  4  2 -1</clus>
</clustering>
</event>
<event>
 6    1  0.9462926E-012  0.3000000E+03  0.7818608E-02  0.1093470E+00
          1   -1    0    0  502    0  0.00000000000E+00  0.00000000000E+00  0.25079968154E+03  0.25079968154E+03  0.00000000000E+00 0.  1.
         13   -1    0    0    0    0 -0.00000000000E+00 -0.00000000000E+00 -0.27500000000E+03  0.27500000000E+03  0.00000000000E+00 0.  1.
    9000005    2    1    2  501    0  0.34031760195E+01 -0.30504705576E+02 -0.27957214196E+02  0.49487666528E+03  0.49313202019E+03 0.  0.
         13    1    3    3    0    0 -0.21670271411E+03  0.97075362363E+02  0.99471825568E+01  0.23766076395E+03  0.00000000000E+00 0.  1.
          1    1    3    3  501    0  0.22010589013E+03 -0.12758006794E+03 -0.37904396752E+02  0.25721590133E+03  0.00000000000E+00 0.  1.
         21    1    1    2  502  501 -0.34031760195E+01  0.30504705576E+02  0.37568957365E+01  0.30923016264E+02  0.00000000000E+00 0.  1.
<scales pt_clust_4="550.00000" pt_clust_5="550.00000" pt_clust_6="30.69395"></scales>
<mgrwt>
<rscale>  0 0.30000000E+03</rscale>
<asrwt>  1 0.30693952E+02</asrwt>
<pdfrwt beam="1">  1        1 0.91199884E+00 0.30000000E+03</pdfrwt>
<pdfrwt beam="2">0</pdfrwt>
<totfact> 0.65726350E-05</totfact>
</mgrwt>
<clustering>
<clus scale="   30.694">  1  6  2 -1</clus>
<clus scale="  493.132">  4  5 -1 -1</clus>
<clus scale="  300.000">  1  4  2 -1</clus>
</clustering>
</event>
<event>
 6    1  0.9462926E-012  0.3000000E+03  0.7818608E-02  0.1093470E+00
          1   -1    0    0  502    0  0.00000000000E+00  0.00000000000E+00  0.24226655618E+03  0.24226655618E+03  0.00000000000E+00 0.  1.
         13   -1    0    0    0    0 -0.00000000000E+00 -0.00000000000E+00 -0.27500000000E+03  0.27500000000E+03  0.00000000000E+00 0.  1.
    9000005    2    1    2  501    0  0.34861685423E+02  0.13896424480E+02 -0.32251986291E+02  0.47973417649E+03  0.47717527361E+03 0.  0.
         13    1    3    3    0    0  0.18410042124E+03  0.92876913555E+02  0.13146620466E+03  0.24454539280E+03  0.00000000000E+00 0.  1.
          1    1    3    3  501    0 -0.14923873582E+03 -0.78980489075E+02 -0.16371819095E+03  0.23518878369E+03  0.00000000000E+00 0.  1.
         21    1    1    2  502  501 -0.34861685423E+02 -0.13896424480E+02 -0.48145752875E+00  0.37532379691E+02  0.00000000000E+00 0.  1.
<scales pt_clust_4="550.00000" pt_clust_5="550.00000" pt_clust_6="37.52929"></scales>
<mgrwt>
<rscale>  0 0.30000000E+03</rscale>
<asrwt>  1 0.37529292E+02</asrwt>
<pdfrwt beam="1">  1        1 0.88096930E+00 0.30000000E+03</pdfrwt>
<pdfrwt beam="2">0</pdfrwt>
<totfact> 0.18947055E-04</totfact>
</mgrwt>
<clustering>
<clus scale="   37.529">  1  6  2 -1</clus>
<clus scale="  477.175">  4  5 -1 -1</clus>
<clus scale="  300.000">  1  4  2 -1</clus>
</clustering>
</event>
<event>
 6    1  0.9462926E-012  0.3000000E+03  0.7818608E-02  0.1093470E+00
          1   -1    0    0  502    0  0.00000000000E+00  0.00000000000E+00  0.24766201614E+03  0.24766201614E+03  0.00000000000E+00 0.  1.
         13   -1    0    0    0    0 -0.00000000000E+00 -0.00000000000E+00 -0.27500000000E+03  0.27500000000E+03  0.00000000000E+00 0.  1.
    9000005    2    1    2  501    0 -0.33536720922E+02  0.48943357993E+01 -0.61094161925E+02  0.47482744987E+03  0.46965939185E+03 0.  0.
         13    1    3    3    0    0 -0.21904044371E+03 -0.91282362974E+02  0.43346769962E+02  0.24122630088E+03  0.00000000000E+00 0.  1.
          1    1    3    3  501    0  0.18550372279E+03  0.96176698773E+02 -0.10444093189E+03  0.23360114899E+03  0.00000000000E+00 0.  1.
         21    1    1    2  502  501  0.33536720922E+02 -0.48943357993E+01  0.33756178069E+02  0.47834566277E+02  0.00000000000E+00 0. -1.
<scales pt_clust_4="550.00000" pt_clust_5="550.00000" pt_clust_6="33.89198"></scales>
<mgrwt>
<rscale>  0 0.30000000E+03</rscale>
<asrwt>  1 0.33891978E+02</asrwt>
<pdfrwt beam="1">  1        1 0.90058915E+00 0.30000000E+03</pdfrwt>
<pdfrwt beam="2">0</pdfrwt>
<totfact> 0.10919910E-04</totfact>
</mgrwt>
<clustering>
<clus scale="   33.892">  1  6  2 -1</clus>
<clus scale="  469.659">  4  5 -1 -1</clus>
<clus scale="  300.000">  1  4  2 -1</clus>
</clustering>
</event>
<event>
 6    1  0.9462926E-012  0.3000000E+03  0.7818608E-02  0.1093470E+00
          1   -1    0    0  502    0  0.00000000000E+00  0.00000000000E+00  0.22725180693E+03  0.22725180693E+03  0.00000000000E+00 0.  1.
         13   -1    0    0    0    0 -0.00000000000E+00 -0.00000000000E+00 -0.27500000000E+03  0.27500000000E+03  0.00000000000E+00 0.  1.
    9000005    2    1    2  501    0 -0.19288961570E+02 -0.31749907574E+02 -0.32243973287E+02  0.46199635387E+03  0.45937004311E+03 0.  0.
         13    1    3    3    0    0  0.79019368391E+02  0.19678750869E+03 -0.17241478010E+02  0.21275961252E+03  0.00000000000E+00 0.  1.
          3    1    3    3  501    0 -0.98308329961E+02 -0.22853741627E+03 -0.15002495276E+02  0.24923674135E+03  0.00000000000E+00 0.  1.
         21    1    1    2  502  501  0.19288961570E+02  0.31749907574E+02 -0.15504219787E+02  0.40255453055E+02  0.00000000000E+00 0. -1.
<scales pt_clust_4="550.00000" pt_clust_5="550.00000" pt_clust_6="37.14999"></scales>
<mgrwt>
<rscale>  0 0.30000000E+03</rscale>
<asrwt>  1 0.37149994E+02</asrwt>
<pdfrwt beam="1">  1        1 0.82637021E+00 0.30000000E+03</pdfrwt>
<pdfrwt beam="2">0</pdfrwt>
<totfact> 0.62809241E-04</totfact>
</mgrwt>
<clustering>
<clus scale="   37.150">  1  6  2 -1</clus>
<clus scale="  459.370">  4  5 -1 -1</clus>
<clus scale="  300.000">  1  4  2 -1</clus>
</clustering>
</event>
<event>
 6    1  0.9462926E-012  0.3000000E+03  0.7818608E-02  0.1093470E+00
          1   -1    0    0  502    0  0.00000000000E+00  0.00000000000E+00  0.21975984793E+03  0.21975984793E+03  0.00000000000E+00 0.  1.
         13   -1    0    0    0    0 -0.00000000000E+00 -0.00000000000E+00 -0.27500000000E+03  0.27500000000E+03  0.00000000000E+00 0.  1.
    9000005    2    1    2  501    0  0.21603072970E+02  0.21665777809E+02 -0.50137744829E+02  0.46374157510E+03  0.46000690901E+03 0.  0.
         13    1    3    3    0    0  0.20133023466E+03  0.60264227541E+02 -0.14651086842E+03  0.25618562621E+03  0.00000000000E+00 0.  1.
          1    1    3    3  501    0 -0.17972716169E+03 -0.38598449732E+02  0.96373123592E+02  0.20755594890E+03  0.00000000000E+00 0.  1.
         21    1    1    2  502  501 -0.21603072970E+02 -0.21665777809E+02 -0.51024072362E+01  0.31018272831E+02  0.00000000000E+00 0. -1.
<scales pt_clust_4="550.00000" pt_clust_5="550.00000" pt_clust_6="30.59575"></scales>
<mgrwt>
<rscale>  0 0.30000000E+03</rscale>
<asrwt>  1 0.30595745E+02</asrwt>
<pdfrwt beam="1">  1        1 0.79912672E+00 0.30000000E+03</pdfrwt>
<pdfrwt beam="2">0</pdfrwt>
<totfact> 0.10793658E-03</totfact>
</mgrwt>
<clustering>
<clus scale="   30.596">  1  6  2 -1</clus>
<clus scale="  460.007">  4  5 -1 -1</clus>
<clus scale="  300.000">  1  4  2 -1</clus>
</clustering>
</event>
<event>
 6    1  0.9462926E-012  0.3000000E+03  0.7818608E-02  0.1093470E+00
          1   -1    0    0  502    0  0.00000000000E+00  0.00000000000E+00  0.23386442481E+03  0.23386442481E+03  0.00000000000E+00 0.  1.
         13   -1    0    0    0    0 -0.00000000000E+00 -0.00000000000E+00 -0.27500000000E+03  0.27500000000E+03  0.00000000000E+00 0.  1.
    9000005    2    1    2  501    0 -0.13029516657E+02 -0.34191875158E+02 -0.24402916681E+02  0.46862968247E+03  0.46656127606E+03 0.  0.
         13    1    3    3    0    0  0.72046788316E+02  0.39586925525E+02 -0.22446873775E+03  0.23904827673E+03  0.00000000000E+00 0.  1.
          1    1    3    3  501    0 -0.85076304973E+02 -0.73778800683E+02  0.20006582107E+03  0.22958140574E+03  0.00000000000E+00 0.  1.
         21    1    1    2  502  501  0.13029516657E+02  0.34191875158E+02 -0.16732658506E+02  0.40234742348E+02  0.00000000000E+00 0. -1.
<scales pt_clust_4="550.00000" pt_clust_5="550.00000" pt_clust_6="36.59035"></scales>
<mgrwt>
<rscale>  0 0.30000000E+03</rscale>
<asrwt>  1 0.36590354E+02</asrwt>
<pdfrwt beam="1">  1        1 0.85041609E+00 0.30000000E+03</pdfrwt>
<pdfrwt beam="2">0</pdfrwt>
<totfact> 0.40001093E-04</totfact>
</mgrwt>
<clustering>
<clus scale="   36.590">  1  6  2 -1</clus>
<clus scale="  466.561">  4  5 -1 -1</clus>
<clus scale="  300.000">  1  4  2 -1</clus>
</clustering>
</event>
<event>
 6    1  0.9462926E-012  0.3000000E+03  0.7818608E-02  0.1093470E+00
          1   -1    0    0  502    0  0.00000000000E+00  0.00000000000E+00  0.22021322115E+03  0.22021322115E+03  0.00000000000E+00 0.  1.
         13   -1    0    0    0    0 -0.00000000000E+00 -0.00000000000E+00 -0.27500000000E+03  0.27500000000E+03  0.00000000000E+00 0.  1.
    9000005    2    1    2  501    0 -0.21750689641E+02 -0.20774460310E+02 -0.66307652429E+02  0.46300450759E+03  0.45724369715E+03 0.  0.
         13    1    3    3    0    0  0.19293664767E+03 -0.35104819774E+02  0.70084960491E+02  0.20825177088E+03  0.00000000000E+00 0.  1.
          1    1    3    3  501    0 -0.21468733731E+03  0.14330359464E+02 -0.13639261292E+03  0.25475273672E+03  0.00000000000E+00 0.  1.
         21    1    1    2  502  501  0.21750689641E+02  0.20774460310E+02  0.11520873581E+02  0.32208713559E+02  0.00000000000E+00 0. -1.
<scales pt_clust_4="550.00000" pt_clust_5="550.00000" pt_clust_6="30.07774"></scales>
<mgrwt>
<rscale>  0 0.30000000E+03</rscale>
<asrwt>  1 0.30077744E+02</asrwt>
<pdfrwt beam="1">  1        1 0.80077535E+00 0.30000000E+03</pdfrwt>
<pdfrwt beam="2">0</pdfrwt>
<totfact> 0.10535820E-03</totfact>
</mgrwt>
<clustering>
<clus scale="   30.078">  1  6  2 -1</clus>
<clus scale="  457.244">  4  5 -1 -1</clus>
<clus scale="  300.000">  1  4  2 -1</clus>
</clustering>
</event>
<event>
 6    1  0.9462926E-012  0.3000000E+03  0.7818608E-02  0.1093470E+00
          1   -1    0    0  502    0  0.00000000000E+00  0.00000000000E+00  0.25202648888E+03  0.25202648888E+03  0.00000000000E+00 0.  1.
         13   -1    0    0    0    0 -0.00000000000E+00 -0.00000000000E+00 -0.27500000000E+03  0.27500000000E+03  0.00000000000E+00 0.  1.
    9000005    2    1    2  501    0 -0.21554997413E+02  0.35044158167E+02 -0.58481921066E+02  0.47267984122E+03  0.46724018049E+03 0.  0.
         13    1    3    3    0    0 -0.99642218260E+02  0.19064015369E+03 -0.16276084513E+03  0.26974679343E+03  0.00000000000E+00 0.  1.
          3    1    3    3  501    0  0.78087220847E+02 -0.15559599552E+03  0.10427892406E+03  0.20293304779E+03  0.00000000000E+00 0.  1.
         21    1    1    2  502  501  0.21554997413E+02 -0.35044158167E+02  0.35508409942E+02  0.54346647658E+02  0.00000000000E+00 0.  1.
<scales pt_clust_4="550.00000" pt_clust_5="550.00000" pt_clust_6="41.14257"></scales>
<mgrwt>
<rscale>  0 0.30000000E+03</rscale>
<asrwt>  1 0.41142568E+02</asrwt>
<pdfrwt beam="1">  1        1 0.91645996E+00 0.30000000E+03</pdfrwt>
<pdfrwt beam="2">0</pdfrwt>
<totfact> 0.48642991E-05</totfact>
</mgrwt>
<clustering>
<clus scale="   41.143">  1  6  2 -1</clus>
<clus scale="  467.240">  4  5 -1 -1</clus>
<clus scale="  300.000">  1  4  2 -1</clus>
</clustering>
</event>
<event>
 6    1  0.9462926E-012  0.3000000E+03  0.7818608E-02  0.1093470E+00
          1   -1    0    0  502    0  0.00000000000E+00  0.00000000000E+00  0.24827543843E+03  0.24827543843E+03  0.00000000000E+00 0.  1.
         13   -1    0    0    0    0 -0.00000000000E+00 -0.00000000000E+00 -0.27500000000E+03  0.27500000000E+03  0.00000000000E+00 0.  1.
    9000005    2    1    2  501    0 -0.13849525737E+02 -0.32426830210E+02 -0.16120212498E+02  0.48645477983E+03  0.48490729309E+03 0.  0.
         13    1    3    3    0    0  0.12730664966E+03  0.18044115452E+03  0.41309875845E+02  0.22466085358E+03  0.00000000000E+00 0.  1.
          3    1    3    3  501    0 -0.14115617539E+03 -0.21286798473E+03 -0.57430088344E+02  0.26179392625E+03  0.00000000000E+00 0.  1.
         21    1    1    2  502  501  0.13849525737E+02  0.32426830210E+02 -0.10604349069E+02  0.36820658601E+02  0.00000000000E+00 0.  1.
<scales pt_clust_4="550.00000" pt_clust_5="550.00000" pt_clust_6="35.26060"></scales>
<mgrwt>
<rscale>  0 0.30000000E+03</rscale>
<asrwt>  1 0.35260600E+02</asrwt>
<pdfrwt beam="1">  1        1 0.90281978E+00 0.30000000E+03</pdfrwt>
<pdfrwt beam="2">0</pdfrwt>
<totfact> 0.10073515E-04</totfact>
</mgrwt>
<clustering>
<clus scale="   35.261">  1  6  2 -1</clus>
<clus scale="  484.907">  4  5 -1 -1</clus>
<clus scale="  300.000">  1  4  2 -1</clus>
</clustering>
</event>
<event>
 6    1  0.9462926E-012  0.3000000E+03  0.7818608E-02  0.1093470E+00
          1   -1    0    0  502    0  0.00000000000E+00  0.00000000000E+00  0.22376766919E+03  0.22376766919E+03  0.00000000000E+00 0.  1.
         13   -1    0    0    0    0 -0.00000000000E+00 -0.00000000000E+00 -0.27500000000E+03  0.27500000000E+03  0.00000000000E+00 0.  1.
    9000005    2    1    2  501    0 -0.32093648157E+02  0.24700306077E+01 -0.48604337377E+02  0.46647200922E+03  0.46281492032E+03 0.  0.
         13    1    3    3    0    0  0.17609726904E+03 -0.10428970543E+03 -0.98672503761E+02  0.22720663243E+03  0.00000000000E+00 0.  1.
          1    1    3    3  501    0 -0.20819091720E+03  0.10675973604E+03  0.50068166385E+02  0.23926537679E+03  0.00000000000E+00 0.  1.
         21    1    1    2  502  501  0.32093648157E+02 -0.24700306077E+01 -0.26279934343E+01  0.32295659967E+02  0.00000000000E+00 0.  1.
<scales pt_clust_4="550.00000" pt_clust_5="550.00000" pt_clust_6="32.18856"></scales>
<mgrwt>
<rscale>  0 0.30000000E+03</rscale>
<asrwt>  1 0.32188559E+02</asrwt>
<pdfrwt beam="1">  1        1 0.81370062E+00 0.30000000E+03</pdfrwt>
<pdfrwt beam="2">0</pdfrwt>
<totfact> 0.82839381E-04</totfact>
</mgrwt>
<clustering>
<clus scale="   32.189">  1  6  2 -1</clus>
<clus scale="  462.815">  4  5 -1 -1</clus>
<clus scale="  300.000">  1  4  2 -1</clus>
</clustering>
</event>
<event>
 6    1  0.9462926E-012  0.3000000E+03  0.7818608E-02  0.1093470E+00
          1   -1    0    0  502    0  0.00000000000E+00  0.00000000000E+00  0.22734209837E+03  0.22734209837E+03  0.00000000000E+00 0.  1.
         13   -1    0    0    0    0 -0.00000000000E+00 -0.00000000000E+00 -0.27500000000E+03  0.27500000000E+03  0.00000000000E+00 0.  1.
    9000005    2    1    2  501    0  0.37110522128E+02 -0.53968349791E+01 -0.40971185141E+02  0.46424972567E+03  0.46091523417E+03 0.  0.
         13    1    3    3    0    0  0.97215927997E+02 -0.18923955855E+02 -0.23801512844E+03  0.25779886371E+03  0.00000000000E+00 0.  1.
          1    1    3    3  501    0 -0.60105405869E+02  0.13527120876E+02  0.19704394330E+03  0.20645086196E+03  0.00000000000E+00 0.  1.
         21    1    1    2  502  501 -0.37110522128E+02  0.53968349791E+01 -0.66867164923E+01  0.38092372699E+02  0.00000000000E+00 0. -1.
<scales pt_clust_4="550.00000" pt_clust_5="550.00000" pt_clust_6="37.50091"></scales>
<mgrwt>
<rscale>  0 0.30000000E+03</rscale>
<asrwt>  1 0.37500908E+02</asrwt>
<pdfrwt beam="1">  1        1 0.82669854E+00 0.30000000E+03</pdfrwt>
<pdfrwt beam="2">0</pdfrwt>
<totfact> 0.62282691E-04</totfact>
</mgrwt>
<clustering>
<clus scale="   37.501">  1  6  2 -1</clus>
<clus scale="  460.915">  4  5 -1 -1</clus>
<clus scale="  300.000">  1  4  2 -1</clus>
</clustering>
</event>
<event>
 6    1  0.9462926E-012  0.3000000E+03  0.7818608E-02  0.1093470E+00
          1   -1    0    0  502    0  0.00000000000E+00  0.00000000000E+00  0.22423690839E+03  0.22423690839E+03  0.00000000000E+00 0.  1.
         13   -1    0    0    0    0 -0.00000000000E+00 -0.00000000000E+00 -0.27500000000E+03  0.27500000000E+03  0.00000000000E+00 0.  1.
    9000005    2    1    2  501    0  0.20658046745E+02  0.21935532529E+02 -0.66675963355E+02  0.46516137509E+03  0.45937076344E+03 0.  0.
         13    1    3    3    0    0  0.21288145840E+03  0.11065621015E+03 -0.80322362239E+02  0.25301184568E+03  0.00000000000E+00 0.  1.
          3    1    3    3  501    0 -0.19222341166E+03 -0.88720677619E+02  0.13646398884E+02  0.21214952941E+03  0.00000000000E+00 0.  1.
         21    1    1    2  502  501 -0.20658046745E+02 -0.21935532529E+02  0.15912871744E+02  0.34075533301E+02  0.00000000000E+00 0. -1.
<scales pt_clust_4="550.00000" pt_clust_5="550.00000" pt_clust_6="30.13175"></scales>
<mgrwt>
<rscale>  0 0.30000000E+03</rscale>
<asrwt>  1 0.30131752E+02</asrwt>
<pdfrwt beam="1">  1        1 0.81540694E+00 0.30000000E+03</pdfrwt>
<pdfrwt beam="2">0</pdfrwt>
<totfact> 0.81279300E-04</totfact>
</mgrwt>
<clustering>
<clus scale="   30.132">  1  6  2 -1</clus>
<clus scale="  459.371">  4  5 -1 -1</clus>
<clus scale="  300.000">  1  4  2 -1</clus>
</clustering>
</event>
<event>
 6    1  0.9462926E-012  0.3000000E+03  0.7818608E-02  0.1093470E+00
          1   -1    0    0  502    0  0.00000000000E+00  0.00000000000E+00  0.22131053015E+03  0.22131053015E+03  0.00000000000E+00 0.  1.
         13   -1    0    0    0    0 -0.00000000000E+00 -0.00000000000E+00 -0.27500000000E+03  0.27500000000E+03  0.00000000000E+00 0.  1.
    9000005    2    1    2  501    0 -0.30274920732E+02 -0.55491909834E+01 -0.63011829400E+02  0.46415045034E+03  0.45882217205E+03 0.  0.
         13    1    3    3    0    0  0.13679302115E+03  0.11260276291E+03 -0.15906363594E+03  0.23810282050E+03  0.00000000000E+00 0.  1.
          1    1    3    3  501    0 -0.16706794189E+03 -0.11815195390E+03  0.96051806541E+02  0.22604762984E+03  0.00000000000E+00 0.  1.
         21    1    1    2  502  501  0.30274920732E+02  0.55491909834E+01  0.93223595542E+01  0.32160079813E+02  0.00000000000E+00 0. -1.
<scales pt_clust_4="550.00000" pt_clust_5="550.00000" pt_clust_6="30.77928"></scales>
<mgrwt>
<rscale>  0 0.30000000E+03</rscale>
<asrwt>  1 0.30779284E+02</asrwt>
<pdfrwt beam="1">  1        1 0.80476556E+00 0.30000000E+03</pdfrwt>
<pdfrwt beam="2">0</pdfrwt>
<totfact> 0.98040122E-04</totfact>
</mgrwt>
<clustering>
<clus scale="   30.779">  1  6  2 -1</clus>
<clus scale="  458.822">  4  5 -1 -1</clus>
<clus scale="  300.000">  1  4  2 -1</clus>
</clustering>
</event>
<event>
 6    1  0.9462926E-012  0.3000000E+03  0.7818608E-02  0.1093470E+00
          1   -1    0    0  502    0  0.00000000000E+00  0.00000000000E+00  0.22380214593E+03  0.22380214593E+03  0.00000000000E+00 0.  1.
         13   -1    0    0    0    0 -0.00000000000E+00 -0.00000000000E+00 -0.27500000000E+03  0.27500000000E+03  0.00000000000E+00 0.  1.
    9000005    2    1    2  501    0  0.30178513398E+02 -0.86061899469E-01 -0.64634132396E+02  0.46576756325E+03  0.46027285584E+03 0.  0.
         13    1    3    3    0    0 -0.35487428426E+02 -0.20199485177E+03 -0.13095478988E+03  0.24333194346E+03  0.00000000000E+00 0.  1.
          3    1    3    3  501    0  0.65665941824E+02  0.20190878987E+03  0.66320657481E+02  0.22243561979E+03  0.00000000000E+00 0.  1.
         21    1    1    2  502  501 -0.30178513398E+02  0.86061899469E-01  0.13436278324E+02  0.33034582679E+02  0.00000000000E+00 0.  1.
<scales pt_clust_4="550.00000" pt_clust_5="550.00000" pt_clust_6="30.17864"></scales>
<mgrwt>
<rscale>  0 0.30000000E+03</rscale>
<asrwt>  1 0.30178636E+02</asrwt>
<pdfrwt beam="1">  1        1 0.81382599E+00 0.30000000E+03</pdfrwt>
<pdfrwt beam="2">0</pdfrwt>
<totfact> 0.83673534E-04</totfact>
</mgrwt>
<clustering>
<clus scale="   30.179">  1  6  2 -1</clus>
<clus scale="  460.273">  4  5 -1 -1</clus>
<clus scale="  300.000">  1  4  2 -1</clus>
</clustering>
</event>
<event>
 6    1  0.9462926E-012  0.3000000E+03  0.7818608E-02  0.1093470E+00
          1   -1    0    0  502    0  0.00000000000E+00  0.00000000000E+00  0.23098765059E+03  0.23098765059E+03  0.00000000000E+00 0.  1.
         13   -1    0    0    0    0 -0.00000000000E+00 -0.00000000000E+00 -0.27500000000E+03  0.27500000000E+03  0.00000000000E+00 0.  1.
    9000005    2    1    2  501    0 -0.36821083128E+02  0.74153854386E+01 -0.58939049118E+02  0.46557000014E+03  0.46029429001E+03 0.  0.
         13    1    3    3    0    0 -0.78550864541E+02 -0.17784038380E+03 -0.15878967704E+03  0.25102111856E+03  0.00000000000E+00 0.  1.
          1    1    3    3  501    0  0.41729781413E+02  0.18525576923E+03  0.99850627918E+02  0.21454888158E+03  0.00000000000E+00 0.  1.
         21    1    1    2  502  501  0.36821083128E+02 -0.74153854386E+01  0.14926699707E+02  0.40417650452E+02  0.00000000000E+00 0. -1.
<scales pt_clust_4="550.00000" pt_clust_5="550.00000" pt_clust_6="37.56035"></scales>
<mgrwt>
<rscale>  0 0.30000000E+03</rscale>
<asrwt>  1 0.37560353E+02</asrwt>
<pdfrwt beam="1">  1        1 0.83995509E+00 0.30000000E+03</pdfrwt>
<pdfrwt beam="2">0</pdfrwt>
<totfact> 0.49095211E-04</totfact>
</mgrwt>
<clustering>
<clus scale="   37.560">  1  6  2 -1</clus>
<clus scale="  460.294">  4  5 -1 -1</clus>
<clus scale="  300.000">  1  4  2 -1</clus>
</clustering>
</event>
<event>
 6    1  0.9462926E-012  0.3000000E+03  0.7818608E-02  0.1093470E+00
          1   -1    0    0  502    0  0.00000000000E+00  0.00000000000E+00  0.23646149750E+03  0.23646149750E+03  0.00000000000E+00 0.  1.
         13   -1    0    0    0    0 -0.00000000000E+00 -0.00000000000E+00 -0.27500000000E+03  0.27500000000E+03  0.00000000000E+00 0.  1.
    9000005    2    1    2  501    0 -0.23103969081E+02  0.28469735186E+02 -0.51884247474E+02  0.47244319260E+03  0.46815197947E+03 0.  0.
         13    1    3    3    0    0  0.14734548738E+03 -0.11098539504E+03 -0.14370768881E+03  0.23383829966E+03  0.00000000000E+00 0.  1.
          3    1    3    3  501    0 -0.17044945646E+03  0.13945513023E+03  0.91823441339E+02  0.23860489294E+03  0.00000000000E+00 0.  1.
         21    1    1    2  502  501  0.23103969081E+02 -0.28469735186E+02  0.13345744978E+02  0.39018304907E+02  0.00000000000E+00 0.  1.
<scales pt_clust_4="550.00000" pt_clust_5="550.00000" pt_clust_6="36.66496"></scales>
<mgrwt>
<rscale>  0 0.30000000E+03</rscale>
<asrwt>  1 0.36664959E+02</asrwt>
<pdfrwt beam="1">  1        1 0.85985999E+00 0.30000000E+03</pdfrwt>
<pdfrwt beam="2">0</pdfrwt>
<totfact> 0.32177986E-04</totfact>
</mgrwt>
<clustering>
<clus scale="   36.665">  1  6  2 -1</clus>
<clus scale="  468.152">  4  5 -1 -1</clus>
<clus scale="  300.000">  1  4  2 -1</clus>
</clustering>
</event>
<event>
 6    1  0.9462926E-012  0.3000000E+03  0.7818608E-02  0.1093470E+00
          1   -1    0    0  502    0  0.00000000000E+00  0.00000000000E+00  0.22016397400E+03  0.22016397400E+03  0.00000000000E+00 0.  1.
         13   -1    0    0    0    0 -0.00000000000E+00 -0.00000000000E+00 -0.27500000000E+03  0.27500000000E+03  0.00000000000E+00 0.  1.
    9000005    2    1    2  501    0 -0.22788192729E+01 -0.29917466133E+02 -0.60298907417E+02  0.46466658279E+03  0.45975953185E+03 0.  0.
         13    1    3    3    0    0  0.18213865198E+03 -0.78966768225E+02 -0.15478097518E+03  0.25172880111E+03  0.00000000000E+00 0.  1.
          1    1    3    3  501    0 -0.18441747126E+03  0.49049302091E+02  0.94482067758E+02  0.21293778168E+03  0.00000000000E+00 0.  1.
         21    1    1    2  502  501  0.22788192729E+01  0.29917466133E+02  0.54628814160E+01  0.30497391208E+02  0.00000000000E+00 0.  1.
<scales pt_clust_4="550.00000" pt_clust_5="550.00000" pt_clust_6="30.00413"></scales>
<mgrwt>
<rscale>  0 0.30000000E+03</rscale>
<asrwt>  1 0.30004130E+02</asrwt>
<pdfrwt beam="1">  1        1 0.80059627E+00 0.30000000E+03</pdfrwt>
<pdfrwt beam="2">0</pdfrwt>
<totfact> 0.10572309E-03</totfact>
</mgrwt>
<clustering>
<clus scale="   30.004">  1  6  2 -1</clus>
<clus scale="  459.760">  4  5 -1 -1</clus>
<clus scale="  300.000">  1  4  2 -1</clus>
</clustering>
</event>
<event>
 6    1  0.9462926E-012  0.3000000E+03  0.7818608E-02  0.1093470E+00
          1   -1    0    0  502    0  0.00000000000E+00  0.00000000000E+00  0.25840557053E+03  0.25840557053E+03  0.00000000000E+00 0.  1.
         13   -1    0    0    0    0 -0.00000000000E+00 -0.00000000000E+00 -0.27500000000E+03  0.27500000000E+03  0.00000000000E+00 0.  1.
    9000005    2    1    2  501    0  0.21529696813E+02 -0.25502724941E+02 -0.42901422052E+02  0.49090880968E+03  0.48789036738E+03 0.  0.
         13    1    3    3    0    0  0.45517986702E+02 -0.25448841224E+03 -0.30753607275E+02  0.26034980976E+03  0.00000000000E+00 0.  1.
          1    1    3    3  501    0 -0.23988289889E+02  0.22898568730E+03 -0.12147814778E+02  0.23055899992E+03  0.00000000000E+00 0.  1.
         21    1    1    2  502  501 -0.21529696813E+02  0.25502724941E+02  0.26306992585E+02  0.42496760855E+02  0.00000000000E+00 0. -1.
<scales pt_clust_4="550.00000" pt_clust_5="550.00000" pt_clust_6="33.37539"></scales>
<mgrwt>
<rscale>  0 0.30000000E+03</rscale>
<asrwt>  1 0.33375392E+02</asrwt>
<pdfrwt beam="1">  1        1 0.93965662E+00 0.30000000E+03</pdfrwt>
<pdfrwt beam="2">0</pdfrwt>
<totfact> 0.19587427E-05</totfact>
</mgrwt>
<clustering>
<clus scale="   33.375">  1  6  2 -1</clus>
<clus scale="  487.890">  4  5 -1 -1</clus>
<clus scale="  300.000">  1  4  2 -1</clus>
</clustering>
</event>
<event>
 6    1  0.9462926E-012  0.3000000E+03  0.7818608E-02  0.1093470E+00
          1   -1    0    0  502    0  0.00000000000E+00  0.00000000000E+00  0.22482166659E+03  0.22482166659E+03  0.00000000000E+00 0.  1.
         13   -1    0    0    0    0 -0.00000000000E+00 -0.00000000000E+00 -0.27500000000E+03  0.27500000000E+03  0.00000000000E+00 0.  1.
    9000005    2    1    2  501    0  0.35087613377E+02  0.89137585608E+01 -0.61301091148E+02  0.46194936215E+03  0.45643049165E+03 0.  0.
         13    1    3    3    0    0  0.17858499544E+02  0.23232076437E+03 -0.44785423175E+02  0.23727114804E+03  0.00000000000E+00 0.  1.
          3    1    3    3  501    0  0.17229113832E+02 -0.22340700581E+03 -0.16515667973E+02  0.22467821411E+03  0.00000000000E+00 0.  1.
         21    1    1    2  502  501 -0.35087613377E+02 -0.89137585608E+01  0.11122757737E+02  0.37872304443E+02  0.00000000000E+00 0.  1.
<scales pt_clust_4="550.00000" pt_clust_5="550.00000" pt_clust_6="36.20215"></scales>
<mgrwt>
<rscale>  0 0.30000000E+03</rscale>
<asrwt>  1 0.36202151E+02</asrwt>
<pdfrwt beam="1">  1        1 0.81753333E+00 0.30000000E+03</pdfrwt>
<pdfrwt beam="2">0</pdfrwt>
<totfact> 0.75420428E-04</totfact>
</mgrwt>
<clustering>
<clus scale="   36.202">  1  6  2 -1</clus>
<clus scale="  456.430">  4  5 -1 -1</clus>
<clus scale="  300.000">  1  4  2 -1</clus>
</clustering>
</event>
<event>
 6    1  0.9462926E-012  0.3000000E+03  0.7818608E-02  0.1093470E+00
          1   -1    0    0  502    0  0.00000000000E+00  0.00000000000E+00  0.21937976826E+03  0.21937976826E+03  0.00000000000E+00 0.  1.
         13   -1    0    0    0    0 -0.00000000000E+00 -0.00000000000E+00 -0.27500000000E+03  0.27500000000E+03  0.00000000000E+00 0.  1.
    9000005    2    1    2  501    0 -0.27576494849E+02 -0.18910472691E+02 -0.55357512911E+02  0.46094119672E+03  0.45638170817E+03 0.  0.
         13    1    3    3    0    0  0.97608317172E+02 -0.83427806653E+02 -0.21352612703E+03  0.24916056957E+03  0.00000000000E+00 0.  1.
          3    1    3    3  501    0 -0.12518481202E+03  0.64517333961E+02  0.15816861412E+03  0.21178062715E+03  0.00000000000E+00 0.  1.
         21    1    1    2  502  501  0.27576494849E+02  0.18910472691E+02 -0.26271882622E+00  0.33438571542E+02  0.00000000000E+00 0. -1.
<scales pt_clust_4="550.00000" pt_clust_5="550.00000" pt_clust_6="33.43754"></scales>
<mgrwt>
<rscale>  0 0.30000000E+03</rscale>
<asrwt>  1 0.33437539E+02</asrwt>
<pdfrwt beam="1">  1        1 0.79774461E+00 0.30000000E+03</pdfrwt>
<pdfrwt beam="2">0</pdfrwt>
<totfact> 0.10860689E-03</totfact>
</mgrwt>
<clustering>
<clus scale="   33.438">  1  6  2 -1</clus>
<clus scale="  456.382">  4  5 -1 -1</clus>
<clus scale="  300.000">  1  4  2 -1</clus>
</clustering>
</event>
<event>
 6    1  0.9462926E-012  0.3000000E+03  0.7818608E-02  0.1093470E+00
          1   -1    0    0  502    0  0.00000000000E+00  0.00000000000E+00  0.22086128007E+03  0.22086128007E+03  0.00000000000E+00 0.  1.
         13   -1    0    0    0    0 -0.00000000000E+00 -0.00000000000E+00 -0.27500000000E+03  0.27500000000E+03  0.00000000000E+00 0.  1.
    9000005    2    1    2  501    0  0.18274571753E+02  0.25221490994E+02 -0.40423776278E+02  0.46182918845E+03  0.45900112639E+03 0.  0.
         13    1    3    3    0    0 -0.18661157920E+03 -0.80295040514E+02 -0.96103639231E+02  0.22473781279E+03  0.00000000000E+00 0.  1.
          1    1    3    3  501    0  0.20488615095E+03  0.10551653151E+03  0.55679862954E+02  0.23709137566E+03  0.00000000000E+00 0.  1.
         21    1    1    2  502  501 -0.18274571753E+02 -0.25221490994E+02 -0.13714943655E+02  0.34032091622E+02  0.00000000000E+00 0.  1.
<scales pt_clust_4="550.00000" pt_clust_5="550.00000" pt_clust_6="31.14618"></scales>
<mgrwt>
<rscale>  0 0.30000000E+03</rscale>
<asrwt>  1 0.31146180E+02</asrwt>
<pdfrwt beam="1">  1        1 0.80313193E+00 0.30000000E+03</pdfrwt>
<pdfrwt beam="2">0</pdfrwt>
<totfact> 0.10059537E-03</totfact>
</mgrwt>
<clustering>
<clus scale="   31.146">  1  6  2 -1</clus>
<clus scale="  459.001">  4  5 -1 -1</clus>
<clus scale="  300.000">  1  4  2 -1</clus>
</clustering>
</event>
<event>
 6    1  0.9462926E-012  0.3000000E+03  0.7818608E-02  0.1093470E+00
          1   -1    0    0  502    0  0.00000000000E+00  0.00000000000E+00  0.24124935723E+03  0.24124935723E+03  0.00000000000E+00 0.  1.
         13   -1    0    0    0    0 -0.00000000000E+00 -0.00000000000E+00 -0.27500000000E+03  0.27500000000E+03  0.00000000000E+00 0.  1.
    9000005    2    1    2  501    0 -0.31369840066E+02  0.13070423298E+02 -0.44549466803E+02  0.48059101415E+03  0.47731348719E+03 0.  0.
         13    1    3    3    0    0 -0.13227478879E+01 -0.23175832306E+03 -0.26341635632E+02  0.23325426413E+03  0.00000000000E+00 0.  1.
          3    1    3    3  501    0 -0.30047092178E+02  0.24482874636E+03 -0.18207831172E+02  0.24733675001E+03  0.00000000000E+00 0.  1.
         21    1    1    2  502  501  0.31369840066E+02 -0.13070423298E+02  0.10798824035E+02  0.35658343084E+02  0.00000000000E+00 0.  1.
<scales pt_clust_4="550.00000" pt_clust_5="550.00000" pt_clust_6="33.98386"></scales>
<mgrwt>
<rscale>  0 0.30000000E+03</rscale>
<asrwt>  1 0.33983861E+02</asrwt>
<pdfrwt beam="1">  1        1 0.87727039E+00 0.30000000E+03</pdfrwt>
<pdfrwt beam="2">0</pdfrwt>
<totfact> 0.21368765E-04</totfact>
</mgrwt>
<clustering>
<clus scale="   33.984">  1  6  2 -1</clus>
<clus scale="  477.313">  4  5 -1 -1</clus>
<clus scale="  300.000">  1  4  2 -1</clus>
</clustering>
</event>
<event>
 6    1  0.9462926E-012  0.3000000E+03  0.7818608E-02  0.1093470E+00
          1   -1    0    0  502    0  0.00000000000E+00  0.00000000000E+00  0.22835288758E+03  0.22835288758E+03  0.00000000000E+00 0.  1.
         13   -1    0    0    0    0 -0.00000000000E+00 -0.00000000000E+00 -0.27500000000E+03  0.27500000000E+03  0.00000000000E+00 0.  1.
    9000005    2    1    2  501    0 -0.32569863014E+02 -0.14793666165E+02 -0.23482836337E+02  0.46073561148E+03  0.45874416787E+03 0.  0.
         13    1    3    3    0    0  0.13848466723E+03 -0.12800301933E+03 -0.13053998266E+03  0.22935444859E+03  0.00000000000E+00 0.  1.
          1    1    3    3  501    0 -0.17105453025E+03  0.11320935317E+03  0.10705714632E+03  0.23138116289E+03  0.00000000000E+00 0.  1.
         21    1    1    2  502  501  0.32569863014E+02  0.14793666165E+02 -0.23164276084E+02  0.42617276096E+02  0.00000000000E+00 0.  1.
<scales pt_clust_4="550.00000" pt_clust_5="550.00000" pt_clust_6="35.77219"></scales>
<mgrwt>
<rscale>  0 0.30000000E+03</rscale>
<asrwt>  1 0.35772193E+02</asrwt>
<pdfrwt beam="1">  1        1 0.83037414E+00 0.30000000E+03</pdfrwt>
<pdfrwt beam="2">0</pdfrwt>
<totfact> 0.58446688E-04</totfact>
</mgrwt>
<clustering>
<clus scale="   35.772">  1  6  2 -1</clus>
<clus scale="  458.744">  4  5 -1 -1</clus>
<clus scale="  300.000">  1  4  2 -1</clus>
</clustering>
</event>
<event>
 6    1  0.9462926E-012  0.3000000E+03  0.7818608E-02  0.1093470E+00
          1   -1    0    0  502    0  0.00000000000E+00  0.00000000000E+00  0.24794694072E+03  0.24794694072E+03  0.00000000000E+00 0.  1.
         13   -1    0    0    0    0 -0.00000000000E+00 -0.00000000000E+00 -0.27500000000E+03  0.27500000000E+03  0.00000000000E+00 0.  1.
    9000005    2    1    2  501    0 -0.31738703267E+02  0.68858497613E+01 -0.69753838915E+02  0.46929885787E+03  0.46294822577E+03 0.  0.
         13    1    3    3    0    0 -0.61727119948E+01 -0.19604581594E+02 -0.26743253721E+03  0.26822118476E+03  0.00000000000E+00 0.  1.
          3    1    3    3  501    0 -0.25565991272E+02  0.26490431355E+02  0.19767869830E+03  0.20107767311E+03  0.00000000000E+00 0.  1.
         21    1    1    2  502  501  0.31738703267E+02 -0.68858497613E+01  0.42700779631E+02  0.53648082846E+02  0.00000000000E+00 0.  1.
<scales pt_clust_4="550.00000" pt_clust_5="550.00000" pt_clust_6="32.47707"></scales>
<mgrwt>
<rscale>  0 0.30000000E+03</rscale>
<asrwt>  1 0.32477072E+02</asrwt>
<pdfrwt beam="1">  1        1 0.90162524E+00 0.30000000E+03</pdfrwt>
<pdfrwt beam="2">0</pdfrwt>
<totfact> 0.10657961E-04</totfact>
</mgrwt>
<clustering>
<clus scale="   32.477">  1  6  2 -1</clus>
<clus scale="  462.948">  4  5 -1 -1</clus>
<clus scale="  300.000">  1  4  2 -1</clus>
</clustering>
</event>
<event>
 6    1  0.9462926E-012  0.3000000E+03  0.7818608E-02  0.1093470E+00
          1   -1    0    0  502    0  0.00000000000E+00  0.00000000000E+00  0.24641256870E+03  0.24641256870E+03  0.00000000000E+00 0.  1.
         13   -1    0    0    0    0 -0.00000000000E+00 -0.00000000000E+00 -0.27500000000E+03  0.27500000000E+03  0.00000000000E+00 0.  1.
    9000005    2    1    2  501    0 -0.51722174089E+01 -0.37608327165E+02 -0.56050436819E+02  0.47455795551E+03  0.46970465568E+03 0.  0.
         13    1    3    3    0    0 -0.64576656404E+02  0.20172281450E+03 -0.80866024161E+02  0.22671910441E+03  0.00000000000E+00 0.  1.
          3    1    3    3  501    0  0.59404438995E+02 -0.23933114166E+03  0.24815587342E+02  0.24783885110E+03  0.00000000000E+00 0.  1.
         21    1    1    2  502  501  0.51722174089E+01  0.37608327165E+02  0.27463005523E+02  0.46854613192E+02  0.00000000000E+00 0.  1.
<scales pt_clust_4="550.00000" pt_clust_5="550.00000" pt_clust_6="37.96232"></scales>
<mgrwt>
<rscale>  0 0.30000000E+03</rscale>
<asrwt>  1 0.37962325E+02</asrwt>
<pdfrwt beam="1">  1        1 0.89604570E+00 0.30000000E+03</pdfrwt>
<pdfrwt beam="2">0</pdfrwt>
<totfact> 0.12090961E-04</totfact>
</mgrwt>
<clustering>
<clus scale="   37.962">  1  6  2 -1</clus>
<clus scale="  469.705">  4  5 -1 -1</clus>
<clus scale="  300.000">  1  4  2 -1</clus>
</clustering>
</event>
<event>
 6    1  0.9462926E-012  0.3000000E+03  0.7818608E-02  0.1093470E+00
          1   -1    0    0  502    0  0.00000000000E+00  0.00000000000E+00  0.23865095286E+03  0.23865095286E+03  0.00000000000E+00 0.  1.
         13   -1    0    0    0    0 -0.00000000000E+00 -0.00000000000E+00 -0.27500000000E+03  0.27500000000E+03  0.00000000000E+00 0.  1.
    9000005    2    1    2  501    0 -0.27619165662E+02 -0.34861263123E+02 -0.35698894327E+02  0.46917007296E+03  0.46569090642E+03 0.  0.
         13    1    3    3    0    0 -0.16326201231E+03  0.10749362137E+03  0.11013260868E+03  0.22436255212E+03  0.00000000000E+00 0.  1.
          1    1    3    3  501    0  0.13564284665E+03 -0.14235488449E+03 -0.14583150301E+03  0.24480752083E+03  0.00000000000E+00 0.  1.
         21    1    1    2  502  501  0.27619165662E+02  0.34861263123E+02 -0.65015281032E+00  0.44480879904E+02  0.00000000000E+00 0. -1.
<scales pt_clust_4="550.00000" pt_clust_5="550.00000" pt_clust_6="44.47613"></scales>
<mgrwt>
<rscale>  0 0.30000000E+03</rscale>
<asrwt>  1 0.44476128E+02</asrwt>
<pdfrwt beam="1">  1        1 0.86782165E+00 0.30000000E+03</pdfrwt>
<pdfrwt beam="2">0</pdfrwt>
<totfact> 0.25524592E-04</totfact>
</mgrwt>
<clustering>
<clus scale="   44.476">  1  6  2 -1</clus>
<clus scale="  465.691">  4  5 -1 -1</clus>
<clus scale="  300.000">  1  4  2 -1</clus>
</clustering>
</event>
<event>
 6    1  0.9462926E-012  0.3000000E+03  0.7818608E-02  0.1093470E+00
          1   -1    0    0  502    0  0.00000000000E+00  0.00000000000E+00  0.24926616469E+03  0.24926616469E+03  0.00000000000E+00 0.  1.
         13   -1    0    0    0    0 -0.00000000000E+00 -0.00000000000E+00 -0.27500000000E+03  0.27500000000E+03  0.00000000000E+00 0.  1.
    9000005    2    1    2  501    0  0.46917635555E+01 -0.36908368297E+02 -0.66616402828E+02  0.46898846012E+03  0.46273987326E+03 0.  0.
         13    1    3    3    0    0  0.52616830171E+02 -0.11681415099E+02 -0.26135720406E+03  0.26685684250E+03  0.00000000000E+00 0.  1.
          1    1    3    3  501    0 -0.47925066615E+02 -0.25226953198E+02  0.19474080123E+03  0.20213161762E+03  0.00000000000E+00 0.  1.
         21    1    1    2  502  501 -0.46917635555E+01  0.36908368297E+02  0.40882567513E+02  0.55277704566E+02  0.00000000000E+00 0.  1.
<scales pt_clust_4="550.00000" pt_clust_5="550.00000" pt_clust_6="37.20538"></scales>
<mgrwt>
<rscale>  0 0.30000000E+03</rscale>
<asrwt>  1 0.37205380E+02</asrwt>
<pdfrwt beam="1">  1        1 0.90642242E+00 0.30000000E+03</pdfrwt>
<pdfrwt beam="2">0</pdfrwt>
<totfact> 0.85664547E-05</totfact>
</mgrwt>
<clustering>
<clus scale="   37.205">  1  6  2 -1</clus>
<clus scale="  462.740">  4  5 -1 -1</clus>
<clus scale="  300.000">  1  4  2 -1</clus>
</clustering>
</event>
<event>
 6    1  0.9462926E-012  0.3000000E+03  0.7818608E-02  0.1093470E+00
          1   -1    0    0  502    0  0.00000000000E+00  0.00000000000E+00  0.24347393966E+03  0.24347393966E+03  0.00000000000E+00 0.  1.
         13   -1    0    0    0    0 -0.00000000000E+00 -0.00000000000E+00 -0.27500000000E+03  0.27500000000E+03  0.00000000000E+00 0.  1.
    9000005    2    1    2  501    0 -0.35427466240E+01  0.37643400883E+02 -0.46400497922E+02  0.47784358676E+03  0.47408006762E+03 0.  0.
         13    1    3    3    0    0 -0.10114510165E+03  0.14264473746E+03 -0.20139462742E+03  0.26671641994E+03  0.00000000000E+00 0.  1.
          3    1    3    3  501    0  0.97602355031E+02 -0.10500133658E+03  0.15499412949E+03  0.21112716682E+03  0.00000000000E+00 0.  1.
         21    1    1    2  502  501  0.35427466240E+01 -0.37643400883E+02  0.14874437580E+02  0.40630352903E+02  0.00000000000E+00 0. -1.
<scales pt_clust_4="550.00000" pt_clust_5="550.00000" pt_clust_6="37.80974"></scales>
<mgrwt>
<rscale>  0 0.30000000E+03</rscale>
<asrwt>  1 0.37809743E+02</asrwt>
<pdfrwt beam="1">  1        1 0.88535978E+00 0.30000000E+03</pdfrwt>
<pdfrwt beam="2">0</pdfrwt>
<totfact> 0.16540039E-04</totfact>
</mgrwt>
<clustering>
<clus scale="   37.810">  1  6  2 -1</clus>
<clus scale="  474.080">  4  5 -1 -1</clus>
<clus scale="  300.000">  1  4  2 -1</clus>
</clustering>
</event>
<event>
 6    1  0.9462926E-012  0.3000000E+03  0.7818608E-02  0.1093470E+00
          1   -1    0    0  502    0  0.00000000000E+00  0.00000000000E+00  0.22797976582E+03  0.22797976582E+03  0.00000000000E+00 0.  1.
         13   -1    0    0    0    0 -0.00000000000E+00 -0.00000000000E+00 -0.27500000000E+03  0.27500000000E+03  0.00000000000E+00 0.  1.
    9000005    2    1    2  501    0 -0.25260311531E+02 -0.24465964654E+02 -0.67266751904E+02  0.46240159133E+03  0.45612909246E+03 0.  0.
         13    1    3    3    0    0  0.11801965099E+03 -0.18150080127E+03  0.46295844260E+02  0.22139214998E+03  0.00000000000E+00 0.  1.
          3    1    3    3  501    0 -0.14327996252E+03  0.15703483661E+03 -0.11356259616E+03  0.24100944134E+03  0.00000000000E+00 0.  1.
         21    1    1    2  502  501  0.25260311531E+02  0.24465964654E+02  0.20246517720E+02  0.40578174489E+02  0.00000000000E+00 0. -1.
<scales pt_clust_4="550.00000" pt_clust_5="550.00000" pt_clust_6="35.16627"></scales>
<mgrwt>
<rscale>  0 0.30000000E+03</rscale>
<asrwt>  1 0.35166273E+02</asrwt>
<pdfrwt beam="1">  1        1 0.82901733E+00 0.30000000E+03</pdfrwt>
<pdfrwt beam="2">0</pdfrwt>
<totfact> 0.60178781E-04</totfact>
</mgrwt>
<clustering>
<clus scale="   35.166">  1  6  2 -1</clus>
<clus scale="  456.129">  4  5 -1 -1</clus>
<clus scale="  300.000">  1  4  2 -1</clus>
</clustering>
</event>
<event>
 6    1  0.9462926E-012  0.3000000E+03  0.7818608E-02  0.1093470E+00
          1   -1    0    0  502    0  0.00000000000E+00  0.00000000000E+00  0.23898670548E+03  0.23898670548E+03  0.00000000000E+00 0.  1.
         13   -1    0    0    0    0 -0.00000000000E+00 -0.00000000000E+00 -0.27500000000E+03  0.27500000000E+03  0.00000000000E+00 0.  1.
    9000005    2    1    2  501    0 -0.30486878202E+02 -0.16917391056E+02 -0.70232712771E+02  0.46513369689E+03  0.45847690692E+03 0.  0.
         13    1    3    3    0    0  0.11600589167E+03 -0.18544836196E+03  0.29224018055E+02  0.22068644065E+03  0.00000000000E+00 0.  1.
          1    1    3    3  501    0 -0.14649276987E+03  0.16853097090E+03 -0.99456730826E+02  0.24444725624E+03  0.00000000000E+00 0.  1.
         21    1    1    2  502  501  0.30486878202E+02  0.16917391056E+02  0.34219418248E+02  0.48853008585E+02  0.00000000000E+00 0.  1.
<scales pt_clust_4="550.00000" pt_clust_5="550.00000" pt_clust_6="34.86614"></scales>
<mgrwt>
<rscale>  0 0.30000000E+03</rscale>
<asrwt>  1 0.34866142E+02</asrwt>
<pdfrwt beam="1">  1        1 0.86904257E+00 0.30000000E+03</pdfrwt>
<pdfrwt beam="2">0</pdfrwt>
<totfact> 0.25922728E-04</totfact>
</mgrwt>
<clustering>
<clus scale="   34.866">  1  6  2 -1</clus>
<clus scale="  458.477">  4  5 -1 -1</clus>
<clus scale="  300.000">  1  4  2 -1</clus>
</clustering>
</event>
<event>
 6    1  0.9462926E-012  0.3000000E+03  0.7818608E-02  0.1093470E+00
          1   -1    0    0  502    0  0.00000000000E+00  0.00000000000E+00  0.23190082447E+03  0.23190082447E+03  0.00000000000E+00 0.  1.
         13   -1    0    0    0    0 -0.00000000000E+00 -0.00000000000E+00 -0.27500000000E+03  0.27500000000E+03  0.00000000000E+00 0.  1.
    9000005    2    1    2  501    0 -0.21621327539E+02  0.23242990753E+02 -0.70966971401E+02  0.46465946476E+03  0.45810958158E+03 0.  0.
         13    1    3    3    0    0  0.14762709206E+03  0.16814403522E+03 -0.89711194618E+02  0.24106902192E+03  0.00000000000E+00 0.  1.
          1    1    3    3  501    0 -0.16924841960E+03 -0.14490104446E+03  0.18744223217E+02  0.22359044284E+03  0.00000000000E+00 0.  1.
         21    1    1    2  502  501  0.21621327539E+02 -0.23242990753E+02  0.27867795869E+02  0.42241359711E+02  0.00000000000E+00 0.  1.
<scales pt_clust_4="550.00000" pt_clust_5="550.00000" pt_clust_6="31.74458"></scales>
<mgrwt>
<rscale>  0 0.30000000E+03</rscale>
<asrwt>  1 0.31744581E+02</asrwt>
<pdfrwt beam="1">  1        1 0.84327573E+00 0.30000000E+03</pdfrwt>
<pdfrwt beam="2">0</pdfrwt>
<totfact> 0.47622432E-04</totfact>
</mgrwt>
<clustering>
<clus scale="   31.745">  1  6  2 -1</clus>
<clus scale="  458.110">  4  5 -1 -1</clus>
<clus scale="  300.000">  1  4  2 -1</clus>
</clustering>
</event>
<event>
 6    1  0.9462926E-012  0.3000000E+03  0.7818608E-02  0.1093470E+00
          1   -1    0    0  502    0  0.00000000000E+00  0.00000000000E+00  0.24363352465E+03  0.24363352465E+03  0.00000000000E+00 0.  1.
         13   -1    0    0    0    0 -0.00000000000E+00 -0.00000000000E+00 -0.27500000000E+03  0.27500000000E+03  0.00000000000E+00 0.  1.
    9000005    2    1    2  501    0  0.23209487361E+02 -0.26004878829E+02 -0.51573764528E+01  0.47502330920E+03  0.47371469443E+03 0.  0.
         13    1    3    3    0    0 -0.21952309516E+02 -0.24770110825E+03 -0.68857672642E+01  0.24876727420E+03  0.00000000000E+00 0.  1.
          1    1    3    3  501    0  0.45161796877E+02  0.22169622942E+03  0.17283908115E+01  0.22625603500E+03  0.00000000000E+00 0.  1.
         21    1    1    2  502  501 -0.23209487361E+02  0.26004878829E+02 -0.26209098901E+02  0.43610215451E+02  0.00000000000E+00 0.  1.
<scales pt_clust_4="550.00000" pt_clust_5="550.00000" pt_clust_6="34.85592"></scales>
<mgrwt>
<rscale>  0 0.30000000E+03</rscale>
<asrwt>  1 0.34855921E+02</asrwt>
<pdfrwt beam="1">  1        1 0.88594009E+00 0.30000000E+03</pdfrwt>
<pdfrwt beam="2">0</pdfrwt>
<totfact> 0.16485837E-04</totfact>
</mgrwt>
<clustering>
<clus scale="   34.856">  1  6  2 -1</clus>
<clus scale="  473.715">  4  5 -1 -1</clus>
<clus scale="  300.000">  1  4  2 -1</clus>
</clustering>
</event>
<event>
 6    1  0.9462926E-012  0.3000000E+03  0.7818608E-02  0.1093470E+00
          1   -1    0    0  502    0  0.00000000000E+00  0.00000000000E+00  0.25799628494E+03  0.25799628494E+03  0.00000000000E+00 0.  1.
         13   -1    0    0    0    0 -0.00000000000E+00 -0.00000000000E+00 -0.27500000000E+03  0.27500000000E+03  0.00000000000E+00 0.  1.
    9000005    2    1    2  501    0 -0.42205858761E+02  0.11978433165E+02 -0.55951381808E+02  0.47432995627E+03  0.46897071647E+03 0.  0.
         13    1    3    3    0    0  0.15755559794E+03 -0.11457400105E+03  0.69255203651E+02  0.20675408435E+03  0.00000000000E+00 0.  1.
          3    1    3    3  501    0 -0.19976145671E+03  0.12655243422E+03 -0.12520658546E+03  0.26757587192E+03  0.00000000000E+00 0.  1.
         21    1    1    2  502  501  0.42205858761E+02 -0.11978433165E+02  0.38947666746E+02  0.58666328672E+02  0.00000000000E+00 0.  1.
<scales pt_clust_4="550.00000" pt_clust_5="550.00000" pt_clust_6="43.87274"></scales>
<mgrwt>
<rscale>  0 0.30000000E+03</rscale>
<asrwt>  1 0.43872741E+02</asrwt>
<pdfrwt beam="1">  1        1 0.93816831E+00 0.30000000E+03</pdfrwt>
<pdfrwt beam="2">0</pdfrwt>
<totfact> 0.19661609E-05</totfact>
</mgrwt>
<clustering>
<clus scale="   43.873">  1  6  2 -1</clus>
<clus scale="  468.971">  4  5 -1 -1</clus>
<clus scale="  300.000">  1  4  2 -1</clus>
</clustering>
</event>
<event>
 6    1  0.9462926E-012  0.3000000E+03  0.7818608E-02  0.1093470E+00
          1   -1    0    0  502    0  0.00000000000E+00  0.00000000000E+00  0.24269321455E+03  0.24269321455E+03  0.00000000000E+00 0.  1.
         13   -1    0    0    0    0 -0.00000000000E+00 -0.00000000000E+00 -0.27500000000E+03  0.27500000000E+03  0.00000000000E+00 0.  1.
    9000005    2    1    2  501    0 -0.73216707683E+01 -0.31226174230E+02 -0.71872313935E+02  0.46676079006E+03  0.46007752043E+03 0.  0.
         13    1    3    3    0    0 -0.18882180872E+03 -0.18181987682E+02  0.10174137932E+03  0.21525698221E+03  0.00000000000E+00 0.  1.
          3    1    3    3  501    0  0.18150013795E+03 -0.13044186548E+02 -0.17361369326E+03  0.25150380785E+03  0.00000000000E+00 0.  1.
         21    1    1    2  502  501  0.73216707683E+01  0.31226174230E+02  0.39565528487E+02  0.50932424489E+02  0.00000000000E+00 0. -1.
<scales pt_clust_4="550.00000" pt_clust_5="550.00000" pt_clust_6="32.07305"></scales>
<mgrwt>
<rscale>  0 0.30000000E+03</rscale>
<asrwt>  1 0.32073054E+02</asrwt>
<pdfrwt beam="1">  1        1 0.88252078E+00 0.30000000E+03</pdfrwt>
<pdfrwt beam="2">0</pdfrwt>
<totfact> 0.18631481E-04</totfact>
</mgrwt>
<clustering>
<clus scale="   32.073">  1  6  2 -1</clus>
<clus scale="  460.078">  4  5 -1 -1</clus>
<clus scale="  300.000">  1  4  2 -1</clus>
</clustering>
</event>
<event>
 6    1  0.9462926E-012  0.3000000E+03  0.7818608E-02  0.1093470E+00
          1   -1    0    0  502    0  0.00000000000E+00  0.00000000000E+00  0.23784186724E+03  0.23784186724E+03  0.00000000000E+00 0.  1.
         13   -1    0    0    0    0 -0.00000000000E+00 -0.00000000000E+00 -0.27500000000E+03  0.27500000000E+03  0.00000000000E+00 0.  1.
    9000005    2    1    2  501    0  0.31821279366E+02 -0.11228769202E+02 -0.72153753846E+02  0.46422733676E+03  0.45734251598E+03 0.  0.
         13    1    3    3    0    0 -0.11184420586E+03  0.15349840862E+01 -0.22672497603E+03  0.25281554010E+03  0.00000000000E+00 0.  1.
          3    1    3    3  501    0  0.14366548523E+03 -0.12763753288E+02  0.15457122218E+03  0.21141179667E+03  0.00000000000E+00 0.  1.
         21    1    1    2  502  501 -0.31821279366E+02  0.11228769202E+02  0.34995621087E+02  0.48614530477E+02  0.00000000000E+00 0. -1.
<scales pt_clust_4="550.00000" pt_clust_5="550.00000" pt_clust_6="33.74432"></scales>
<mgrwt>
<rscale>  0 0.30000000E+03</rscale>
<asrwt>  1 0.33744319E+02</asrwt>
<pdfrwt beam="1">  1        1 0.86487952E+00 0.30000000E+03</pdfrwt>
<pdfrwt beam="2">0</pdfrwt>
<totfact> 0.28852753E-04</totfact>
</mgrwt>
<clustering>
<clus scale="   33.744">  1  6  2 -1</clus>
<clus scale="  457.343">  4  5 -1 -1</clus>
<clus scale="  300.000">  1  4  2 -1</clus>
</clustering>
</event>
<event>
 6    1  0.9462926E-012  0.3000000E+03  0.7818608E-02  0.1093470E+00
          1   -1    0    0  502    0  0.00000000000E+00  0.00000000000E+00  0.24270579280E+03  0.24270579280E+03  0.00000000000E+00 0.  1.
         13   -1    0    0    0    0 -0.00000000000E+00 -0.00000000000E+00 -0.27500000000E+03  0.27500000000E+03  0.00000000000E+00 0.  1.
    9000005    2    1    2  501    0  0.31546792421E+02  0.22546828031E+02 -0.30040568723E+02  0.47886459749E+03  0.47634578553E+03 0.  0.
         13    1    3    3    0    0  0.11557233692E+03 -0.66376416236E+02  0.18704955206E+03  0.22967439696E+03  0.00000000000E+00 0.  1.
          1    1    3    3  501    0 -0.84025544502E+02  0.88923244267E+02 -0.21709012078E+03  0.24919020053E+03  0.00000000000E+00 0.  1.
         21    1    1    2  502  501 -0.31546792421E+02 -0.22546828031E+02 -0.22536384821E+01  0.38841195305E+02  0.00000000000E+00 0.  1.
<scales pt_clust_4="550.00000" pt_clust_5="550.00000" pt_clust_6="38.77576"></scales>
<mgrwt>
<rscale>  0 0.30000000E+03</rscale>
<asrwt>  1 0.38775760E+02</asrwt>
<pdfrwt beam="1">  1        1 0.88256652E+00 0.30000000E+03</pdfrwt>
<pdfrwt beam="2">0</pdfrwt>
<totfact> 0.17957615E-04</totfact>
</mgrwt>
<clustering>
<clus scale="   38.776">  1  6  2 -1</clus>
<clus scale="  476.346">  4  5 -1 -1</clus>
<clus scale="  300.000">  1  4  2 -1</clus>
</clustering>
</event>
<event>
 6    1  0.9462926E-012  0.3000000E+03  0.7818608E-02  0.1093470E+00
          1   -1    0    0  502    0  0.00000000000E+00  0.00000000000E+00  0.23716027018E+03  0.23716027018E+03  0.00000000000E+00 0.  1.
         13   -1    0    0    0    0 -0.00000000000E+00 -0.00000000000E+00 -0.27500000000E+03  0.27500000000E+03  0.00000000000E+00 0.  1.
    9000005    2    1    2  501    0  0.24015615149E+02  0.19883120558E+02 -0.72897321049E+02  0.46524414335E+03  0.45843866029E+03 0.  0.
         13    1    3    3    0    0 -0.87273324025E+02  0.21308842080E+03 -0.75296001312E+02  0.24226596125E+03  0.00000000000E+00 0.  1.
          3    1    3    3  501    0  0.11128893917E+03 -0.19320530024E+03  0.23986802632E+01  0.22297818210E+03  0.00000000000E+00 0.  1.
         21    1    1    2  502  501 -0.24015615149E+02 -0.19883120558E+02  0.35057591225E+02  0.46916126829E+02  0.00000000000E+00 0.  1.
<scales pt_clust_4="550.00000" pt_clust_5="550.00000" pt_clust_6="31.17833"></scales>
<mgrwt>
<rscale>  0 0.30000000E+03</rscale>
<asrwt>  1 0.31178330E+02</asrwt>
<pdfrwt beam="1">  1        1 0.86240098E+00 0.30000000E+03</pdfrwt>
<pdfrwt beam="2">0</pdfrwt>
<totfact> 0.31152681E-04</totfact>
</mgrwt>
<clustering>
<clus scale="   31.178">  1  6  2 -1</clus>
<clus scale="  458.439">  4  5 -1 -1</clus>
<clus scale="  300.000">  1  4  2 -1</clus>
</clustering>
</event>
<event>
 6    1  0.9462926E-012  0.3000000E+03  0.7818608E-02  0.1093470E+00
          1   -1    0    0  502    0  0.00000000000E+00  0.00000000000E+00  0.24451171074E+03  0.24451171074E+03  0.00000000000E+00 0.  1.
         13   -1    0    0    0    0 -0.00000000000E+00 -0.00000000000E+00 -0.27500000000E+03  0.27500000000E+03  0.00000000000E+00 0.  1.
    9000005    2    1    2  501    0  0.34186093583E+02 -0.21572115979E+02 -0.42800086928E+02  0.47725504802E+03  0.47361005927E+03 0.  0.
         13    1    3    3    0    0  0.23680308135E+03  0.61862942988E+02 -0.74529450454E+02  0.25584636412E+03  0.00000000000E+00 0.  1.
          1    1    3    3  501    0 -0.20261698776E+03 -0.83435058967E+02  0.31729363527E+02  0.22140868390E+03  0.00000000000E+00 0.  1.
         21    1    1    2  502  501 -0.34186093583E+02  0.21572115979E+02  0.12311797668E+02  0.42256662719E+02  0.00000000000E+00 0. -1.
<scales pt_clust_4="550.00000" pt_clust_5="550.00000" pt_clust_6="40.42332"></scales>
<mgrwt>
<rscale>  0 0.30000000E+03</rscale>
<asrwt>  1 0.40423325E+02</asrwt>
<pdfrwt beam="1">  1        1 0.88913349E+00 0.30000000E+03</pdfrwt>
<pdfrwt beam="2">0</pdfrwt>
<totfact> 0.14498619E-04</totfact>
</mgrwt>
<clustering>
<clus scale="   40.423">  1  6  2 -1</clus>
<clus scale="  473.610">  4  5 -1 -1</clus>
<clus scale="  300.000">  1  4  2 -1</clus>
</clustering>
</event>
<event>
 6    1  0.9462926E-012  0.3000000E+03  0.7818608E-02  0.1093470E+00
          1   -1    0    0  502    0  0.00000000000E+00  0.00000000000E+00  0.22178975364E+03  0.22178975364E+03  0.00000000000E+00 0.  1.
         13   -1    0    0    0    0 -0.00000000000E+00 -0.00000000000E+00 -0.27500000000E+03  0.27500000000E+03  0.00000000000E+00 0.  1.
    9000005    2    1    2  501    0 -0.29354988888E+02 -0.84204469243E+01 -0.34739924131E+02  0.46109980965E+03  0.45877396704E+03 0.  0.
         13    1    3    3    0    0  0.14749040935E+03  0.35945284447E+02  0.14149384978E+03  0.20752347782E+03  0.00000000000E+00 0.  1.
          1    1    3    3  501    0 -0.17684539823E+03 -0.44365731372E+02 -0.17623377391E+03  0.25357633183E+03  0.00000000000E+00 0.  1.
         21    1    1    2  502  501  0.29354988888E+02  0.84204469243E+01 -0.18470322228E+02  0.35689943993E+02  0.00000000000E+00 0. -1.
<scales pt_clust_4="550.00000" pt_clust_5="550.00000" pt_clust_6="30.53883"></scales>
<mgrwt>
<rscale>  0 0.30000000E+03</rscale>
<asrwt>  1 0.30538832E+02</asrwt>
<pdfrwt beam="1">  1        1 0.80650820E+00 0.30000000E+03</pdfrwt>
<pdfrwt beam="2">0</pdfrwt>
<totfact> 0.95231541E-04</totfact>
</mgrwt>
<clustering>
<clus scale="   30.539">  1  6  2 -1</clus>
<clus scale="  458.774">  4  5 -1 -1</clus>
<clus scale="  300.000">  1  4  2 -1</clus>
</clustering>
</event>
<event>
 6    1  0.9462926E-012  0.3000000E+03  0.7818608E-02  0.1093470E+00
          1   -1    0    0  502    0  0.00000000000E+00  0.00000000000E+00  0.24046551753E+03  0.24046551753E+03  0.00000000000E+00 0.  1.
         13   -1    0    0    0    0 -0.00000000000E+00 -0.00000000000E+00 -0.27500000000E+03  0.27500000000E+03  0.00000000000E+00 0.  1.
    9000005    2    1    2  501    0 -0.41484782884E+02  0.25010373967E+02 -0.35559889609E+02  0.46701391821E+03  0.46313171781E+03 0.  0.
         13    1    3    3    0    0 -0.16293426874E+03  0.18008203249E+03 -0.95759608646E+02  0.26104983624E+03  0.00000000000E+00 0.  1.
          3    1    3    3  501    0  0.12144948585E+03 -0.15507165852E+03  0.60199719038E+02  0.20596408197E+03  0.00000000000E+00 0.  1.
         21    1    1    2  502  501  0.41484782884E+02 -0.25010373967E+02  0.10254071408E+01  0.48451599320E+02  0.00000000000E+00 0.  1.
<scales pt_clust_4="550.00000" pt_clust_5="550.00000" pt_clust_6="48.44075"></scales>
<mgrwt>
<rscale>  0 0.30000000E+03</rscale>
<asrwt>  1 0.48440747E+02</asrwt>
<pdfrwt beam="1">  1        1 0.87442006E+00 0.30000000E+03</pdfrwt>
<pdfrwt beam="2">0</pdfrwt>
<totfact> 0.21503877E-04</totfact>
</mgrwt>
<clustering>
<clus scale="   48.441">  1  6  2 -1</clus>
<clus scale="  463.132">  4  5 -1 -1</clus>
<clus scale="  300.000">  1  4  2 -1</clus>
</clustering>
</event>
<event>
 6    1  0.9462926E-012  0.3000000E+03  0.7818608E-02  0.1093470E+00
          1   -1    0    0  502    0  0.00000000000E+00  0.00000000000E+00  0.23022088263E+03  0.23022088263E+03  0.00000000000E+00 0.  1.
         13   -1    0    0    0    0 -0.00000000000E+00 -0.00000000000E+00 -0.27500000000E+03  0.27500000000E+03  0.00000000000E+00 0.  1.
    9000005    2    1    2  501    0 -0.26573817207E+02 -0.25240515373E+02 -0.40993094998E+02  0.46837545764E+03  0.46513641451E+03 0.  0.
         13    1    3    3    0    0 -0.69738431180E+02 -0.10832865022E+03  0.18403246378E+03  0.22464748600E+03  0.00000000000E+00 0.  1.
          3    1    3    3  501    0  0.43164613973E+02  0.83088134849E+02 -0.22502555878E+03  0.24372797163E+03  0.00000000000E+00 0.  1.
         21    1    1    2  502  501  0.26573817207E+02  0.25240515373E+02 -0.37860223760E+01  0.36845424990E+02  0.00000000000E+00 0. -1.
<scales pt_clust_4="550.00000" pt_clust_5="550.00000" pt_clust_6="36.65041"></scales>
<mgrwt>
<rscale>  0 0.30000000E+03</rscale>
<asrwt>  1 0.36650412E+02</asrwt>
<pdfrwt beam="1">  1        1 0.83716685E+00 0.30000000E+03</pdfrwt>
<pdfrwt beam="2">0</pdfrwt>
<totfact> 0.51727157E-04</totfact>
</mgrwt>
<clustering>
<clus scale="   36.650">  1  6  2 -1</clus>
<clus scale="  465.136">  4  5 -1 -1</clus>
<clus scale="  300.000">  1  4  2 -1</clus>
</clustering>
</event>
<event>
 6    1  0.9462926E-012  0.3000000E+03  0.7818608E-02  0.1093470E+00
          1   -1    0    0  502    0  0.00000000000E+00  0.00000000000E+00  0.26400708221E+03  0.26400708221E+03  0.00000000000E+00 0.  1.
         13   -1    0    0    0    0 -0.00000000000E+00 -0.00000000000E+00 -0.27500000000E+03  0.27500000000E+03  0.00000000000E+00 0.  1.
    9000005    2    1    2  501    0  0.39015875027E+02  0.28066153887E+02 -0.58871972265E+02  0.47116645017E+03  0.46499673886E+03 0.  0.
         13    1    3    3    0    0  0.96300620365E+02  0.21374864860E+03 -0.12527953326E+03  0.26581432564E+03  0.00000000000E+00 0.  1.
          3    1    3    3  501    0 -0.57284745338E+02 -0.18568249471E+03  0.66407560994E+02  0.20535212453E+03  0.00000000000E+00 0.  1.
         21    1    1    2  502  501 -0.39015875027E+02 -0.28066153887E+02  0.47879054471E+02  0.67840632037E+02  0.00000000000E+00 0. -1.
<scales pt_clust_4="550.00000" pt_clust_5="550.00000" pt_clust_6="48.06191"></scales>
<mgrwt>
<rscale>  0 0.30000000E+03</rscale>
<asrwt>  1 0.48061913E+02</asrwt>
<pdfrwt beam="1">  1        1 0.96002575E+00 0.30000000E+03</pdfrwt>
<pdfrwt beam="2">0</pdfrwt>
<totfact> 0.71507614E-06</totfact>
</mgrwt>
<clustering>
<clus scale="   48.062">  1  6  2 -1</clus>
<clus scale="  464.997">  4  5 -1 -1</clus>
<clus scale="  300.000">  1  4  2 -1</clus>
</clustering>
</event>
<event>
 6    1  0.9462926E-012  0.3000000E+03  0.7818608E-02  0.1093470E+00
          1   -1    0    0  502    0  0.00000000000E+00  0.00000000000E+00  0.23956108445E+03  0.23956108445E+03  0.00000000000E+00 0.  1.
         13   -1    0    0    0    0 -0.00000000000E+00 -0.00000000000E+00 -0.27500000000E+03  0.27500000000E+03  0.00000000000E+00 0.  1.
    9000005    2    1    2  501    0 -0.22719967627E+02  0.20322508793E+02 -0.76074158187E+02  0.46376320815E+03  0.45646449412E+03 0.  0.
         13    1    3    3    0    0 -0.14299762563E+03  0.27841779045E+02  0.14904437185E+03  0.20841715471E+03  0.00000000000E+00 0.  1.
          3    1    3    3  501    0  0.12027765800E+03 -0.75192702516E+01 -0.22511853004E+03  0.25534605344E+03  0.00000000000E+00 0.  1.
         21    1    1    2  502  501  0.22719967627E+02 -0.20322508793E+02  0.40635242639E+02  0.50797876303E+02  0.00000000000E+00 0.  1.
<scales pt_clust_4="550.00000" pt_clust_5="550.00000" pt_clust_6="30.48280"></scales>
<mgrwt>
<rscale>  0 0.30000000E+03</rscale>
<asrwt>  1 0.30482803E+02</asrwt>
<pdfrwt beam="1">  1        1 0.87113122E+00 0.30000000E+03</pdfrwt>
<pdfrwt beam="2">0</pdfrwt>
<totfact> 0.25314621E-04</totfact>
</mgrwt>
<clustering>
<clus scale="   30.483">  1  6  2 -1</clus>
<clus scale="  456.464">  4  5 -1 -1</clus>
<clus scale="  300.000">  1  4  2 -1</clus>
</clustering>
</event>
<event>
 6    1  0.9462926E-012  0.3000000E+03  0.7818608E-02  0.1093470E+00
          1   -1    0    0  502    0  0.00000000000E+00  0.00000000000E+00  0.22373291552E+03  0.22373291552E+03  0.00000000000E+00 0.  1.
         13   -1    0    0    0    0 -0.00000000000E+00 -0.00000000000E+00 -0.27500000000E+03  0.27500000000E+03  0.00000000000E+00 0.  1.
    9000005    2    1    2  501    0 -0.14447936067E+02 -0.27199833753E+02 -0.63023655836E+02  0.46576640550E+03  0.46045389507E+03 0.  0.
         13    1    3    3    0    0  0.17477401578E+03 -0.14627231140E+03 -0.80033453976E+02  0.24155102863E+03  0.00000000000E+00 0.  1.
          1    1    3    3  501    0 -0.18922195185E+03  0.11907247764E+03  0.17009798140E+02  0.22421537688E+03  0.00000000000E+00 0.  1.
         21    1    1    2  502  501  0.14447936067E+02  0.27199833753E+02  0.11756571355E+02  0.32966510019E+02  0.00000000000E+00 0.  1.
<scales pt_clust_4="550.00000" pt_clust_5="550.00000" pt_clust_6="30.79893"></scales>
<mgrwt>
<rscale>  0 0.30000000E+03</rscale>
<asrwt>  1 0.30798926E+02</asrwt>
<pdfrwt beam="1">  1        1 0.81357424E+00 0.30000000E+03</pdfrwt>
<pdfrwt beam="2">0</pdfrwt>
<totfact> 0.83734464E-04</totfact>
</mgrwt>
<clustering>
<clus scale="   30.799">  1  6  2 -1</clus>
<clus scale="  460.454">  4  5 -1 -1</clus>
<clus scale="  300.000">  1  4  2 -1</clus>
</clustering>
</event>
<event>
 6    1  0.9462926E-012  0.3000000E+03  0.7818608E-02  0.1093470E+00
          1   -1    0    0  502    0  0.00000000000E+00  0.00000000000E+00  0.25039085808E+03  0.25039085808E+03  0.00000000000E+00 0.  1.
         13   -1    0    0    0    0 -0.00000000000E+00 -0.00000000000E+00 -0.27500000000E+03  0.27500000000E+03  0.00000000000E+00 0.  1.
    9000005    2    1    2  501    0 -0.40825057234E+02 -0.79540791192E+01 -0.62576307719E+02  0.46907515555E+03  0.46301809316E+03 0.  0.
         13    1    3    3    0    0 -0.10515465179E+03  0.96528782999E+02 -0.22442549485E+03  0.26597388872E+03  0.00000000000E+00 0.  1.
          1    1    3    3  501    0  0.64329594559E+02 -0.10448286212E+03  0.16184918713E+03  0.20310126683E+03  0.00000000000E+00 0.  1.
         21    1    1    2  502  501  0.40825057234E+02  0.79540791192E+01  0.37967165795E+02  0.56315702529E+02  0.00000000000E+00 0.  1.
<scales pt_clust_4="550.00000" pt_clust_5="550.00000" pt_clust_6="41.59270"></scales>
<mgrwt>
<rscale>  0 0.30000000E+03</rscale>
<asrwt>  1 0.41592700E+02</asrwt>
<pdfrwt beam="1">  1        1 0.91051221E+00 0.30000000E+03</pdfrwt>
<pdfrwt beam="2">0</pdfrwt>
<totfact> 0.67631464E-05</totfact>
</mgrwt>
<clustering>
<clus scale="   41.593">  1  6  2 -1</clus>
<clus scale="  463.018">  4  5 -1 -1</clus>
<clus scale="  300.000">  1  4  2 -1</clus>
</clustering>
</event>
<event>
 6    1  0.9462926E-012  0.3000000E+03  0.7818608E-02  0.1093470E+00
          1   -1    0    0  502    0  0.00000000000E+00  0.00000000000E+00  0.23588975676E+03  0.23588975676E+03  0.00000000000E+00 0.  1.
         13   -1    0    0    0    0 -0.00000000000E+00 -0.00000000000E+00 -0.27500000000E+03  0.27500000000E+03  0.00000000000E+00 0.  1.
    9000005    2    1    2  501    0  0.24102286153E+02  0.24882263775E+02 -0.55091907164E+02  0.47273925440E+03  0.46823844051E+03 0.  0.
         13    1    3    3    0    0 -0.19539021525E+03  0.12107100009E+03 -0.28821652809E+02  0.23165968780E+03  0.00000000000E+00 0.  1.
          3    1    3    3  501    0  0.21949250141E+03 -0.96188736320E+02 -0.26270254355E+02  0.24107956660E+03  0.00000000000E+00 0.  1.
         21    1    1    2  502  501 -0.24102286153E+02 -0.24882263775E+02  0.15981663924E+02  0.38150502357E+02  0.00000000000E+00 0.  1.
<scales pt_clust_4="550.00000" pt_clust_5="550.00000" pt_clust_6="34.64170"></scales>
<mgrwt>
<rscale>  0 0.30000000E+03</rscale>
<asrwt>  1 0.34641698E+02</asrwt>
<pdfrwt beam="1">  1        1 0.85778093E+00 0.30000000E+03</pdfrwt>
<pdfrwt beam="2">0</pdfrwt>
<totfact> 0.34202621E-04</totfact>
</mgrwt>
<clustering>
<clus scale="   34.642">  1  6  2 -1</clus>
<clus scale="  468.238">  4  5 -1 -1</clus>
<clus scale="  300.000">  1  4  2 -1</clus>
</clustering>
</event>
<event>
 6    1  0.9462926E-012  0.3000000E+03  0.7818608E-02  0.1093470E+00
          1   -1    0    0  502    0  0.00000000000E+00  0.00000000000E+00  0.26367963780E+03  0.26367963780E+03  0.00000000000E+00 0.  1.
         13   -1    0    0    0    0 -0.00000000000E+00 -0.00000000000E+00 -0.27500000000E+03  0.27500000000E+03  0.00000000000E+00 0.  1.
    9000005    2    1    2  501    0 -0.33041043703E+02  0.54366529052E+01 -0.10209952181E+02  0.50517589511E+03  0.50396148078E+03 0.  0.
         13    1    3    3    0    0 -0.10840106662E+03  0.17869332852E+03 -0.16069132241E+03  0.26363572975E+03  0.00000000000E+00 0.  1.
          3    1    3    3  501    0  0.75360022914E+02 -0.17325667561E+03  0.15048137023E+03  0.24154016536E+03  0.00000000000E+00 0.  1.
         21    1    1    2  502  501  0.33041043703E+02 -0.54366529052E+01 -0.11104100211E+01  0.33503742689E+02  0.00000000000E+00 0. -1.
<scales pt_clust_4="550.00000" pt_clust_5="550.00000" pt_clust_6="33.48535"></scales>
<mgrwt>
<rscale>  0 0.30000000E+03</rscale>
<asrwt>  1 0.33485353E+02</asrwt>
<pdfrwt beam="1">  1        1 0.95883505E+00 0.30000000E+03</pdfrwt>
<pdfrwt beam="2">0</pdfrwt>
<totfact> 0.81031597E-06</totfact>
</mgrwt>
<clustering>
<clus scale="   33.485">  1  6  2 -1</clus>
<clus scale="  503.961">  4  5 -1 -1</clus>
<clus scale="  300.000">  1  4  2 -1</clus>
</clustering>
</event>
<event>
 6    1  0.9462926E-012  0.3000000E+03  0.7818608E-02  0.1093470E+00
          1   -1    0    0  502    0  0.00000000000E+00  0.00000000000E+00  0.24008423486E+03  0.24008423486E+03  0.00000000000E+00 0.  1.
         13   -1    0    0    0    0 -0.00000000000E+00 -0.00000000000E+00 -0.27500000000E+03  0.27500000000E+03  0.00000000000E+00 0.  1.
    9000005    2    1    2  501    0 -0.33612557276E+02 -0.16837353223E+00 -0.49547612725E+02  0.47842467513E+03  0.47466342969E+03 0.  0.
         13    1    3    3    0    0 -0.13967751459E+03  0.12277130316E+03  0.13709761702E+03  0.23103756741E+03  0.00000000000E+00 0.  1.
          3    1    3    3  501    0  0.10606495731E+03 -0.12293967670E+03 -0.18664522975E+03  0.24738710772E+03  0.00000000000E+00 0.  1.
         21    1    1    2  502  501  0.33612557276E+02  0.16837353223E+00  0.14631847589E+02  0.36659559737E+02  0.00000000000E+00 0.  1.
<scales pt_clust_4="550.00000" pt_clust_5="550.00000" pt_clust_6="33.61298"></scales>
<mgrwt>
<rscale>  0 0.30000000E+03</rscale>
<asrwt>  1 0.33612979E+02</asrwt>
<pdfrwt beam="1">  1        1 0.87303358E+00 0.30000000E+03</pdfrwt>
<pdfrwt beam="2">0</pdfrwt>
<totfact> 0.23758928E-04</totfact>
</mgrwt>
<clustering>
<clus scale="   33.613">  1  6  2 -1</clus>
<clus scale="  474.663">  4  5 -1 -1</clus>
<clus scale="  300.000">  1  4  2 -1</clus>
</clustering>
</event>
<event>
 6    1  0.9462926E-012  0.3000000E+03  0.7818608E-02  0.1093470E+00
          1   -1    0    0  502    0  0.00000000000E+00  0.00000000000E+00  0.23457078861E+03  0.23457078861E+03  0.00000000000E+00 0.  1.
         13   -1    0    0    0    0 -0.00000000000E+00 -0.00000000000E+00 -0.27500000000E+03  0.27500000000E+03  0.00000000000E+00 0.  1.
    9000005    2    1    2  501    0  0.11292765098E+02  0.37993457576E+02 -0.46184636336E+02  0.46951889380E+03  0.46555766736E+03 0.  0.
         13    1    3    3    0    0 -0.20336941103E+03  0.81695899550E+01  0.80051918428E+02  0.21871024024E+03  0.00000000000E+00 0.  1.
          1    1    3    3  501    0  0.21466217613E+03  0.29823867621E+02 -0.12623655476E+03  0.25080865355E+03  0.00000000000E+00 0.  1.
         21    1    1    2  502  501 -0.11292765098E+02 -0.37993457576E+02  0.57554249486E+01  0.40051894817E+02  0.00000000000E+00 0. -1.
<scales pt_clust_4="550.00000" pt_clust_5="550.00000" pt_clust_6="39.63621"></scales>
<mgrwt>
<rscale>  0 0.30000000E+03</rscale>
<asrwt>  1 0.39636213E+02</asrwt>
<pdfrwt beam="1">  1        1 0.85298469E+00 0.30000000E+03</pdfrwt>
<pdfrwt beam="2">0</pdfrwt>
<totfact> 0.37252849E-04</totfact>
</mgrwt>
<clustering>
<clus scale="   39.636">  1  6  2 -1</clus>
<clus scale="  465.558">  4  5 -1 -1</clus>
<clus scale="  300.000">  1  4  2 -1</clus>
</clustering>
</event>
<event>
 6    1  0.9462926E-012  0.3000000E+03  0.7818608E-02  0.1093470E+00
          1   -1    0    0  502    0  0.00000000000E+00  0.00000000000E+00  0.23722116710E+03  0.23722116710E+03  0.00000000000E+00 0.  1.
         13   -1    0    0    0    0 -0.00000000000E+00 -0.00000000000E+00 -0.27500000000E+03  0.27500000000E+03  0.00000000000E+00 0.  1.
    9000005    2    1    2  501    0  0.25005120810E+02  0.30284600819E+02 -0.39028288921E+02  0.47292772930E+03  0.46967543761E+03 0.  0.
         13    1    3    3    0    0  0.22827859994E+01  0.24097207366E+03 -0.86011668570E+02  0.25587254352E+03  0.00000000000E+00 0.  1.
          3    1    3    3  501    0  0.22722334811E+02 -0.21068747284E+03  0.46983379649E+02  0.21705518578E+03  0.00000000000E+00 0.  1.
         21    1    1    2  502  501 -0.25005120810E+02 -0.30284600819E+02  0.12494560217E+01  0.39293437796E+02  0.00000000000E+00 0.  1.
<scales pt_clust_4="550.00000" pt_clust_5="550.00000" pt_clust_6="39.27357"></scales>
<mgrwt>
<rscale>  0 0.30000000E+03</rscale>
<asrwt>  1 0.39273568E+02</asrwt>
<pdfrwt beam="1">  1        1 0.86262243E+00 0.30000000E+03</pdfrwt>
<pdfrwt beam="2">0</pdfrwt>
<totfact> 0.29671978E-04</totfact>
</mgrwt>
<clustering>
<clus scale="   39.274">  1  6  2 -1</clus>
<clus scale="  469.675">  4  5 -1 -1</clus>
<clus scale="  300.000">  1  4  2 -1</clus>
</clustering>
</event>
<event>
 6    1  0.9462926E-012  0.3000000E+03  0.7818608E-02  0.1093470E+00
          1   -1    0    0  502    0  0.00000000000E+00  0.00000000000E+00  0.22994770077E+03  0.22994770077E+03  0.00000000000E+00 0.  1.
         13   -1    0    0    0    0 -0.00000000000E+00 -0.00000000000E+00 -0.27500000000E+03  0.27500000000E+03  0.00000000000E+00 0.  1.
    9000005    2    1    2  501    0  0.18754912832E+02 -0.37978046719E+02 -0.54832846350E+02  0.46147658519E+03  0.45624545899E+03 0.  0.
         13    1    3    3    0    0  0.97034470517E+02 -0.23062055027E+03 -0.33812670480E+02  0.25247737198E+03  0.00000000000E+00 0.  1.
          3    1    3    3  501    0 -0.78279557685E+02  0.19264250356E+03 -0.21020175870E+02  0.20899921321E+03  0.00000000000E+00 0.  1.
         21    1    1    2  502  501 -0.18754912832E+02  0.37978046719E+02  0.97805471181E+01  0.43471115580E+02  0.00000000000E+00 0.  1.
<scales pt_clust_4="550.00000" pt_clust_5="550.00000" pt_clust_6="42.35657"></scales>
<mgrwt>
<rscale>  0 0.30000000E+03</rscale>
<asrwt>  1 0.42356567E+02</asrwt>
<pdfrwt beam="1">  1        1 0.83617346E+00 0.30000000E+03</pdfrwt>
<pdfrwt beam="2">0</pdfrwt>
<totfact> 0.51219049E-04</totfact>
</mgrwt>
<clustering>
<clus scale="   42.357">  1  6  2 -1</clus>
<clus scale="  456.245">  4  5 -1 -1</clus>
<clus scale="  300.000">  1  4  2 -1</clus>
</clustering>
</event>
<event>
 6    1  0.9462926E-012  0.3000000E+03  0.7818608E-02  0.1093470E+00
          1   -1    0    0  502    0  0.00000000000E+00  0.00000000000E+00  0.22050086636E+03  0.22050086636E+03  0.00000000000E+00 0.  1.
         13   -1    0    0    0    0 -0.00000000000E+00 -0.00000000000E+00 -0.27500000000E+03  0.27500000000E+03  0.00000000000E+00 0.  1.
    9000005    2    1    2  501    0  0.27812296865E+02 -0.11318671321E+02 -0.65186778452E+02  0.46362827737E+03  0.45803954776E+03 0.  0.
         13    1    3    3    0    0 -0.78151940996E+02  0.11211461763E+03 -0.20684593924E+03  0.24791663104E+03  0.00000000000E+00 0.  1.
          1    1    3    3  501    0  0.10596423786E+03 -0.12343328895E+03  0.14165916079E+03  0.21571164633E+03  0.00000000000E+00 0.  1.
         21    1    1    2  502  501 -0.27812296865E+02  0.11318671321E+02  0.10687644810E+02  0.31872588990E+02  0.00000000000E+00 0.  1.
<scales pt_clust_4="550.00000" pt_clust_5="550.00000" pt_clust_6="30.02726"></scales>
<mgrwt>
<rscale>  0 0.30000000E+03</rscale>
<asrwt>  1 0.30027257E+02</asrwt>
<pdfrwt beam="1">  1        1 0.80182133E+00 0.30000000E+03</pdfrwt>
<pdfrwt beam="2">0</pdfrwt>
<totfact> 0.10356609E-03</totfact>
</mgrwt>
<clustering>
<clus scale="   30.027">  1  6  2 -1</clus>
<clus scale="  458.040">  4  5 -1 -1</clus>
<clus scale="  300.000">  1  4  2 -1</clus>
</clustering>
</event>
<event>
 6    1  0.9462926E-012  0.3000000E+03  0.7818608E-02  0.1093470E+00
          1   -1    0    0  502    0  0.00000000000E+00  0.00000000000E+00  0.24019671139E+03  0.24019671139E+03  0.00000000000E+00 0.  1.
         13   -1    0    0    0    0 -0.00000000000E+00 -0.00000000000E+00 -0.27500000000E+03  0.27500000000E+03  0.00000000000E+00 0.  1.
    9000005    2    1    2  501    0 -0.28717827171E+02 -0.18956130943E+02 -0.59952734165E+02  0.47257578801E+03  0.46749277704E+03 0.  0.
         13    1    3    3    0    0  0.38714192257E+02  0.21594947430E+03 -0.62671546730E+02  0.22816811105E+03  0.00000000000E+00 0.  1.
          3    1    3    3  501    0 -0.67432019428E+02 -0.23490560524E+03  0.27188125655E+01  0.24440767696E+03  0.00000000000E+00 0.  1.
         21    1    1    2  502  501  0.28717827171E+02  0.18956130943E+02  0.25149445556E+02  0.42620923377E+02  0.00000000000E+00 0.  1.
<scales pt_clust_4="550.00000" pt_clust_5="550.00000" pt_clust_6="34.41001"></scales>
<mgrwt>
<rscale>  0 0.30000000E+03</rscale>
<asrwt>  1 0.34410006E+02</asrwt>
<pdfrwt beam="1">  1        1 0.87344259E+00 0.30000000E+03</pdfrwt>
<pdfrwt beam="2">0</pdfrwt>
<totfact> 0.23425830E-04</totfact>
</mgrwt>
<clustering>
<clus scale="   34.410">  1  6  2 -1</clus>
<clus scale="  467.493">  4  5 -1 -1</clus>
<clus scale="  300.000">  1  4  2 -1</clus>
</clustering>
</event>
<event>
 6    1  0.9462926E-012  0.3000000E+03  0.7818608E-02  0.1093470E+00
          1   -1    0    0  502    0  0.00000000000E+00  0.00000000000E+00  0.24753161838E+03  0.24753161838E+03  0.00000000000E+00 0.  1.
         13   -1    0    0    0    0 -0.00000000000E+00 -0.00000000000E+00 -0.27500000000E+03  0.27500000000E+03  0.00000000000E+00 0.  1.
    9000005    2    1    2  501    0  0.25156890514E+02  0.22599919506E+02 -0.62515248817E+02  0.47382937611E+03  0.46846824420E+03 0.  0.
         13    1    3    3    0    0  0.90673368204E+02  0.16355446090E+03 -0.19457150425E+03  0.26986995321E+03  0.00000000000E+00 0.  1.
          1    1    3    3  501    0 -0.65516477690E+02 -0.14095454140E+03  0.13205625543E+03  0.20395942289E+03  0.00000000000E+00 0.  1.
         21    1    1    2  502  501 -0.25156890514E+02 -0.22599919506E+02  0.35046867196E+02  0.48702242272E+02  0.00000000000E+00 0. -1.
<scales pt_clust_4="550.00000" pt_clust_5="550.00000" pt_clust_6="33.81753"></scales>
<mgrwt>
<rscale>  0 0.30000000E+03</rscale>
<asrwt>  1 0.33817532E+02</asrwt>
<pdfrwt beam="1">  1        1 0.90011498E+00 0.30000000E+03</pdfrwt>
<pdfrwt beam="2">0</pdfrwt>
<totfact> 0.11078656E-04</totfact>
</mgrwt>
<clustering>
<clus scale="   33.818">  1  6  2 -1</clus>
<clus scale="  468.468">  4  5 -1 -1</clus>
<clus scale="  300.000">  1  4  2 -1</clus>
</clustering>
</event>
<event>
 6    1  0.9462926E-012  0.3000000E+03  0.7818608E-02  0.1093470E+00
          1   -1    0    0  502    0  0.00000000000E+00  0.00000000000E+00  0.23523370259E+03  0.23523370259E+03  0.00000000000E+00 0.  1.
         13   -1    0    0    0    0 -0.00000000000E+00 -0.00000000000E+00 -0.27500000000E+03  0.27500000000E+03  0.00000000000E+00 0.  1.
    9000005    2    1    2  501    0  0.21043891359E+02  0.24317056217E+02 -0.57333639857E+02  0.47358979304E+03  0.46900531044E+03 0.  0.
         13    1    3    3    0    0  0.20627607823E+03 -0.56880324112E+02  0.80744947961E+02  0.22870272919E+03  0.00000000000E+00 0.  1.
          3    1    3    3  501    0 -0.18523218687E+03  0.81197380329E+02 -0.13807858782E+03  0.24488706384E+03  0.00000000000E+00 0.  1.
         21    1    1    2  502  501 -0.21043891359E+02 -0.24317056217E+02  0.17567342444E+02  0.36643909550E+02  0.00000000000E+00 0. -1.
<scales pt_clust_4="550.00000" pt_clust_5="550.00000" pt_clust_6="32.15843"></scales>
<mgrwt>
<rscale>  0 0.30000000E+03</rscale>
<asrwt>  1 0.32158429E+02</asrwt>
<pdfrwt beam="1">  1        1 0.85539528E+00 0.30000000E+03</pdfrwt>
<pdfrwt beam="2">0</pdfrwt>
<totfact> 0.36685958E-04</totfact>
</mgrwt>
<clustering>
<clus scale="   32.158">  1  6  2 -1</clus>
<clus scale="  469.005">  4  5 -1 -1</clus>
<clus scale="  300.000">  1  4  2 -1</clus>
</clustering>
</event>
<event>
 6    1  0.9462926E-012  0.3000000E+03  0.7818608E-02  0.1093470E+00
          1   -1    0    0  502    0  0.00000000000E+00  0.00000000000E+00  0.24046447844E+03  0.24046447844E+03  0.00000000000E+00 0.  1.
         13   -1    0    0    0    0 -0.00000000000E+00 -0.00000000000E+00 -0.27500000000E+03  0.27500000000E+03  0.00000000000E+00 0.  1.
    9000005    2    1    2  501    0 -0.32296780541E+02  0.14102131282E+02 -0.59926349164E+02  0.47202893693E+03  0.46688135306E+03 0.  0.
         13    1    3    3    0    0  0.15703578067E+03  0.21970286677E+02 -0.18600766965E+03  0.24442132287E+03  0.00000000000E+00 0.  1.
          1    1    3    3  501    0 -0.18933256121E+03 -0.78681553956E+01  0.12608132048E+03  0.22760761406E+03  0.00000000000E+00 0.  1.
         21    1    1    2  502  501  0.32296780541E+02 -0.14102131282E+02  0.25390827605E+02  0.43435541513E+02  0.00000000000E+00 0. -1.
<scales pt_clust_4="550.00000" pt_clust_5="550.00000" pt_clust_6="35.24134"></scales>
<mgrwt>
<rscale>  0 0.30000000E+03</rscale>
<asrwt>  1 0.35241341E+02</asrwt>
<pdfrwt beam="1">  1        1 0.87441629E+00 0.30000000E+03</pdfrwt>
<pdfrwt beam="2">0</pdfrwt>
<totfact> 0.22783894E-04</totfact>
</mgrwt>
<clustering>
<clus scale="   35.241">  1  6  2 -1</clus>
<clus scale="  466.881">  4  5 -1 -1</clus>
<clus scale="  300.000">  1  4  2 -1</clus>
</clustering>
</event>
<event>
 6    1  0.9462926E-012  0.3000000E+03  0.7818608E-02  0.1093470E+00
          1   -1    0    0  502    0  0.00000000000E+00  0.00000000000E+00  0.23730265375E+03  0.23730265375E+03  0.00000000000E+00 0.  1.
         13   -1    0    0    0    0 -0.00000000000E+00 -0.00000000000E+00 -0.27500000000E+03  0.27500000000E+03  0.00000000000E+00 0.  1.
    9000005    2    1    2  501    0 -0.24314054930E+02 -0.21740761890E+02 -0.66251820270E+02  0.46895300576E+03  0.46310234714E+03 0.  0.
         13    1    3    3    0    0 -0.38813549090E+02 -0.23905926231E+03 -0.32088392874E+01  0.24221089805E+03  0.00000000000E+00 0.  1.
          1    1    3    3  501    0  0.14499494160E+02  0.21731850042E+03 -0.63042980983E+02  0.22674210770E+03  0.00000000000E+00 0.  1.
         21    1    1    2  502  501  0.24314054930E+02  0.21740761890E+02  0.28554474020E+02  0.43349647995E+02  0.00000000000E+00 0.  1.
<scales pt_clust_4="550.00000" pt_clust_5="550.00000" pt_clust_6="32.61647"></scales>
<mgrwt>
<rscale>  0 0.30000000E+03</rscale>
<asrwt>  1 0.32616468E+02</asrwt>
<pdfrwt beam="1">  1        1 0.86291874E+00 0.30000000E+03</pdfrwt>
<pdfrwt beam="2">0</pdfrwt>
<totfact> 0.30490616E-04</totfact>
</mgrwt>
<clustering>
<clus scale="   32.616">  1  6  2 -1</clus>
<clus scale="  463.102">  4  5 -1 -1</clus>
<clus scale="  300.000">  1  4  2 -1</clus>
</clustering>
</event>
<event>
 6    1  0.9462926E-012  0.3000000E+03  0.7818608E-02  0.1093470E+00
          1   -1    0    0  502    0  0.00000000000E+00  0.00000000000E+00  0.24656259125E+03  0.24656259125E+03  0.00000000000E+00 0.  1.
         13   -1    0    0    0    0 -0.00000000000E+00 -0.00000000000E+00 -0.27500000000E+03  0.27500000000E+03  0.00000000000E+00 0.  1.
    9000005    2    1    2  501    0  0.13541530751E+02  0.49114114124E+02 -0.18661448418E+02  0.46968640536E+03  0.46654206720E+03 0.  0.
         13    1    3    3    0    0  0.51312515647E+02  0.13360314023E+03  0.19207013881E+03  0.23952810182E+03  0.00000000000E+00 0.  1.
          3    1    3    3  501    0 -0.37770984896E+02 -0.84489026109E+02 -0.21073158723E+03  0.23015830354E+03  0.00000000000E+00 0.  1.
         21    1    1    2  502  501 -0.13541530751E+02 -0.49114114124E+02 -0.97759603366E+01  0.51876185883E+02  0.00000000000E+00 0. -1.
<scales pt_clust_4="550.00000" pt_clust_5="550.00000" pt_clust_6="50.94676"></scales>
<mgrwt>
<rscale>  0 0.30000000E+03</rscale>
<asrwt>  1 0.50946755E+02</asrwt>
<pdfrwt beam="1">  1        1 0.89659124E+00 0.30000000E+03</pdfrwt>
<pdfrwt beam="2">0</pdfrwt>
<totfact> 0.11309829E-04</totfact>
</mgrwt>
<clustering>
<clus scale="   50.947">  1  6  2 -1</clus>
<clus scale="  466.542">  4  5 -1 -1</clus>
<clus scale="  300.000">  1  4  2 -1</clus>
</clustering>
</event>
<event>
 6    1  0.9462926E-012  0.3000000E+03  0.7818608E-02  0.1093470E+00
          1   -1    0    0  502    0  0.00000000000E+00  0.00000000000E+00  0.22257201012E+03  0.22257201012E+03  0.00000000000E+00 0.  1.
         13   -1    0    0    0    0 -0.00000000000E+00 -0.00000000000E+00 -0.27500000000E+03  0.27500000000E+03  0.00000000000E+00 0.  1.
    9000005    2    1    2  501    0  0.32044599619E+01 -0.32929922053E+02 -0.57418407194E+02  0.46411229411E+03  0.45935683268E+03 0.  0.
         13    1    3    3    0    0  0.11211118731E+03  0.16257796379E+03  0.66399150570E+02  0.20834912965E+03  0.00000000000E+00 0.  1.
          1    1    3    3  501    0 -0.10890672735E+03 -0.19550788584E+03 -0.12381755776E+03  0.25576316447E+03  0.00000000000E+00 0.  1.
         21    1    1    2  502  501 -0.32044599619E+01  0.32929922053E+02  0.49904173115E+01  0.33459716003E+02  0.00000000000E+00 0. -1.
<scales pt_clust_4="550.00000" pt_clust_5="550.00000" pt_clust_6="33.08547"></scales>
<mgrwt>
<rscale>  0 0.30000000E+03</rscale>
<asrwt>  1 0.33085470E+02</asrwt>
<pdfrwt beam="1">  1        1 0.80935276E+00 0.30000000E+03</pdfrwt>
<pdfrwt beam="2">0</pdfrwt>
<totfact> 0.89170174E-04</totfact>
</mgrwt>
<clustering>
<clus scale="   33.085">  1  6  2 -1</clus>
<clus scale="  459.357">  4  5 -1 -1</clus>
<clus scale="  300.000">  1  4  2 -1</clus>
</clustering>
</event>
<event>
 6    1  0.9462926E-012  0.3000000E+03  0.7818608E-02  0.1093470E+00
          1   -1    0    0  502    0  0.00000000000E+00  0.00000000000E+00  0.22545979491E+03  0.22545979491E+03  0.00000000000E+00 0.  1.
         13   -1    0    0    0    0 -0.00000000000E+00 -0.00000000000E+00 -0.27500000000E+03  0.27500000000E+03  0.00000000000E+00 0.  1.
    9000005    2    1    2  501    0 -0.14233865467E+02  0.34428205108E+02 -0.48768732548E+02  0.46319722116E+03  0.45911368111E+03 0.  0.
         13    1    3    3    0    0  0.63892260920E+02 -0.19790449796E+03  0.19156912870E+02  0.20884299995E+03  0.00000000000E+00 0.  1.
          3    1    3    3  501    0 -0.78126126387E+02  0.23233270307E+03 -0.67925645418E+02  0.25435422120E+03  0.00000000000E+00 0.  1.
         21    1    1    2  502  501  0.14233865467E+02 -0.34428205108E+02 -0.77147254045E+00  0.37262573757E+02  0.00000000000E+00 0. -1.
<scales pt_clust_4="550.00000" pt_clust_5="550.00000" pt_clust_6="37.25459"></scales>
<mgrwt>
<rscale>  0 0.30000000E+03</rscale>
<asrwt>  1 0.37254587E+02</asrwt>
<pdfrwt beam="1">  1        1 0.81985380E+00 0.30000000E+03</pdfrwt>
<pdfrwt beam="2">0</pdfrwt>
<totfact> 0.71702574E-04</totfact>
</mgrwt>
<clustering>
<clus scale="   37.255">  1  6  2 -1</clus>
<clus scale="  459.114">  4  5 -1 -1</clus>
<clus scale="  300.000">  1  4  2 -1</clus>
</clustering>
</event>
<event>
 6    1  0.9462926E-012  0.3000000E+03  0.7818608E-02  0.1093470E+00
          1   -1    0    0  502    0  0.00000000000E+00  0.00000000000E+00  0.24141363301E+03  0.24141363301E+03  0.00000000000E+00 0.  1.
         13   -1    0    0    0    0 -0.00000000000E+00 -0.00000000000E+00 -0.27500000000E+03  0.27500000000E+03  0.00000000000E+00 0.  1.
    9000005    2    1    2  501    0 -0.13498835970E+02 -0.31454492798E+02 -0.59411202764E+02  0.47353559863E+03  0.46854526832E+03 0.  0.
         13    1    3    3    0    0 -0.19346374586E+03  0.11606429092E+03  0.22760599063E+02  0.22675357871E+03  0.00000000000E+00 0.  1.
          1    1    3    3  501    0  0.17996490989E+03 -0.14751878372E+03 -0.82171801827E+02  0.24678201992E+03  0.00000000000E+00 0.  1.
         21    1    1    2  502  501  0.13498835970E+02  0.31454492798E+02  0.25824835773E+02  0.42878034382E+02  0.00000000000E+00 0.  1.
<scales pt_clust_4="550.00000" pt_clust_5="550.00000" pt_clust_6="34.22870"></scales>
<mgrwt>
<rscale>  0 0.30000000E+03</rscale>
<asrwt>  1 0.34228697E+02</asrwt>
<pdfrwt beam="1">  1        1 0.87786776E+00 0.30000000E+03</pdfrwt>
<pdfrwt beam="2">0</pdfrwt>
<totfact> 0.21010520E-04</totfact>
</mgrwt>
<clustering>
<clus scale="   34.229">  1  6  2 -1</clus>
<clus scale="  468.545">  4  5 -1 -1</clus>
<clus scale="  300.000">  1  4  2 -1</clus>
</clustering>
</event>
<event>
 6    1  0.9462926E-012  0.3000000E+03  0.7818608E-02  0.1093470E+00
          1   -1    0    0  502    0  0.00000000000E+00  0.00000000000E+00  0.24562984448E+03  0.24562984448E+03  0.00000000000E+00 0.  1.
         13   -1    0    0    0    0 -0.00000000000E+00 -0.00000000000E+00 -0.27500000000E+03  0.27500000000E+03  0.00000000000E+00 0.  1.
    9000005    2    1    2  501    0  0.33940310397E+02  0.95715225025E+01 -0.57020363462E+02  0.47581809700E+03  0.47107109959E+03 0.  0.
         13    1    3    3    0    0  0.19040931779E+02  0.16658819152E+03  0.14350406607E+03  0.22069798280E+03  0.00000000000E+00 0.  1.
          1    1    3    3  501    0  0.14899378618E+02 -0.15701666901E+03 -0.20052442953E+03  0.25512011420E+03  0.00000000000E+00 0.  1.
         21    1    1    2  502  501 -0.33940310397E+02 -0.95715225025E+01  0.27650207944E+02  0.44811747480E+02  0.00000000000E+00 0. -1.
<scales pt_clust_4="550.00000" pt_clust_5="550.00000" pt_clust_6="35.26413"></scales>
<mgrwt>
<rscale>  0 0.30000000E+03</rscale>
<asrwt>  1 0.35264128E+02</asrwt>
<pdfrwt beam="1">  1        1 0.89319943E+00 0.30000000E+03</pdfrwt>
<pdfrwt beam="2">0</pdfrwt>
<totfact> 0.13202491E-04</totfact>
</mgrwt>
<clustering>
<clus scale="   35.264">  1  6  2 -1</clus>
<clus scale="  471.071">  4  5 -1 -1</clus>
<clus scale="  300.000">  1  4  2 -1</clus>
</clustering>
</event>
<event>
 6    1  0.9462926E-012  0.3000000E+03  0.7818608E-02  0.1093470E+00
          1   -1    0    0  502    0  0.00000000000E+00  0.00000000000E+00  0.23022488068E+03  0.23022488068E+03  0.00000000000E+00 0.  1.
         13   -1    0    0    0    0 -0.00000000000E+00 -0.00000000000E+00 -0.27500000000E+03  0.27500000000E+03  0.00000000000E+00 0.  1.
    9000005    2    1    2  501    0  0.22536224301E+02 -0.27827811258E+02 -0.57349549783E+02  0.46727247909E+03  0.46235519935E+03 0.  0.
         13    1    3    3    0    0  0.12446449251E+03  0.15602851954E+03 -0.13741602493E+03  0.24232101170E+03  0.00000000000E+00 0.  1.
          1    1    3    3  501    0 -0.10192826821E+03 -0.18385633080E+03  0.80066475146E+02  0.22495146738E+03  0.00000000000E+00 0.  1.
         21    1    1    2  502  501 -0.22536224301E+02  0.27827811258E+02  0.12574430461E+02  0.37952401592E+02  0.00000000000E+00 0. -1.
<scales pt_clust_4="550.00000" pt_clust_5="550.00000" pt_clust_6="35.80878"></scales>
<mgrwt>
<rscale>  0 0.30000000E+03</rscale>
<asrwt>  1 0.35808777E+02</asrwt>
<pdfrwt beam="1">  1        1 0.83718138E+00 0.30000000E+03</pdfrwt>
<pdfrwt beam="2">0</pdfrwt>
<totfact> 0.51938410E-04</totfact>
</mgrwt>
<clustering>
<clus scale="   35.809">  1  6  2 -1</clus>
<clus scale="  462.355">  4  5 -1 -1</clus>
<clus scale="  300.000">  1  4  2 -1</clus>
</clustering>
</event>
<event>
 6    1  0.9462926E-012  0.3000000E+03  0.7818608E-02  0.1093470E+00
          1   -1    0    0  502    0  0.00000000000E+00  0.00000000000E+00  0.23119617779E+03  0.23119617779E+03  0.00000000000E+00 0.  1.
         13   -1    0    0    0    0 -0.00000000000E+00 -0.00000000000E+00 -0.27500000000E+03  0.27500000000E+03  0.00000000000E+00 0.  1.
    9000005    2    1    2  501    0  0.35203855272E+02  0.17871787010E+02 -0.32364661817E+02  0.46509183998E+03  0.46228155499E+03 0.  0.
         13    1    3    3    0    0  0.21232151555E+03 -0.74089716298E+02  0.76784790961E+02  0.23762494850E+03  0.00000000000E+00 0.  1.
          1    1    3    3  501    0 -0.17711766028E+03  0.91961503308E+02 -0.10914945278E+03  0.22746689147E+03  0.00000000000E+00 0.  1.
         21    1    1    2  502  501 -0.35203855272E+02 -0.17871787010E+02 -0.11439160390E+02  0.41104337817E+02  0.00000000000E+00 0. -1.
<scales pt_clust_4="550.00000" pt_clust_5="550.00000" pt_clust_6="39.48055"></scales>
<mgrwt>
<rscale>  0 0.30000000E+03</rscale>
<asrwt>  1 0.39480549E+02</asrwt>
<pdfrwt beam="1">  1        1 0.84071337E+00 0.30000000E+03</pdfrwt>
<pdfrwt beam="2">0</pdfrwt>
<totfact> 0.47993113E-04</totfact>
</mgrwt>
<clustering>
<clus scale="   39.481">  1  6  2 -1</clus>
<clus scale="  462.282">  4  5 -1 -1</clus>
<clus scale="  300.000">  1  4  2 -1</clus>
</clustering>
</event>
<event>
 6    1  0.9462926E-012  0.3000000E+03  0.7818608E-02  0.1093470E+00
          1   -1    0    0  502    0  0.00000000000E+00  0.00000000000E+00  0.23031828509E+03  0.23031828509E+03  0.00000000000E+00 0.  1.
         13   -1    0    0    0    0 -0.00000000000E+00 -0.00000000000E+00 -0.27500000000E+03  0.27500000000E+03  0.00000000000E+00 0.  1.
    9000005    2    1    2  501    0  0.27394345741E+01  0.35249852674E+02 -0.66016676608E+02  0.46402376722E+03  0.45794082406E+03 0.  0.
         13    1    3    3    0    0  0.67253952351E+01  0.82694969939E+02  0.18804725451E+03  0.20553700135E+03  0.00000000000E+00 0.  1.
          1    1    3    3  501    0 -0.39859606610E+01 -0.47445117265E+02 -0.25406393112E+03  0.25848676587E+03  0.00000000000E+00 0.  1.
         21    1    1    2  502  501 -0.27394345741E+01 -0.35249852674E+02  0.21334961697E+02  0.41294517868E+02  0.00000000000E+00 0. -1.
<scales pt_clust_4="550.00000" pt_clust_5="550.00000" pt_clust_6="35.35614"></scales>
<mgrwt>
<rscale>  0 0.30000000E+03</rscale>
<asrwt>  1 0.35356140E+02</asrwt>
<pdfrwt beam="1">  1        1 0.83752104E+00 0.30000000E+03</pdfrwt>
<pdfrwt beam="2">0</pdfrwt>
<totfact> 0.51765948E-04</totfact>
</mgrwt>
<clustering>
<clus scale="   35.356">  1  6  2 -1</clus>
<clus scale="  457.941">  4  5 -1 -1</clus>
<clus scale="  300.000">  1  4  2 -1</clus>
</clustering>
</event>
<event>
 6    1  0.9462926E-012  0.3000000E+03  0.7818608E-02  0.1093470E+00
          1   -1    0    0  502    0  0.00000000000E+00  0.00000000000E+00  0.22915299599E+03  0.22915299599E+03  0.00000000000E+00 0.  1.
         13   -1    0    0    0    0 -0.00000000000E+00 -0.00000000000E+00 -0.27500000000E+03  0.27500000000E+03  0.00000000000E+00 0.  1.
    9000005    2    1    2  501    0  0.31064826774E+02  0.12318777571E+02 -0.67833737371E+02  0.46415059372E+03  0.45794932250E+03 0.  0.
         13    1    3    3    0    0  0.13585019132E+03  0.17340958673E+03  0.66007399995E+02  0.22996333644E+03  0.00000000000E+00 0.  1.
          3    1    3    3  501    0 -0.10478536455E+03 -0.16109080916E+03 -0.13384113737E+03  0.23418725728E+03  0.00000000000E+00 0.  1.
         21    1    1    2  502  501 -0.31064826774E+02 -0.12318777571E+02  0.21986733357E+02  0.40002402266E+02  0.00000000000E+00 0. -1.
<scales pt_clust_4="550.00000" pt_clust_5="550.00000" pt_clust_6="33.41819"></scales>
<mgrwt>
<rscale>  0 0.30000000E+03</rscale>
<asrwt>  1 0.33418195E+02</asrwt>
<pdfrwt beam="1">  1        1 0.83328362E+00 0.30000000E+03</pdfrwt>
<pdfrwt beam="2">0</pdfrwt>
<totfact> 0.56187368E-04</totfact>
</mgrwt>
<clustering>
<clus scale="   33.418">  1  6  2 -1</clus>
<clus scale="  457.949">  4  5 -1 -1</clus>
<clus scale="  300.000">  1  4  2 -1</clus>
</clustering>
</event>
<event>
 6    1  0.9462926E-012  0.3000000E+03  0.7818608E-02  0.1093470E+00
          1   -1    0    0  502    0  0.00000000000E+00  0.00000000000E+00  0.23406576319E+03  0.23406576319E+03  0.00000000000E+00 0.  1.
         13   -1    0    0    0    0 -0.00000000000E+00 -0.00000000000E+00 -0.27500000000E+03  0.27500000000E+03  0.00000000000E+00 0.  1.
    9000005    2    1    2  501    0  0.39399292301E+02 -0.76453606999E+01 -0.55155935727E+02  0.46648627876E+03  0.46147211752E+03 0.  0.
         13    1    3    3    0    0 -0.12948285264E+03 -0.16200236745E+03 -0.10480274335E+03  0.23236650189E+03  0.00000000000E+00 0.  1.
          1    1    3    3  501    0  0.16888214494E+03  0.15435700675E+03  0.49646807622E+02  0.23411977687E+03  0.00000000000E+00 0.  1.
         21    1    1    2  502  501 -0.39399292301E+02  0.76453606999E+01  0.14221698912E+02  0.42579484427E+02  0.00000000000E+00 0.  1.
<scales pt_clust_4="550.00000" pt_clust_5="550.00000" pt_clust_6="40.13422"></scales>
<mgrwt>
<rscale>  0 0.30000000E+03</rscale>
<asrwt>  1 0.40134222E+02</asrwt>
<pdfrwt beam="1">  1        1 0.85114823E+00 0.30000000E+03</pdfrwt>
<pdfrwt beam="2">0</pdfrwt>
<totfact> 0.38704303E-04</totfact>
</mgrwt>
<clustering>
<clus scale="   40.134">  1  6  2 -1</clus>
<clus scale="  461.472">  4  5 -1 -1</clus>
<clus scale="  300.000">  1  4  2 -1</clus>
</clustering>
</event>
<event>
 6    1  0.9462926E-012  0.3000000E+03  0.7818608E-02  0.1093470E+00
          1   -1    0    0  502    0  0.00000000000E+00  0.00000000000E+00  0.22056453892E+03  0.22056453892E+03  0.00000000000E+00 0.  1.
         13   -1    0    0    0    0 -0.00000000000E+00 -0.00000000000E+00 -0.27500000000E+03  0.27500000000E+03  0.00000000000E+00 0.  1.
    9000005    2    1    2  501    0 -0.21591103084E+02  0.23764045909E+02 -0.51497447354E+02  0.46332267894E+03  0.45933104851E+03 0.  0.
         13    1    3    3    0    0  0.17341092627E+03  0.24927313136E+02 -0.16248602666E+03  0.23894440598E+03  0.00000000000E+00 0.  1.
          3    1    3    3  501    0 -0.19500202935E+03 -0.11632672271E+01  0.11098857930E+03  0.22437827296E+03  0.00000000000E+00 0.  1.
         21    1    1    2  502  501  0.21591103084E+02 -0.23764045909E+02 -0.29380137278E+01  0.32241859981E+02  0.00000000000E+00 0.  1.
<scales pt_clust_4="550.00000" pt_clust_5="550.00000" pt_clust_6="32.10772"></scales>
<mgrwt>
<rscale>  0 0.30000000E+03</rscale>
<asrwt>  1 0.32107719E+02</asrwt>
<pdfrwt beam="1">  1        1 0.80205287E+00 0.30000000E+03</pdfrwt>
<pdfrwt beam="2">0</pdfrwt>
<totfact> 0.10185061E-03</totfact>
</mgrwt>
<clustering>
<clus scale="   32.108">  1  6  2 -1</clus>
<clus scale="  459.331">  4  5 -1 -1</clus>
<clus scale="  300.000">  1  4  2 -1</clus>
</clustering>
</event>
<event>
 6    1  0.9462926E-012  0.3000000E+03  0.7818608E-02  0.1093470E+00
          1   -1    0    0  502    0  0.00000000000E+00  0.00000000000E+00  0.23187167546E+03  0.23187167546E+03  0.00000000000E+00 0.  1.
         13   -1    0    0    0    0 -0.00000000000E+00 -0.00000000000E+00 -0.27500000000E+03  0.27500000000E+03  0.00000000000E+00 0.  1.
    9000005    2    1    2  501    0  0.31055014544E+02 -0.29556235208E+02 -0.44427619560E+02  0.46398026448E+03  0.45985420242E+03 0.  0.
         13    1    3    3    0    0  0.72681343752E+02 -0.21277982508E+03 -0.12756498531E+03  0.25851626094E+03  0.00000000000E+00 0.  1.
          3    1    3    3  501    0 -0.41626329208E+02  0.18322358987E+03  0.83137365749E+02  0.20546400355E+03  0.00000000000E+00 0.  1.
         21    1    1    2  502  501 -0.31055014544E+02  0.29556235208E+02  0.12992950210E+01  0.42891410976E+02  0.00000000000E+00 0. -1.
<scales pt_clust_4="550.00000" pt_clust_5="550.00000" pt_clust_6="42.87173"></scales>
<mgrwt>
<rscale>  0 0.30000000E+03</rscale>
<asrwt>  1 0.42871727E+02</asrwt>
<pdfrwt beam="1">  1        1 0.84316973E+00 0.30000000E+03</pdfrwt>
<pdfrwt beam="2">0</pdfrwt>
<totfact> 0.45137073E-04</totfact>
</mgrwt>
<clustering>
<clus scale="   42.872">  1  6  2 -1</clus>
<clus scale="  459.854">  4  5 -1 -1</clus>
<clus scale="  300.000">  1  4  2 -1</clus>
</clustering>
</event>
<event>
 6    1  0.9462926E-012  0.3000000E+03  0.7818608E-02  0.1093470E+00
          1   -1    0    0  502    0  0.00000000000E+00  0.00000000000E+00  0.24516162634E+03  0.24516162634E+03  0.00000000000E+00 0.  1.
         13   -1    0    0    0    0 -0.00000000000E+00 -0.00000000000E+00 -0.27500000000E+03  0.27500000000E+03  0.00000000000E+00 0.  1.
    9000005    2    1    2  501    0 -0.20772608036E+02  0.23492750210E+02 -0.60460672689E+02  0.47633086369E+03  0.47143630344E+03 0.  0.
         13    1    3    3    0    0 -0.73676716314E+02  0.23776629780E+03 -0.59495607682E+01  0.24899089977E+03  0.00000000000E+00 0.  1.
          3    1    3    3  501    0  0.52904108278E+02 -0.21427354759E+03 -0.54511111921E+02  0.22733996391E+03  0.00000000000E+00 0.  1.
         21    1    1    2  502  501  0.20772608036E+02 -0.23492750210E+02  0.30622299030E+02  0.43830762655E+02  0.00000000000E+00 0. -1.
<scales pt_clust_4="550.00000" pt_clust_5="550.00000" pt_clust_6="31.35938"></scales>
<mgrwt>
<rscale>  0 0.30000000E+03</rscale>
<asrwt>  1 0.31359377E+02</asrwt>
<pdfrwt beam="1">  1        1 0.89149682E+00 0.30000000E+03</pdfrwt>
<pdfrwt beam="2">0</pdfrwt>
<totfact> 0.14153501E-04</totfact>
</mgrwt>
<clustering>
<clus scale="   31.359">  1  6  2 -1</clus>
<clus scale="  471.436">  4  5 -1 -1</clus>
<clus scale="  300.000">  1  4  2 -1</clus>
</clustering>
</event>
<event>
 6    1  0.9462926E-012  0.3000000E+03  0.7818608E-02  0.1093470E+00
          1   -1    0    0  502    0  0.00000000000E+00  0.00000000000E+00  0.24949519803E+03  0.24949519803E+03  0.00000000000E+00 0.  1.
         13   -1    0    0    0    0 -0.00000000000E+00 -0.00000000000E+00 -0.27500000000E+03  0.27500000000E+03  0.00000000000E+00 0.  1.
    9000005    2    1    2  501    0  0.30614548108E+02 -0.23066682596E+00 -0.24835166831E+02  0.49387245853E+03  0.49229657324E+03 0.  0.
         13    1    3    3    0    0 -0.19363765852E+03 -0.81264285618E+02  0.90896506892E+02  0.22882657599E+03  0.00000000000E+00 0.  1.
          3    1    3    3  501    0  0.22425220663E+03  0.81033618792E+02 -0.11573167372E+03  0.26504588255E+03  0.00000000000E+00 0.  1.
         21    1    1    2  502  501 -0.30614548108E+02  0.23066682596E+00 -0.66963513861E+00  0.30622739496E+02  0.00000000000E+00 0.  1.
<scales pt_clust_4="550.00000" pt_clust_5="550.00000" pt_clust_6="30.61542"></scales>
<mgrwt>
<rscale>  0 0.30000000E+03</rscale>
<asrwt>  1 0.30615417E+02</asrwt>
<pdfrwt beam="1">  1        1 0.90725527E+00 0.30000000E+03</pdfrwt>
<pdfrwt beam="2">0</pdfrwt>
<totfact> 0.85315381E-05</totfact>
</mgrwt>
<clustering>
<clus scale="   30.615">  1  6  2 -1</clus>
<clus scale="  492.297">  4  5 -1 -1</clus>
<clus scale="  300.000">  1  4  2 -1</clus>
</clustering>
</event>
<event>
 6    1  0.9462926E-012  0.3000000E+03  0.7818608E-02  0.1093470E+00
          1   -1    0    0  502    0  0.00000000000E+00  0.00000000000E+00  0.24962623036E+03  0.24962623036E+03  0.00000000000E+00 0.  1.
         13   -1    0    0    0    0 -0.00000000000E+00 -0.00000000000E+00 -0.27500000000E+03  0.27500000000E+03  0.00000000000E+00 0.  1.
    9000005    2    1    2  501    0  0.27675778146E+01  0.34167074588E+02 -0.58554826095E+02  0.47691846390E+03  0.47206726754E+03 0.  0.
         13    1    3    3    0    0  0.69613647479E+02  0.12098102723E+03  0.17208526160E+03  0.22157573451E+03  0.00000000000E+00 0.  1.
          3    1    3    3  501    0 -0.66846069665E+02 -0.86813952638E+02 -0.23064008769E+03  0.25534272939E+03  0.00000000000E+00 0.  1.
         21    1    1    2  502  501 -0.27675778146E+01 -0.34167074588E+02  0.33181056451E+02  0.47707766455E+02  0.00000000000E+00 0. -1.
<scales pt_clust_4="550.00000" pt_clust_5="550.00000" pt_clust_6="34.27898"></scales>
<mgrwt>
<rscale>  0 0.30000000E+03</rscale>
<asrwt>  1 0.34278980E+02</asrwt>
<pdfrwt beam="1">  1        1 0.90773175E+00 0.30000000E+03</pdfrwt>
<pdfrwt beam="2">0</pdfrwt>
<totfact> 0.81510334E-05</totfact>
</mgrwt>
<clustering>
<clus scale="   34.279">  1  6  2 -1</clus>
<clus scale="  472.067">  4  5 -1 -1</clus>
<clus scale="  300.000">  1  4  2 -1</clus>
</clustering>
</event>
<event>
 6    1  0.9462926E-012  0.3000000E+03  0.7818608E-02  0.1093470E+00
          1   -1    0    0  502    0  0.00000000000E+00  0.00000000000E+00  0.23848330105E+03  0.23848330105E+03  0.00000000000E+00 0.  1.
         13   -1    0    0    0    0 -0.00000000000E+00 -0.00000000000E+00 -0.27500000000E+03  0.27500000000E+03  0.00000000000E+00 0.  1.
    9000005    2    1    2  501    0 -0.30795711795E+02 -0.21560236438E+02 -0.53888574623E+02  0.47207072175E+03  0.46747574076E+03 0.  0.
         13    1    3    3    0    0 -0.20483434822E+02  0.16797592140E+03 -0.17774826109E+03  0.24541785916E+03  0.00000000000E+00 0.  1.
          3    1    3    3  501    0 -0.10312276973E+02 -0.18953615784E+03  0.12385968647E+03  0.22665286259E+03  0.00000000000E+00 0.  1.
         21    1    1    2  502  501  0.30795711795E+02  0.21560236438E+02  0.17371875677E+02  0.41412579306E+02  0.00000000000E+00 0.  1.
<scales pt_clust_4="550.00000" pt_clust_5="550.00000" pt_clust_6="37.59281"></scales>
<mgrwt>
<rscale>  0 0.30000000E+03</rscale>
<asrwt>  1 0.37592814E+02</asrwt>
<pdfrwt beam="1">  1        1 0.86721200E+00 0.30000000E+03</pdfrwt>
<pdfrwt beam="2">0</pdfrwt>
<totfact> 0.26705513E-04</totfact>
</mgrwt>
<clustering>
<clus scale="   37.593">  1  6  2 -1</clus>
<clus scale="  467.476">  4  5 -1 -1</clus>
<clus scale="  300.000">  1  4  2 -1</clus>
</clustering>
</event>
<event>
 6    1  0.9462926E-012  0.3000000E+03  0.7818608E-02  0.1093470E+00
          1   -1    0    0  502    0  0.00000000000E+00  0.00000000000E+00  0.22987438029E+03  0.22987438029E+03  0.00000000000E+00 0.  1.
         13   -1    0    0    0    0 -0.00000000000E+00 -0.00000000000E+00 -0.27500000000E+03  0.27500000000E+03  0.00000000000E+00 0.  1.
    9000005    2    1    2  501    0 -0.58748099126E+01 -0.30616865179E+02 -0.60728591224E+02  0.47001238745E+03  0.46502879130E+03 0.  0.
         13    1    3    3    0    0 -0.16737482623E+03  0.94633084375E+01  0.13346243103E+03  0.21428044045E+03  0.00000000000E+00 0.  1.
          3    1    3    3  501    0  0.16150001632E+03 -0.40080173617E+02 -0.19419102226E+03  0.25573194699E+03  0.00000000000E+00 0.  1.
         21    1    1    2  502  501  0.58748099126E+01  0.30616865179E+02  0.15602971510E+02  0.34861992841E+02  0.00000000000E+00 0.  1.
<scales pt_clust_4="550.00000" pt_clust_5="550.00000" pt_clust_6="31.17540"></scales>
<mgrwt>
<rscale>  0 0.30000000E+03</rscale>
<asrwt>  1 0.31175404E+02</asrwt>
<pdfrwt beam="1">  1        1 0.83590684E+00 0.30000000E+03</pdfrwt>
<pdfrwt beam="2">0</pdfrwt>
<totfact> 0.54462020E-04</totfact>
</mgrwt>
<clustering>
<clus scale="   31.175">  1  6  2 -1</clus>
<clus scale="  465.029">  4  5 -1 -1</clus>
<clus scale="  300.000">  1  4  2 -1</clus>
</clustering>
</event>
<event>
 6    1  0.9462926E-012  0.3000000E+03  0.7818608E-02  0.1093470E+00
          1   -1    0    0  502    0  0.00000000000E+00  0.00000000000E+00  0.23049366138E+03  0.23049366138E+03  0.00000000000E+00 0.  1.
         13   -1    0    0    0    0 -0.00000000000E+00 -0.00000000000E+00 -0.27500000000E+03  0.27500000000E+03  0.00000000000E+00 0.  1.
    9000005    2    1    2  501    0 -0.10677673633E+00  0.35422625318E+02 -0.39790178721E+02  0.46975830144E+03  0.46672778968E+03 0.  0.
         13    1    3    3    0    0 -0.95098357579E+02 -0.17551335257E+03 -0.11010101903E+03  0.22797120199E+03  0.00000000000E+00 0.  1.
          1    1    3    3  501    0  0.94991580843E+02  0.21093597789E+03  0.70310840305E+02  0.24178709945E+03  0.00000000000E+00 0.  1.
         21    1    1    2  502  501  0.10677673633E+00 -0.35422625318E+02 -0.47161598998E+01  0.35735359938E+02  0.00000000000E+00 0. -1.
<scales pt_clust_4="550.00000" pt_clust_5="550.00000" pt_clust_6="35.42280"></scales>
<mgrwt>
<rscale>  0 0.30000000E+03</rscale>
<asrwt>  1 0.35422804E+02</asrwt>
<pdfrwt beam="1">  1        1 0.83815877E+00 0.30000000E+03</pdfrwt>
<pdfrwt beam="2">0</pdfrwt>
<totfact> 0.51194155E-04</totfact>
</mgrwt>
<clustering>
<clus scale="   35.423">  1  6  2 -1</clus>
<clus scale="  466.728">  4  5 -1 -1</clus>
<clus scale="  300.000">  1  4  2 -1</clus>
</clustering>
</event>
<event>
 6    1  0.9462926E-012  0.3000000E+03  0.7818608E-02  0.1093470E+00
          1   -1    0    0  502    0  0.00000000000E+00  0.00000000000E+00  0.22480209426E+03  0.22480209426E+03  0.00000000000E+00 0.  1.
         13   -1    0    0    0    0 -0.00000000000E+00 -0.00000000000E+00 -0.27500000000E+03  0.27500000000E+03  0.00000000000E+00 0.  1.
    9000005    2    1    2  501    0 -0.11849284158E+02 -0.28116560736E+02 -0.51084930632E+02  0.46927778696E+03  0.46549009085E+03 0.  0.
         13    1    3    3    0    0  0.22325031359E+03  0.23750301864E+02 -0.41644807161E+02  0.22833981107E+03  0.00000000000E+00 0.  1.
          1    1    3    3  501    0 -0.23509959775E+03 -0.51866862600E+02 -0.94401234709E+01  0.24093797589E+03  0.00000000000E+00 0.  1.
         21    1    1    2  502  501  0.11849284158E+02  0.28116560736E+02  0.88702489085E+00  0.30524307295E+02  0.00000000000E+00 0.  1.
<scales pt_clust_4="550.00000" pt_clust_5="550.00000" pt_clust_6="30.51142"></scales>
<mgrwt>
<rscale>  0 0.30000000E+03</rscale>
<asrwt>  1 0.30511416E+02</asrwt>
<pdfrwt beam="1">  1        1 0.81746216E+00 0.30000000E+03</pdfrwt>
<pdfrwt beam="2">0</pdfrwt>
<totfact> 0.78001956E-04</totfact>
</mgrwt>
<clustering>
<clus scale="   30.511">  1  6  2 -1</clus>
<clus scale="  465.490">  4  5 -1 -1</clus>
<clus scale="  300.000">  1  4  2 -1</clus>
</clustering>
</event>
<event>
 6    1  0.9462926E-012  0.3000000E+03  0.7818608E-02  0.1093470E+00
          1   -1    0    0  502    0  0.00000000000E+00  0.00000000000E+00  0.24533140234E+03  0.24533140234E+03  0.00000000000E+00 0.  1.
         13   -1    0    0    0    0 -0.00000000000E+00 -0.00000000000E+00 -0.27500000000E+03  0.27500000000E+03  0.00000000000E+00 0.  1.
    9000005    2    1    2  501    0 -0.37692069432E+02 -0.20346797494E+02 -0.37803555047E+02  0.47673252852E+03  0.47329706392E+03 0.  0.
         13    1    3    3    0    0  0.18467367176E+03  0.10883811770E+03 -0.46793425246E+02  0.21940766976E+03  0.00000000000E+00 0.  1.
          3    1    3    3  501    0 -0.22236574119E+03 -0.12918491519E+03  0.89898701990E+01  0.25732485876E+03  0.00000000000E+00 0.  1.
         21    1    1    2  502  501  0.37692069432E+02  0.20346797494E+02  0.81349573872E+01  0.43598873816E+02  0.00000000000E+00 0. -1.
<scales pt_clust_4="550.00000" pt_clust_5="550.00000" pt_clust_6="42.83321"></scales>
<mgrwt>
<rscale>  0 0.30000000E+03</rscale>
<asrwt>  1 0.42833215E+02</asrwt>
<pdfrwt beam="1">  1        1 0.89211419E+00 0.30000000E+03</pdfrwt>
<pdfrwt beam="2">0</pdfrwt>
<totfact> 0.13125630E-04</totfact>
</mgrwt>
<clustering>
<clus scale="   42.833">  1  6  2 -1</clus>
<clus scale="  473.297">  4  5 -1 -1</clus>
<clus scale="  300.000">  1  4  2 -1</clus>
</clustering>
</event>
<event>
 6    1  0.9462926E-012  0.3000000E+03  0.7818608E-02  0.1093470E+00
          1   -1    0    0  502    0  0.00000000000E+00  0.00000000000E+00  0.23787834943E+03  0.23787834943E+03  0.00000000000E+00 0.  1.
         13   -1    0    0    0    0 -0.00000000000E+00 -0.00000000000E+00 -0.27500000000E+03  0.27500000000E+03  0.00000000000E+00 0.  1.
    9000005    2    1    2  501    0  0.24220747303E+02  0.21447485670E+02 -0.55705001799E+02  0.47556909878E+03  0.47118603677E+03 0.  0.
         13    1    3    3    0    0  0.80405074764E+02  0.23092876082E+03 -0.80112398551E+02  0.25731510842E+03  0.00000000000E+00 0.  1.
          3    1    3    3  501    0 -0.56184327462E+02 -0.20948127515E+03  0.24407396752E+02  0.21825399036E+03  0.00000000000E+00 0.  1.
         21    1    1    2  502  501 -0.24220747303E+02 -0.21447485670E+02  0.18583351234E+02  0.37309250657E+02  0.00000000000E+00 0. -1.
<scales pt_clust_4="550.00000" pt_clust_5="550.00000" pt_clust_6="32.35180"></scales>
<mgrwt>
<rscale>  0 0.30000000E+03</rscale>
<asrwt>  1 0.32351804E+02</asrwt>
<pdfrwt beam="1">  1        1 0.86501218E+00 0.30000000E+03</pdfrwt>
<pdfrwt beam="2">0</pdfrwt>
<totfact> 0.28988039E-04</totfact>
</mgrwt>
<clustering>
<clus scale="   32.352">  1  6  2 -1</clus>
<clus scale="  471.186">  4  5 -1 -1</clus>
<clus scale="  300.000">  1  4  2 -1</clus>
</clustering>
</event>
<event>
 6    1  0.9462926E-012  0.3000000E+03  0.7818608E-02  0.1093470E+00
          1   -1    0    0  502    0  0.00000000000E+00  0.00000000000E+00  0.22472692905E+03  0.22472692905E+03  0.00000000000E+00 0.  1.
         13   -1    0    0    0    0 -0.00000000000E+00 -0.00000000000E+00 -0.27500000000E+03  0.27500000000E+03  0.00000000000E+00 0.  1.
    9000005    2    1    2  501    0 -0.12700692800E+02  0.30028605714E+02 -0.68248588050E+02  0.46249597454E+03  0.45626925377E+03 0.  0.
         13    1    3    3    0    0 -0.20515480273E+03  0.55612762022E+02 -0.14110230347E+03  0.25512963847E+03  0.00000000000E+00 0.  1.
          3    1    3    3  501    0  0.19245410993E+03 -0.25584156308E+02  0.72853715423E+02  0.20736633607E+03  0.00000000000E+00 0.  1.
         21    1    1    2  502  501  0.12700692800E+02 -0.30028605714E+02  0.17975517097E+02  0.37230954509E+02  0.00000000000E+00 0. -1.
<scales pt_clust_4="550.00000" pt_clust_5="550.00000" pt_clust_6="32.60406"></scales>
<mgrwt>
<rscale>  0 0.30000000E+03</rscale>
<asrwt>  1 0.32604060E+02</asrwt>
<pdfrwt beam="1">  1        1 0.81718883E+00 0.30000000E+03</pdfrwt>
<pdfrwt beam="2">0</pdfrwt>
<totfact> 0.77422478E-04</totfact>
</mgrwt>
<clustering>
<clus scale="   32.604">  1  6  2 -1</clus>
<clus scale="  456.269">  4  5 -1 -1</clus>
<clus scale="  300.000">  1  4  2 -1</clus>
</clustering>
</event>
<event>
 6    1  0.9462926E-012  0.3000000E+03  0.7818608E-02  0.1093470E+00
          1   -1    0    0  502    0  0.00000000000E+00  0.00000000000E+00  0.23021255268E+03  0.23021255268E+03  0.00000000000E+00 0.  1.
         13   -1    0    0    0    0 -0.00000000000E+00 -0.00000000000E+00 -0.27500000000E+03  0.27500000000E+03  0.00000000000E+00 0.  1.
    9000005    2    1    2  501    0  0.31531082526E+02  0.86009279973E+01 -0.66896293257E+02  0.46575388828E+03  0.45976448892E+03 0.  0.
         13    1    3    3    0    0  0.24577569727E+03  0.12880803179E+02 -0.46833207062E+02  0.25052935505E+03  0.00000000000E+00 0.  1.
          3    1    3    3  501    0 -0.21424461474E+03 -0.42798751818E+01 -0.20063086195E+02  0.21522453323E+03  0.00000000000E+00 0.  1.
         21    1    1    2  502  501 -0.31531082526E+02 -0.86009279973E+01  0.22108845941E+02  0.39458664404E+02  0.00000000000E+00 0.  1.
<scales pt_clust_4="550.00000" pt_clust_5="550.00000" pt_clust_6="32.68310"></scales>
<mgrwt>
<rscale>  0 0.30000000E+03</rscale>
<asrwt>  1 0.32683102E+02</asrwt>
<pdfrwt beam="1">  1        1 0.83713656E+00 0.30000000E+03</pdfrwt>
<pdfrwt beam="2">0</pdfrwt>
<totfact> 0.52876738E-04</totfact>
</mgrwt>
<clustering>
<clus scale="   32.683">  1  6  2 -1</clus>
<clus scale="  459.764">  4  5 -1 -1</clus>
<clus scale="  300.000">  1  4  2 -1</clus>
</clustering>
</event>
<event>
 6    1  0.9462926E-012  0.3000000E+03  0.7818608E-02  0.1093470E+00
          1   -1    0    0  502    0  0.00000000000E+00  0.00000000000E+00  0.24433709854E+03  0.24433709854E+03  0.00000000000E+00 0.  1.
         13   -1    0    0    0    0 -0.00000000000E+00 -0.00000000000E+00 -0.27500000000E+03  0.27500000000E+03  0.00000000000E+00 0.  1.
    9000005    2    1    2  501    0  0.24015918748E+02  0.21101961729E+02 -0.44940490448E+02  0.48432414823E+03  0.48117374797E+03 0.  0.
         13    1    3    3    0    0 -0.94673039218E+02  0.75595148849E+02  0.18426316149E+03  0.22052329484E+03  0.00000000000E+00 0.  1.
          1    1    3    3  501    0  0.11868895797E+03 -0.54493187120E+02 -0.22920365194E+03  0.26380085339E+03  0.00000000000E+00 0.  1.
         21    1    1    2  502  501 -0.24015918748E+02 -0.21101961729E+02  0.14277588992E+02  0.35012950312E+02  0.00000000000E+00 0. -1.
<scales pt_clust_4="550.00000" pt_clust_5="550.00000" pt_clust_6="31.96963"></scales>
<mgrwt>
<rscale>  0 0.30000000E+03</rscale>
<asrwt>  1 0.31969628E+02</asrwt>
<pdfrwt beam="1">  1        1 0.88849854E+00 0.30000000E+03</pdfrwt>
<pdfrwt beam="2">0</pdfrwt>
<totfact> 0.15450260E-04</totfact>
</mgrwt>
<clustering>
<clus scale="   31.970">  1  6  2 -1</clus>
<clus scale="  481.174">  4  5 -1 -1</clus>
<clus scale="  300.000">  1  4  2 -1</clus>
</clustering>
</event>
<event>
 6    1  0.9462926E-012  0.3000000E+03  0.7818608E-02  0.1093470E+00
          1   -1    0    0  502    0  0.00000000000E+00  0.00000000000E+00  0.22904996056E+03  0.22904996056E+03  0.00000000000E+00 0.  1.
         13   -1    0    0    0    0 -0.00000000000E+00 -0.00000000000E+00 -0.27500000000E+03  0.27500000000E+03  0.00000000000E+00 0.  1.
    9000005    2    1    2  501    0  0.22299070235E+02  0.20843223412E+02 -0.67793077496E+02  0.46651588528E+03  0.46055345115E+03 0.  0.
         13    1    3    3    0    0  0.15131689624E+02  0.56590200882E+02  0.19376656569E+03  0.20242751998E+03  0.00000000000E+00 0.  1.
          3    1    3    3  501    0  0.71673806105E+01 -0.35746977470E+02 -0.26155964319E+03  0.26408836530E+03  0.00000000000E+00 0.  1.
         21    1    1    2  502  501 -0.22299070235E+02 -0.20843223412E+02  0.21843038060E+02  0.37534075282E+02  0.00000000000E+00 0.  1.
<scales pt_clust_4="550.00000" pt_clust_5="550.00000" pt_clust_6="30.52357"></scales>
<mgrwt>
<rscale>  0 0.30000000E+03</rscale>
<asrwt>  1 0.30523573E+02</asrwt>
<pdfrwt beam="1">  1        1 0.83290895E+00 0.30000000E+03</pdfrwt>
<pdfrwt beam="2">0</pdfrwt>
<totfact> 0.57536879E-04</totfact>
</mgrwt>
<clustering>
<clus scale="   30.524">  1  6  2 -1</clus>
<clus scale="  460.553">  4  5 -1 -1</clus>
<clus scale="  300.000">  1  4  2 -1</clus>
</clustering>
</event>
<event>
 6    1  0.9462926E-012  0.3000000E+03  0.7818608E-02  0.1093470E+00
          1   -1    0    0  502    0  0.00000000000E+00  0.00000000000E+00  0.24320668535E+03  0.24320668535E+03  0.00000000000E+00 0.  1.
         13   -1    0    0    0    0 -0.00000000000E+00 -0.00000000000E+00 -0.27500000000E+03  0.27500000000E+03  0.00000000000E+00 0.  1.
    9000005    2    1    2  501    0 -0.26658010146E+02  0.41134081095E+02 -0.42069526142E+02  0.46812412696E+03  0.46364608386E+03 0.  0.
         13    1    3    3    0    0 -0.72939161989E+01 -0.13956282777E+03 -0.18855889982E+03  0.23470288198E+03  0.00000000000E+00 0.  1.
          1    1    3    3  501    0 -0.19364093947E+02  0.18069690886E+03  0.14648937368E+03  0.23342124498E+03  0.00000000000E+00 0.  1.
         21    1    1    2  502  501  0.26658010146E+02 -0.41134081095E+02  0.10276211492E+02  0.50082558392E+02  0.00000000000E+00 0. -1.
<scales pt_clust_4="550.00000" pt_clust_5="550.00000" pt_clust_6="49.01696"></scales>
<mgrwt>
<rscale>  0 0.30000000E+03</rscale>
<asrwt>  1 0.49016958E+02</asrwt>
<pdfrwt beam="1">  1        1 0.88438795E+00 0.30000000E+03</pdfrwt>
<pdfrwt beam="2">0</pdfrwt>
<totfact> 0.16275194E-04</totfact>
</mgrwt>
<clustering>
<clus scale="   49.017">  1  6  2 -1</clus>
<clus scale="  463.646">  4  5 -1 -1</clus>
<clus scale="  300.000">  1  4  2 -1</clus>
</clustering>
</event>
<event>
 6    1  0.9462926E-012  0.3000000E+03  0.7818608E-02  0.1093470E+00
          1   -1    0    0  502    0  0.00000000000E+00  0.00000000000E+00  0.24084596218E+03  0.24084596218E+03  0.00000000000E+00 0.  1.
         13   -1    0    0    0    0 -0.00000000000E+00 -0.00000000000E+00 -0.27500000000E+03  0.27500000000E+03  0.00000000000E+00 0.  1.
    9000005    2    1    2  501    0 -0.58985224134E+01 -0.33200168780E+02 -0.61081317039E+02  0.47269364892E+03  0.46751611166E+03 0.  0.
         13    1    3    3    0    0 -0.12845201486E+03  0.16905028528E+03  0.39063554790E+02  0.21587931904E+03  0.00000000000E+00 0.  1.
          3    1    3    3  501    0  0.12255349244E+03 -0.20225045406E+03 -0.10014487183E+03  0.25681432988E+03  0.00000000000E+00 0.  1.
         21    1    1    2  502  501  0.58985224134E+01  0.33200168780E+02  0.26927279221E+02  0.43152313263E+02  0.00000000000E+00 0.  1.
<scales pt_clust_4="550.00000" pt_clust_5="550.00000" pt_clust_6="33.72008"></scales>
<mgrwt>
<rscale>  0 0.30000000E+03</rscale>
<asrwt>  1 0.33720080E+02</asrwt>
<pdfrwt beam="1">  1        1 0.87580350E+00 0.30000000E+03</pdfrwt>
<pdfrwt beam="2">0</pdfrwt>
<totfact> 0.22207887E-04</totfact>
</mgrwt>
<clustering>
<clus scale="   33.720">  1  6  2 -1</clus>
<clus scale="  467.516">  4  5 -1 -1</clus>
<clus scale="  300.000">  1  4  2 -1</clus>
</clustering>
</event>
<event>
 6    1  0.9462926E-012  0.3000000E+03  0.7818608E-02  0.1093470E+00
          1   -1    0    0  502    0  0.00000000000E+00  0.00000000000E+00  0.24007598485E+03  0.24007598485E+03  0.00000000000E+00 0.  1.
         13   -1    0    0    0    0 -0.00000000000E+00 -0.00000000000E+00 -0.27500000000E+03  0.27500000000E+03  0.00000000000E+00 0.  1.
    9000005    2    1    2  501    0  0.26084126359E+02  0.23938663168E+02 -0.46213970791E+02  0.47791546358E+03  0.47435642506E+03 0.  0.
         13    1    3    3    0    0  0.10484717737E+02 -0.11564313821E+03 -0.22342387638E+03  0.25179653146E+03  0.00000000000E+00 0.  1.
          1    1    3    3  501    0  0.15599408621E+02  0.13958180138E+03  0.17720990558E+03  0.22611893212E+03  0.00000000000E+00 0.  1.
         21    1    1    2  502  501 -0.26084126359E+02 -0.23938663168E+02  0.11289955636E+02  0.37160521261E+02  0.00000000000E+00 0.  1.
<scales pt_clust_4="550.00000" pt_clust_5="550.00000" pt_clust_6="35.40397"></scales>
<mgrwt>
<rscale>  0 0.30000000E+03</rscale>
<asrwt>  1 0.35403972E+02</asrwt>
<pdfrwt beam="1">  1        1 0.87300358E+00 0.30000000E+03</pdfrwt>
<pdfrwt beam="2">0</pdfrwt>
<totfact> 0.23545506E-04</totfact>
</mgrwt>
<clustering>
<clus scale="   35.404">  1  6  2 -1</clus>
<clus scale="  474.356">  4  5 -1 -1</clus>
<clus scale="  300.000">  1  4  2 -1</clus>
</clustering>
</event>
<event>
 6    1  0.9462926E-012  0.3000000E+03  0.7818608E-02  0.1093470E+00
          1   -1    0    0  502    0  0.00000000000E+00  0.00000000000E+00  0.24448629406E+03  0.24448629406E+03  0.00000000000E+00 0.  1.
         13   -1    0    0    0    0 -0.00000000000E+00 -0.00000000000E+00 -0.27500000000E+03  0.27500000000E+03  0.00000000000E+00 0.  1.
    9000005    2    1    2  501    0  0.43701878935E+01 -0.31393863209E+02 -0.36454474669E+02  0.48723779142E+03  0.48483715150E+03 0.  0.
         13    1    3    3    0    0 -0.10139195277E+03  0.18048420821E+03 -0.11615827744E+03  0.23737654248E+03  0.00000000000E+00 0.  1.
          3    1    3    3  501    0  0.10576214067E+03 -0.21187807142E+03  0.79703802775E+02  0.24986124894E+03  0.00000000000E+00 0.  1.
         21    1    1    2  502  501 -0.43701878935E+01  0.31393863209E+02  0.59407687247E+01  0.32248502639E+02  0.00000000000E+00 0. -1.
<scales pt_clust_4="550.00000" pt_clust_5="550.00000" pt_clust_6="31.69658"></scales>
<mgrwt>
<rscale>  0 0.30000000E+03</rscale>
<asrwt>  1 0.31696580E+02</asrwt>
<pdfrwt beam="1">  1        1 0.88904107E+00 0.30000000E+03</pdfrwt>
<pdfrwt beam="2">0</pdfrwt>
<totfact> 0.15214386E-04</totfact>
</mgrwt>
<clustering>
<clus scale="   31.697">  1  6  2 -1</clus>
<clus scale="  484.837">  4  5 -1 -1</clus>
<clus scale="  300.000">  1  4  2 -1</clus>
</clustering>
</event>
<event>
 6    1  0.9462926E-012  0.3000000E+03  0.7818608E-02  0.1093470E+00
          1   -1    0    0  502    0  0.00000000000E+00  0.00000000000E+00  0.23303336018E+03  0.23303336018E+03  0.00000000000E+00 0.  1.
         13   -1    0    0    0    0 -0.00000000000E+00 -0.00000000000E+00 -0.27500000000E+03  0.27500000000E+03  0.00000000000E+00 0.  1.
    9000005    2    1    2  501    0 -0.29657189536E+02 -0.11861504972E+02 -0.54793789148E+02  0.47361272754E+03  0.46934679307E+03 0.  0.
         13    1    3    3    0    0  0.19408269343E+03  0.10209705533E+03 -0.22315905247E+02  0.22043116890E+03  0.00000000000E+00 0.  1.
          3    1    3    3  501    0 -0.22373988296E+03 -0.11395856030E+03 -0.32477883901E+02  0.25318155864E+03  0.00000000000E+00 0.  1.
         21    1    1    2  502  501  0.29657189536E+02  0.11861504972E+02  0.12827149328E+02  0.34420632639E+02  0.00000000000E+00 0. -1.
<scales pt_clust_4="550.00000" pt_clust_5="550.00000" pt_clust_6="31.94126"></scales>
<mgrwt>
<rscale>  0 0.30000000E+03</rscale>
<asrwt>  1 0.31941262E+02</asrwt>
<pdfrwt beam="1">  1        1 0.84739404E+00 0.30000000E+03</pdfrwt>
<pdfrwt beam="2">0</pdfrwt>
<totfact> 0.43765568E-04</totfact>
</mgrwt>
<clustering>
<clus scale="   31.941">  1  6  2 -1</clus>
<clus scale="  469.347">  4  5 -1 -1</clus>
<clus scale="  300.000">  1  4  2 -1</clus>
</clustering>
</event>
<event>
 6    1  0.9462926E-012  0.3000000E+03  0.7818608E-02  0.1093470E+00
          1   -1    0    0  502    0  0.00000000000E+00  0.00000000000E+00  0.25051431268E+03  0.25051431268E+03  0.00000000000E+00 0.  1.
         13   -1    0    0    0    0 -0.00000000000E+00 -0.00000000000E+00 -0.27500000000E+03  0.27500000000E+03  0.00000000000E+00 0.  1.
    9000005    2    1    2  501    0 -0.18717269763E+02  0.25974987049E+02 -0.45994961798E+02  0.48694379249E+03  0.48370826372E+03 0.  0.
         13    1    3    3    0    0  0.17802747830E+03 -0.52984357835E+02 -0.16095730555E+03  0.24578116164E+03  0.00000000000E+00 0.  1.
          1    1    3    3  501    0 -0.19674474807E+03  0.78959344884E+02  0.11496234375E+03  0.24116263085E+03  0.00000000000E+00 0.  1.
         21    1    1    2  502  501  0.18717269763E+02 -0.25974987049E+02  0.21509274480E+02  0.38570520197E+02  0.00000000000E+00 0.  1.
<scales pt_clust_4="550.00000" pt_clust_5="550.00000" pt_clust_6="32.01619"></scales>
<mgrwt>
<rscale>  0 0.30000000E+03</rscale>
<asrwt>  1 0.32016186E+02</asrwt>
<pdfrwt beam="1">  1        1 0.91096114E+00 0.30000000E+03</pdfrwt>
<pdfrwt beam="2">0</pdfrwt>
<totfact> 0.69206411E-05</totfact>
</mgrwt>
<clustering>
<clus scale="   32.016">  1  6  2 -1</clus>
<clus scale="  483.708">  4  5 -1 -1</clus>
<clus scale="  300.000">  1  4  2 -1</clus>
</clustering>
</event>
<event>
 6    1  0.9462926E-012  0.3000000E+03  0.7818608E-02  0.1093470E+00
          1   -1    0    0  502    0  0.00000000000E+00  0.00000000000E+00  0.24608863346E+03  0.24608863346E+03  0.00000000000E+00 0.  1.
         13   -1    0    0    0    0 -0.00000000000E+00 -0.00000000000E+00 -0.27500000000E+03  0.27500000000E+03  0.00000000000E+00 0.  1.
    9000005    2    1    2  501    0  0.33843183855E+02  0.23858791766E+02 -0.15996015160E+02  0.47771341773E+03  0.47564654308E+03 0.  0.
         13    1    3    3    0    0  0.13176614728E+03  0.83048391742E+02 -0.20458524368E+03  0.25712735147E+03  0.00000000000E+00 0.  1.
          1    1    3    3  501    0 -0.97922963429E+02 -0.59189599976E+02  0.18858922852E+03  0.22058606626E+03  0.00000000000E+00 0.  1.
         21    1    1    2  502  501 -0.33843183855E+02 -0.23858791766E+02 -0.12915351383E+02  0.43375215726E+02  0.00000000000E+00 0.  1.
<scales pt_clust_4="550.00000" pt_clust_5="550.00000" pt_clust_6="41.40779"></scales>
<mgrwt>
<rscale>  0 0.30000000E+03</rscale>
<asrwt>  1 0.41407786E+02</asrwt>
<pdfrwt beam="1">  1        1 0.89486776E+00 0.30000000E+03</pdfrwt>
<pdfrwt beam="2">0</pdfrwt>
<totfact> 0.12266690E-04</totfact>
</mgrwt>
<clustering>
<clus scale="   41.408">  1  6  2 -1</clus>
<clus scale="  475.647">  4  5 -1 -1</clus>
<clus scale="  300.000">  1  4  2 -1</clus>
</clustering>
</event>
