<event>
 6    1  0.3848910E-003  0.6543224E+03  0.7818608E-02  0.9798702E-01
          1   -1    0    0  502    0  0.00000000000E+00  0.00000000000E+00  0.10720103950E+03  0.10720103950E+03  0.00000000000E+00 0.  1.
         13   -1    0    0    0    0 -0.00000000000E+00 -0.00000000000E+00 -0.10000000000E+04  0.10000000000E+04  0.00000000000E+00 0.  1.
    9000005    2    1    2  501    0 -0.96485293155E-01 -0.23964843250E+00 -0.89284643488E+03  0.11069383713E+04  0.65432234775E+03 0.  0.
         13    1    3    3    0    0 -0.18750404604E+03  0.24658127544E+02 -0.89811514048E+03  0.91781076268E+03  0.00000000000E+00 0.  1.
          3    1    3    3  501    0  0.18740756074E+03 -0.24897775977E+02  0.52687055923E+01  0.18912760859E+03  0.00000000000E+00 0.  1.
         21    1    1    2  502  501  0.96485293155E-01  0.23964843250E+00  0.47474382082E-01  0.26266823171E+00  0.00000000000E+00 0.  1.
<mgrwt>
<rscale>  1 0.65432240E+03</rscale>
<asrwt>0</asrwt>
<pdfrwt beam="1">  1        1 0.38982278E+00 0.65432240E+03</pdfrwt>
<pdfrwt beam="2">0</pdfrwt>
<totfact> 0.14835634E+00</totfact>
</mgrwt>
</event>
<event>
 6    1  0.3848910E-003  0.6621642E+03  0.7818608E-02  0.9784218E-01
          3   -1    0    0  502    0  0.00000000000E+00  0.00000000000E+00  0.10981160128E+03  0.10981160128E+03  0.00000000000E+00 0.  1.
         13   -1    0    0    0    0 -0.00000000000E+00 -0.00000000000E+00 -0.10000000000E+04  0.10000000000E+04  0.00000000000E+00 0.  1.
    9000005    2    1    2  501    0 -0.45043507275E+00 -0.29233928619E+00 -0.88981178823E+03  0.11091557130E+04  0.66216394403E+03 0.  0.
         13    1    3    3    0    0 -0.26953773050E+03 -0.81187249008E+02 -0.15257748366E+03  0.32019032791E+03  0.00000000000E+00 0.  1.
          3    1    3    3  501    0  0.26908729543E+03  0.80894909722E+02 -0.73723430457E+03  0.78896538506E+03  0.00000000000E+00 0.  1.
         21    1    1    2  502  501  0.45043507275E+00  0.29233928619E+00 -0.37661049550E+00  0.65588831239E+00  0.00000000000E+00 0.  1.
<mgrwt>
<rscale>  1 0.66216416E+03</rscale>
<asrwt>0</asrwt>
<pdfrwt beam="1">  1        3 0.39931576E+00 0.66216416E+03</pdfrwt>
<pdfrwt beam="2">0</pdfrwt>
<totfact> 0.59606251E-02</totfact>
</mgrwt>
</event>
<event>
 6    1  0.3848910E-003  0.6873856E+03  0.7818608E-02  0.9739051E-01
          1   -1    0    0  502    0  0.00000000000E+00  0.00000000000E+00  0.11824673387E+03  0.11824673387E+03  0.00000000000E+00 0.  1.
         13   -1    0    0    0    0 -0.00000000000E+00 -0.00000000000E+00 -0.10000000000E+04  0.10000000000E+04  0.00000000000E+00 0.  1.
    9000005    2    1    2  501    0 -0.12517734491E-02  0.25218468100E-02 -0.88187523228E+03  0.11181247352E+04  0.68738562555E+03 0.  0.
         13    1    3    3    0    0  0.12259073419E+03 -0.16662598918E+03  0.55187956848E+01  0.20693758838E+03  0.00000000000E+00 0.  1.
          3    1    3    3  501    0 -0.12259198597E+03  0.16662851103E+03 -0.88739402796E+03  0.91118714685E+03  0.00000000000E+00 0.  1.
         21    1    1    2  502  501  0.12517734491E-02 -0.25218468100E-02  0.12196614759E+00  0.12199863854E+00  0.00000000000E+00 0.  1.
<mgrwt>
<rscale>  1 0.68738563E+03</rscale>
<asrwt>0</asrwt>
<pdfrwt beam="1">  1        1 0.42998903E+00 0.68738563E+03</pdfrwt>
<pdfrwt beam="2">0</pdfrwt>
<totfact> 0.97357839E-01</totfact>
</mgrwt>
</event>
<event>
 6    1  0.3848910E-003  0.6618426E+03  0.7818608E-02  0.9784808E-01
          1   -1    0    0  502    0  0.00000000000E+00  0.00000000000E+00  0.10951165453E+03  0.10951165453E+03  0.00000000000E+00 0.  1.
         13   -1    0    0    0    0 -0.00000000000E+00 -0.00000000000E+00 -0.10000000000E+04  0.10000000000E+04  0.00000000000E+00 0.  1.
    9000005    2    1    2  501    0 -0.99955022193E-04  0.11916118899E-03 -0.89049107933E+03  0.11095089163E+04  0.66184263453E+03 0.  0.
         13    1    3    3    0    0 -0.59602695718E+02 -0.27500070740E+03 -0.73720294166E+03  0.78907924038E+03  0.00000000000E+00 0.  1.
          3    1    3    3  501    0  0.59602595763E+02  0.27500082656E+03 -0.15328813767E+03  0.32042967587E+03  0.00000000000E+00 0.  1.
         21    1    1    2  502  501  0.99955022188E-04 -0.11916118897E-03  0.27338612987E-02  0.27382819423E-02  0.00000000000E+00 0.  1.
<mgrwt>
<rscale>  1 0.66184263E+03</rscale>
<asrwt>0</asrwt>
<pdfrwt beam="1">  1        1 0.39822504E+00 0.66184263E+03</pdfrwt>
<pdfrwt beam="2">0</pdfrwt>
<totfact> 0.13594235E+00</totfact>
</mgrwt>
</event>
<event>
 6    1  0.3848910E-003  0.6568326E+03  0.7818608E-02  0.9794042E-01
          1   -1    0    0  502    0  0.00000000000E+00  0.00000000000E+00  0.10788994321E+03  0.10788994321E+03  0.00000000000E+00 0.  1.
         13   -1    0    0    0    0 -0.00000000000E+00 -0.00000000000E+00 -0.10000000000E+04  0.10000000000E+04  0.00000000000E+00 0.  1.
    9000005    2    1    2  501    0 -0.61221577221E-03 -0.44573048444E-03 -0.89214272161E+03  0.11078572696E+04  0.65683262259E+03 0.  0.
         13    1    3    3    0    0  0.16174112252E+02  0.32801403590E+03 -0.44350877028E+03  0.55186487384E+03  0.00000000000E+00 0.  1.
          3    1    3    3  501    0 -0.16174724468E+02 -0.32801448163E+03 -0.44863395133E+03  0.55599239577E+03  0.00000000000E+00 0.  1.
         21    1    1    2  502  501  0.61221577221E-03  0.44573048445E-03  0.32664822770E-01  0.32673599900E-01  0.00000000000E+00 0. -1.
<mgrwt>
<rscale>  1 0.65683262E+03</rscale>
<asrwt>0</asrwt>
<pdfrwt beam="1">  1        1 0.39232789E+00 0.65683262E+03</pdfrwt>
<pdfrwt beam="2">0</pdfrwt>
<totfact> 0.14453992E+00</totfact>
</mgrwt>
</event>
<event>
 6    1  0.3848910E-003  0.6332256E+03  0.7818608E-02  0.9838774E-01
          1   -1    0    0  502    0  0.00000000000E+00  0.00000000000E+00  0.10138343119E+03  0.10138343119E+03  0.00000000000E+00 0.  1.
         13   -1    0    0    0    0 -0.00000000000E+00 -0.00000000000E+00 -0.10000000000E+04  0.10000000000E+04  0.00000000000E+00 0.  1.
    9000005    2    1    2  501    0  0.13171674788E-01 -0.81439172388E-02 -0.89975626791E+03  0.11002436269E+04  0.63322562853E+03 0.  0.
         13    1    3    3    0    0 -0.15240695665E+03 -0.97948700621E+02 -0.90103148407E+03  0.91906450463E+03  0.00000000000E+00 0.  1.
          1    1    3    3  501    0  0.15242012833E+03  0.97940556703E+02  0.12752161594E+01  0.18117912226E+03  0.00000000000E+00 0.  1.
         21    1    1    2  502  501 -0.13171674788E-01  0.81439172388E-02  0.11396990952E+01  0.11398043008E+01  0.00000000000E+00 0.  1.
<mgrwt>
<rscale>  1 0.63322563E+03</rscale>
<asrwt>0</asrwt>
<pdfrwt beam="1">  1        1 0.36866780E+00 0.63322563E+03</pdfrwt>
<pdfrwt beam="2">0</pdfrwt>
<totfact> 0.18462984E+00</totfact>
</mgrwt>
</event>
<event>
 6    1  0.3848910E-003  0.6387516E+03  0.7818608E-02  0.9828118E-01
          1   -1    0    0  502    0  0.00000000000E+00  0.00000000000E+00  0.11523147967E+03  0.11523147967E+03  0.00000000000E+00 0.  1.
         13   -1    0    0    0    0 -0.00000000000E+00 -0.00000000000E+00 -0.10000000000E+04  0.10000000000E+04  0.00000000000E+00 0.  1.
    9000005    2    1    2  501    0  0.66238373053E+01 -0.16557829852E+01 -0.89702161037E+03  0.11012045394E+04  0.63871515661E+03 0.  0.
         13    1    3    3    0    0 -0.43805493893E+02 -0.35951759562E+02  0.93216270623E+02  0.10909043688E+03  0.00000000000E+00 0.  1.
          3    1    3    3  501    0  0.50429331198E+02  0.34295976577E+02 -0.99023788099E+03  0.99211410251E+03  0.00000000000E+00 0.  1.
         21    1    1    2  502  501 -0.66238373053E+01  0.16557829852E+01  0.12253090039E+02  0.14026940274E+02  0.00000000000E+00 0.  1.
<mgrwt>
<rscale>  1 0.63875165E+03</rscale>
<asrwt>0</asrwt>
<pdfrwt beam="1">  1        1 0.41902445E+00 0.63875165E+03</pdfrwt>
<pdfrwt beam="2">0</pdfrwt>
<totfact> 0.11018588E+00</totfact>
</mgrwt>
</event>
<event>
 6    1  0.3848910E-003  0.6857911E+03  0.7818608E-02  0.9741845E-01
          1   -1    0    0  502    0  0.00000000000E+00  0.00000000000E+00  0.11757745748E+03  0.11757745748E+03  0.00000000000E+00 0.  1.
         13   -1    0    0    0    0 -0.00000000000E+00 -0.00000000000E+00 -0.10000000000E+04  0.10000000000E+04  0.00000000000E+00 0.  1.
    9000005    2    1    2  501    0 -0.14355256241E-04  0.27383948321E-04 -0.88242264825E+03  0.11175773473E+04  0.68579107394E+03 0.  0.
         13    1    3    3    0    0 -0.24105534205E+03  0.24332665599E+03 -0.41484273950E+03  0.53796843584E+03  0.00000000000E+00 0.  1.
          3    1    3    3  501    0  0.24105532769E+03 -0.24332662861E+03 -0.46757990875E+03  0.57960891148E+03  0.00000000000E+00 0.  1.
         21    1    1    2  502  501  0.14355256239E-04 -0.27383948318E-04  0.10573097706E-03  0.11015894661E-03  0.00000000000E+00 0.  1.
<mgrwt>
<rscale>  1 0.68579107E+03</rscale>
<asrwt>0</asrwt>
<pdfrwt beam="1">  1        1 0.42755529E+00 0.68579107E+03</pdfrwt>
<pdfrwt beam="2">0</pdfrwt>
<totfact> 0.99897834E-01</totfact>
</mgrwt>
</event>
<event>
 6    1  0.3848910E-003  0.6446815E+03  0.7818608E-02  0.9816811E-01
          1   -1    0    0  502    0  0.00000000000E+00  0.00000000000E+00  0.10428201365E+03  0.10428201365E+03  0.00000000000E+00 0.  1.
         13   -1    0    0    0    0 -0.00000000000E+00 -0.00000000000E+00 -0.10000000000E+04  0.10000000000E+04  0.00000000000E+00 0.  1.
    9000005    2    1    2  501    0  0.64613256312E-02 -0.26420840913E-01 -0.89609591524E+03  0.11039031073E+04  0.64468145634E+03 0.  0.
         13    1    3    3    0    0  0.12412325161E+03  0.22701404529E+02  0.59856302205E+02  0.13965927205E+03  0.00000000000E+00 0.  1.
          3    1    3    3  501    0 -0.12411679028E+03 -0.22727825370E+02 -0.95595221745E+03  0.96424383520E+03  0.00000000000E+00 0.  1.
         21    1    1    2  502  501 -0.64613256312E-02  0.26420840913E-01  0.37792889642E+00  0.37890640047E+00  0.00000000000E+00 0. -1.
<mgrwt>
<rscale>  1 0.64468146E+03</rscale>
<asrwt>0</asrwt>
<pdfrwt beam="1">  1        1 0.37920812E+00 0.64468146E+03</pdfrwt>
<pdfrwt beam="2">0</pdfrwt>
<totfact> 0.16558426E+00</totfact>
</mgrwt>
</event>
<event>
 6    1  0.3848910E-003  0.6578111E+03  0.7818608E-02  0.9792232E-01
          1   -1    0    0  502    0  0.00000000000E+00  0.00000000000E+00  0.10817887456E+03  0.10817887456E+03  0.00000000000E+00 0.  1.
         13   -1    0    0    0    0 -0.00000000000E+00 -0.00000000000E+00 -0.10000000000E+04  0.10000000000E+04  0.00000000000E+00 0.  1.
    9000005    2    1    2  501    0  0.24080100616E-04 -0.64497213828E-05 -0.89182113229E+03  0.11081788487E+04  0.65781108893E+03 0.  0.
         13    1    3    3    0    0 -0.18528336215E+03 -0.12358805660E+03 -0.38188203555E+02  0.22596962387E+03  0.00000000000E+00 0.  1.
          1    1    3    3  501    0  0.18528338623E+03  0.12358805015E+03 -0.85363292874E+03  0.88220922483E+03  0.00000000000E+00 0.  1.
         21    1    1    2  502  501 -0.24080100596E-04  0.64497213705E-05  0.68570313067E-05  0.25854768009E-04  0.00000000000E+00 0. -1.
<mgrwt>
<rscale>  1 0.65781109E+03</rscale>
<asrwt>0</asrwt>
<pdfrwt beam="1">  1        1 0.39337856E+00 0.65781109E+03</pdfrwt>
<pdfrwt beam="2">0</pdfrwt>
<totfact> 0.14296910E+00</totfact>
</mgrwt>
</event>
<event>
 6    1  0.3848910E-003  0.6428528E+03  0.7818608E-02  0.9820284E-01
          1   -1    0    0  502    0  0.00000000000E+00  0.00000000000E+00  0.10350704687E+03  0.10350704687E+03  0.00000000000E+00 0.  1.
         13   -1    0    0    0    0 -0.00000000000E+00 -0.00000000000E+00 -0.10000000000E+04  0.10000000000E+04  0.00000000000E+00 0.  1.
    9000005    2    1    2  501    0 -0.17111818544E+00 -0.34716764629E+00 -0.89644093721E+03  0.11031165184E+04  0.64285266548E+03 0.  0.
         13    1    3    3    0    0  0.26194032556E+03 -0.17177999623E+03 -0.32441019482E+03  0.45095795343E+03  0.00000000000E+00 0.  1.
          3    1    3    3  501    0 -0.26211144374E+03  0.17143282859E+03 -0.57203074239E+03  0.65215856499E+03  0.00000000000E+00 0.  1.
         21    1    1    2  502  501  0.17111818544E+00  0.34716764629E+00 -0.52015927925E-01  0.39052844298E+00  0.00000000000E+00 0. -1.
<mgrwt>
<rscale>  1 0.64285278E+03</rscale>
<asrwt>0</asrwt>
<pdfrwt beam="1">  1        1 0.37639006E+00 0.64285278E+03</pdfrwt>
<pdfrwt beam="2">0</pdfrwt>
<totfact> 0.17044542E+00</totfact>
</mgrwt>
</event>
<event>
 6    1  0.3848910E-003  0.6410604E+03  0.7818608E-02  0.9823700E-01
          1   -1    0    0  502    0  0.00000000000E+00  0.00000000000E+00  0.10359064642E+03  0.10359064642E+03  0.00000000000E+00 0.  1.
         13   -1    0    0    0    0 -0.00000000000E+00 -0.00000000000E+00 -0.10000000000E+04  0.10000000000E+04  0.00000000000E+00 0.  1.
    9000005    2    1    2  501    0 -0.56668092953E+00  0.66400259062E+00 -0.89700645579E+03  0.11025330275E+04  0.64105985133E+03 0.  0.
         13    1    3    3    0    0  0.31474071757E+03 -0.44186687381E+02 -0.51504559060E+03  0.60521578221E+03  0.00000000000E+00 0.  1.
          3    1    3    3  501    0 -0.31530739849E+03  0.44850689972E+02 -0.38196086519E+03  0.49731724530E+03  0.00000000000E+00 0.  1.
         21    1    1    2  502  501  0.56668092953E+00 -0.66400259062E+00  0.59710220725E+00  0.10576189116E+01  0.00000000000E+00 0.  1.
<mgrwt>
<rscale>  1 0.64106045E+03</rscale>
<asrwt>0</asrwt>
<pdfrwt beam="1">  1        1 0.37669405E+00 0.64106045E+03</pdfrwt>
<pdfrwt beam="2">0</pdfrwt>
<totfact> 0.16997664E+00</totfact>
</mgrwt>
</event>
<event>
 6    1  0.3848910E-003  0.6543953E+03  0.7818608E-02  0.9798566E-01
          1   -1    0    0  502    0  0.00000000000E+00  0.00000000000E+00  0.10705915602E+03  0.10705915602E+03  0.00000000000E+00 0.  1.
         13   -1    0    0    0    0 -0.00000000000E+00 -0.00000000000E+00 -0.10000000000E+04  0.10000000000E+04  0.00000000000E+00 0.  1.
    9000005    2    1    2  501    0  0.33857869892E-03  0.61487798411E-03 -0.89294153169E+03  0.11070581733E+04  0.65439530876E+03 0.  0.
         13    1    3    3    0    0  0.89599389533E+01  0.32657270702E+03 -0.47713279733E+03  0.57826094436E+03  0.00000000000E+00 0.  1.
          1    1    3    3  501    0 -0.89596003746E+01 -0.32657209214E+03 -0.41580873436E+03  0.52879722898E+03  0.00000000000E+00 0.  1.
         21    1    1    2  502  501 -0.33857869892E-03 -0.61487798411E-03  0.68771162816E-03  0.98267886627E-03  0.00000000000E+00 0.  1.
<mgrwt>
<rscale>  1 0.65439531E+03</rscale>
<asrwt>0</asrwt>
<pdfrwt beam="1">  1        1 0.38930684E+00 0.65439531E+03</pdfrwt>
<pdfrwt beam="2">0</pdfrwt>
<totfact> 0.14913782E+00</totfact>
</mgrwt>
</event>
<event>
 6    1  0.3848910E-003  0.6416350E+03  0.7818608E-02  0.9822603E-01
          1   -1    0    0  502    0  0.00000000000E+00  0.00000000000E+00  0.10306985392E+03  0.10306985392E+03  0.00000000000E+00 0.  1.
         13   -1    0    0    0    0 -0.00000000000E+00 -0.00000000000E+00 -0.10000000000E+04  0.10000000000E+04  0.00000000000E+00 0.  1.
    9000005    2    1    2  501    0  0.20558713856E+00  0.28232945043E+00 -0.89679528466E+03  0.11026954696E+04  0.64163493841E+03 0.  0.
         13    1    3    3    0    0 -0.26562391487E+03 -0.10382306094E+03 -0.19619562113E+03  0.34616183193E+03  0.00000000000E+00 0.  1.
          3    1    3    3  501    0  0.26582950201E+03  0.10410539039E+03 -0.70059966353E+03  0.75653363771E+03  0.00000000000E+00 0.  1.
         21    1    1    2  502  501 -0.20558713856E+00 -0.28232945043E+00 -0.13486142081E+00  0.37438428512E+00  0.00000000000E+00 0.  1.
<mgrwt>
<rscale>  1 0.64163503E+03</rscale>
<asrwt>0</asrwt>
<pdfrwt beam="1">  1        1 0.37480026E+00 0.64163503E+03</pdfrwt>
<pdfrwt beam="2">0</pdfrwt>
<totfact> 0.17325349E+00</totfact>
</mgrwt>
</event>
<event>
 6    1  0.3848910E-003  0.6550596E+03  0.7818608E-02  0.9797331E-01
          1   -1    0    0  502    0  0.00000000000E+00  0.00000000000E+00  0.10747642737E+03  0.10747642737E+03  0.00000000000E+00 0.  1.
         13   -1    0    0    0    0 -0.00000000000E+00 -0.00000000000E+00 -0.10000000000E+04  0.10000000000E+04  0.00000000000E+00 0.  1.
    9000005    2    1    2  501    0  0.44050815114E-02 -0.27798975128E-01 -0.89272315157E+03  0.11072748736E+04  0.65505955413E+03 0.  0.
         13    1    3    3    0    0 -0.30649959755E+03 -0.36684748842E+02 -0.63143330196E+03  0.70284833991E+03  0.00000000000E+00 0.  1.
          1    1    3    3  501    0  0.30650400263E+03  0.36656949867E+02 -0.26128984961E+03  0.40442653364E+03  0.00000000000E+00 0.  1.
         21    1    1    2  502  501 -0.44050815114E-02  0.27798975128E-01  0.19957893767E+00  0.20155381446E+00  0.00000000000E+00 0.  1.
<mgrwt>
<rscale>  1 0.65505955E+03</rscale>
<asrwt>0</asrwt>
<pdfrwt beam="1">  1        1 0.39082420E+00 0.65505955E+03</pdfrwt>
<pdfrwt beam="2">0</pdfrwt>
<totfact> 0.14682667E+00</totfact>
</mgrwt>
</event>
<event>
 6    1  0.3848910E-003  0.6519534E+03  0.7818608E-02  0.9803121E-01
          1   -1    0    0  502    0  0.00000000000E+00  0.00000000000E+00  0.10626520357E+03  0.10626520357E+03  0.00000000000E+00 0.  1.
         13   -1    0    0    0    0 -0.00000000000E+00 -0.00000000000E+00 -0.10000000000E+04  0.10000000000E+04  0.00000000000E+00 0.  1.
    9000005    2    1    2  501    0  0.37554282068E-02 -0.40909632788E-02 -0.89373715404E+03  0.11062591705E+04  0.65195341233E+03 0.  0.
         13    1    3    3    0    0  0.28629611788E+02  0.12719962910E+03  0.60089373357E+02  0.14356229695E+03  0.00000000000E+00 0.  1.
          3    1    3    3  501    0 -0.28625856360E+02 -0.12720372006E+03 -0.95382652740E+03  0.96269687359E+03  0.00000000000E+00 0.  1.
         21    1    1    2  502  501 -0.37554282068E-02  0.40909632788E-02  0.23576074339E-02  0.60330369116E-02  0.00000000000E+00 0. -1.
<mgrwt>
<rscale>  1 0.65195341E+03</rscale>
<asrwt>0</asrwt>
<pdfrwt beam="1">  1        1 0.38641974E+00 0.65195341E+03</pdfrwt>
<pdfrwt beam="2">0</pdfrwt>
<totfact> 0.15366445E+00</totfact>
</mgrwt>
</event>
<event>
 6    1  0.3848910E-003  0.6240645E+03  0.7818608E-02  0.9856700E-01
          1   -1    0    0  502    0  0.00000000000E+00  0.00000000000E+00  0.98580704166E+02  0.98580704166E+02  0.00000000000E+00 0.  1.
         13   -1    0    0    0    0 -0.00000000000E+00 -0.00000000000E+00 -0.10000000000E+04  0.10000000000E+04  0.00000000000E+00 0.  1.
    9000005    2    1    2  501    0 -0.68184812134E-01  0.14732365906E+00 -0.90262992875E+03  0.10973592356E+04  0.62406448168E+03 0.  0.
         13    1    3    3    0    0  0.23791516020E+03  0.18031306189E+03 -0.29154595561E+03  0.41727145598E+03  0.00000000000E+00 0.  1.
          1    1    3    3  501    0 -0.23798334501E+03 -0.18016573823E+03 -0.61108397315E+03  0.68008777961E+03  0.00000000000E+00 0.  1.
         21    1    1    2  502  501  0.68184812134E-01 -0.14732365906E+00  0.12106329188E+01  0.12214685805E+01  0.00000000000E+00 0.  1.
<mgrwt>
<rscale>  1 0.62406450E+03</rscale>
<asrwt>0</asrwt>
<pdfrwt beam="1">  1        1 0.35847604E+00 0.62406450E+03</pdfrwt>
<pdfrwt beam="2">0</pdfrwt>
<totfact> 0.20495483E+00</totfact>
</mgrwt>
</event>
<event>
 6    1  0.3848910E-003  0.6472495E+03  0.7818608E-02  0.9811954E-01
          1   -1    0    0  502    0  0.00000000000E+00  0.00000000000E+00  0.10545303982E+03  0.10545303982E+03  0.00000000000E+00 0.  1.
         13   -1    0    0    0    0 -0.00000000000E+00 -0.00000000000E+00 -0.10000000000E+04  0.10000000000E+04  0.00000000000E+00 0.  1.
    9000005    2    1    2  501    0 -0.11429625924E+01 -0.11483922247E+01 -0.89407168233E+03  0.11037645324E+04  0.64724751427E+03 0.  0.
         13    1    3    3    0    0 -0.25924866314E+03  0.57591653828E+02 -0.13107311415E+03  0.29615338793E+03  0.00000000000E+00 0.  1.
          3    1    3    3  501    0  0.25810570055E+03 -0.58740046053E+02 -0.76299856817E+03  0.80761114449E+03  0.00000000000E+00 0.  1.
         21    1    1    2  502  501  0.11429625924E+01  0.11483922247E+01 -0.47527785262E+00  0.16885073960E+01  0.00000000000E+00 0.  1.
<mgrwt>
<rscale>  1 0.64724954E+03</rscale>
<asrwt>0</asrwt>
<pdfrwt beam="1">  1        1 0.38346641E+00 0.64724954E+03</pdfrwt>
<pdfrwt beam="2">0</pdfrwt>
<totfact> 0.15849425E+00</totfact>
</mgrwt>
</event>
<event>
 6    1  0.3848910E-003  0.6640697E+03  0.7818608E-02  0.9780731E-01
          1   -1    0    0  502    0  0.00000000000E+00  0.00000000000E+00  0.12286979842E+03  0.12286979842E+03  0.00000000000E+00 0.  1.
         13   -1    0    0    0    0 -0.00000000000E+00 -0.00000000000E+00 -0.10000000000E+04  0.10000000000E+04  0.00000000000E+00 0.  1.
    9000005    2    1    2  501    0 -0.27487762551E+01  0.18932148336E+01 -0.88950742070E+03  0.11100504542E+04  0.66406130690E+03 0.  0.
         13    1    3    3    0    0  0.32470677699E+03 -0.48956366964E+02 -0.37960219164E+03  0.50192533388E+03  0.00000000000E+00 0.  1.
          1    1    3    3  501    0 -0.32745555325E+03  0.50849581798E+02 -0.50990522907E+03  0.60812512031E+03  0.00000000000E+00 0.  1.
         21    1    1    2  502  501  0.27487762551E+01 -0.18932148336E+01  0.12377219128E+02  0.12819344237E+02  0.00000000000E+00 0. -1.
<mgrwt>
<rscale>  1 0.66406969E+03</rscale>
<asrwt>0</asrwt>
<pdfrwt beam="1">  1        1 0.44680021E+00 0.66406969E+03</pdfrwt>
<pdfrwt beam="2">0</pdfrwt>
<totfact> 0.81948827E-01</totfact>
</mgrwt>
</event>
<event>
 6    1  0.3848910E-003  0.6344016E+03  0.7818608E-02  0.9836497E-01
          1   -1    0    0  502    0  0.00000000000E+00  0.00000000000E+00  0.10061731432E+03  0.10061731432E+03  0.00000000000E+00 0.  1.
         13   -1    0    0    0    0 -0.00000000000E+00 -0.00000000000E+00 -0.10000000000E+04  0.10000000000E+04  0.00000000000E+00 0.  1.
    9000005    2    1    2  501    0  0.62587618430E-05 -0.70030660248E-03 -0.89938350690E+03  0.11006162350E+04  0.63440161122E+03 0.  0.
         13    1    3    3    0    0 -0.94287123215E+02  0.26677299686E+03 -0.20094028476E+03  0.34703730563E+03  0.00000000000E+00 0.  1.
          3    1    3    3  501    0  0.94287129474E+02 -0.26677369717E+03 -0.69844322214E+03  0.75357892940E+03  0.00000000000E+00 0.  1.
         21    1    1    2  502  501 -0.62587618444E-05  0.70030660249E-03  0.82122385427E-03  0.10792947366E-02  0.00000000000E+00 0. -1.
<mgrwt>
<rscale>  1 0.63440161E+03</rscale>
<asrwt>0</asrwt>
<pdfrwt beam="1">  1        1 0.36588191E+00 0.63440161E+03</pdfrwt>
<pdfrwt beam="2">0</pdfrwt>
<totfact> 0.18985792E+00</totfact>
</mgrwt>
</event>
<event>
 6    1  0.3848910E-003  0.6466106E+03  0.7818608E-02  0.9813160E-01
          1   -1    0    0  502    0  0.00000000000E+00  0.00000000000E+00  0.10452631471E+03  0.10452631471E+03  0.00000000000E+00 0.  1.
         13   -1    0    0    0    0 -0.00000000000E+00 -0.00000000000E+00 -0.10000000000E+04  0.10000000000E+04  0.00000000000E+00 0.  1.
    9000005    2    1    2  501    0 -0.84425727209E-06  0.10128185011E-05 -0.89547369037E+03  0.11045263095E+04  0.64661057688E+03 0.  0.
         13    1    3    3    0    0  0.22396350409E+03  0.12891728155E+03 -0.77961176995E+03  0.82132443558E+03  0.00000000000E+00 0.  1.
          1    1    3    3  501    0 -0.22396350493E+03 -0.12891728053E+03 -0.11586192043E+03  0.28320187388E+03  0.00000000000E+00 0.  1.
         21    1    1    2  502  501  0.84425728294E-06 -0.10128184967E-05  0.50820696778E-05  0.52503336920E-05  0.00000000000E+00 0.  1.
<mgrwt>
<rscale>  1 0.64661058E+03</rscale>
<asrwt>0</asrwt>
<pdfrwt beam="1">  1        1 0.38009649E+00 0.64661058E+03</pdfrwt>
<pdfrwt beam="2">0</pdfrwt>
<totfact> 0.16403861E+00</totfact>
</mgrwt>
</event>
<event>
 6    1  0.3848910E-003  0.6421744E+03  0.7818608E-02  0.9821575E-01
          1   -1    0    0  502    0  0.00000000000E+00  0.00000000000E+00  0.10321789300E+03  0.10321789300E+03  0.00000000000E+00 0.  1.
         13   -1    0    0    0    0 -0.00000000000E+00 -0.00000000000E+00 -0.10000000000E+04  0.10000000000E+04  0.00000000000E+00 0.  1.
    9000005    2    1    2  501    0 -0.18182599683E-03 -0.26340705484E-02 -0.89690298942E+03  0.11030969817E+04  0.64217441456E+03 0.  0.
         13    1    3    3    0    0 -0.23103029096E+03  0.15979689418E+03 -0.18130516824E+03  0.33433756409E+03  0.00000000000E+00 0.  1.
          1    1    3    3  501    0  0.23103010914E+03 -0.15979952825E+03 -0.71559782118E+03  0.76875941766E+03  0.00000000000E+00 0.  1.
         21    1    1    2  502  501  0.18182599684E-03  0.26340705484E-02  0.12088242034E+00  0.12091125231E+00  0.00000000000E+00 0.  1.
<mgrwt>
<rscale>  1 0.64217441E+03</rscale>
<asrwt>0</asrwt>
<pdfrwt beam="1">  1        1 0.37533858E+00 0.64217441E+03</pdfrwt>
<pdfrwt beam="2">0</pdfrwt>
<totfact> 0.17229372E+00</totfact>
</mgrwt>
</event>
<event>
 6    1  0.3848910E-003  0.5983913E+03  0.7818608E-02  0.9908749E-01
          1   -1    0    0  502    0  0.00000000000E+00  0.00000000000E+00  0.89624805883E+02  0.89624805883E+02  0.00000000000E+00 0.  1.
         13   -1    0    0    0    0 -0.00000000000E+00 -0.00000000000E+00 -0.10000000000E+04  0.10000000000E+04  0.00000000000E+00 0.  1.
    9000005    2    1    2  501    0 -0.70176052900E-01  0.39510445159E-01 -0.91046521447E+03  0.10895040192E+04  0.59839125549E+03 0.  0.
         13    1    3    3    0    0 -0.18415952765E+03 -0.23355882831E+03 -0.39604025956E+03  0.49529016253E+03  0.00000000000E+00 0.  1.
          1    1    3    3  501    0  0.18408935160E+03  0.23359833876E+03 -0.51442495491E+03  0.59421385669E+03  0.00000000000E+00 0.  1.
         21    1    1    2  502  501  0.70176052900E-01 -0.39510445159E-01  0.90020355953E-01  0.12078666385E+00  0.00000000000E+00 0.  1.
<mgrwt>
<rscale>  1 0.59839126E+03</rscale>
<asrwt>0</asrwt>
<pdfrwt beam="1">  1        1 0.32590907E+00 0.59839126E+03</pdfrwt>
<pdfrwt beam="2">0</pdfrwt>
<totfact> 0.28524069E+00</totfact>
</mgrwt>
</event>
<event>
 6    1  0.3848910E-003  0.6456782E+03  0.7818608E-02  0.9814923E-01
          1   -1    0    0  502    0  0.00000000000E+00  0.00000000000E+00  0.10422546609E+03  0.10422546609E+03  0.00000000000E+00 0.  1.
         13   -1    0    0    0    0 -0.00000000000E+00 -0.00000000000E+00 -0.10000000000E+04  0.10000000000E+04  0.00000000000E+00 0.  1.
    9000005    2    1    2  501    0 -0.15950312169E-03 -0.76768410139E-03 -0.89577443253E+03  0.11042246755E+04  0.64567817057E+03 0.  0.
         13    1    3    3    0    0 -0.23138519231E+03  0.16638313372E+03 -0.70726263662E+03  0.76252402688E+03  0.00000000000E+00 0.  1.
          3    1    3    3  501    0  0.23138503281E+03 -0.16638390140E+03 -0.18851179591E+03  0.34170064860E+03  0.00000000000E+00 0.  1.
         21    1    1    2  502  501  0.15950312169E-03  0.76768410140E-03 -0.10137968393E-03  0.79060607491E-03  0.00000000000E+00 0.  1.
<mgrwt>
<rscale>  1 0.64567817E+03</rscale>
<asrwt>0</asrwt>
<pdfrwt beam="1">  1        1 0.37900249E+00 0.64567817E+03</pdfrwt>
<pdfrwt beam="2">0</pdfrwt>
<totfact> 0.16590000E+00</totfact>
</mgrwt>
</event>
<event>
 6    1  0.3848910E-003  0.5899707E+03  0.7818608E-02  0.9926435E-01
          1   -1    0    0  502    0  0.00000000000E+00  0.00000000000E+00  0.87777959926E+02  0.87777959926E+02  0.00000000000E+00 0.  1.
         13   -1    0    0    0    0 -0.00000000000E+00 -0.00000000000E+00 -0.10000000000E+04  0.10000000000E+04  0.00000000000E+00 0.  1.
    9000005    2    1    2  501    0  0.52680529583E+00 -0.62479296717E-01 -0.91288212926E+03  0.10869311157E+04  0.58997049657E+03 0.  0.
         13    1    3    3    0    0 -0.11671012371E+03  0.10815994853E+03  0.11014555388E+01  0.15912586417E+03  0.00000000000E+00 0.  1.
          3    1    3    3  501    0  0.11723692901E+03 -0.10822242782E+03 -0.91398358480E+03  0.92780525149E+03  0.00000000000E+00 0.  1.
         21    1    1    2  502  501 -0.52680529583E+00  0.62479296717E-01  0.66008918752E+00  0.84684427005E+00  0.00000000000E+00 0.  1.
<mgrwt>
<rscale>  1 0.58997074E+03</rscale>
<asrwt>0</asrwt>
<pdfrwt beam="1">  1        1 0.31919325E+00 0.58997074E+03</pdfrwt>
<pdfrwt beam="2">0</pdfrwt>
<totfact> 0.30543086E+00</totfact>
</mgrwt>
</event>
<event>
 6    1  0.3848910E-003  0.6619606E+03  0.7818608E-02  0.9784591E-01
          1   -1    0    0  502    0  0.00000000000E+00  0.00000000000E+00  0.11142724263E+03  0.11142724263E+03  0.00000000000E+00 0.  1.
         13   -1    0    0    0    0 -0.00000000000E+00 -0.00000000000E+00 -0.10000000000E+04  0.10000000000E+04  0.00000000000E+00 0.  1.
    9000005    2    1    2  501    0  0.19990400036E+01  0.44830720869E+01 -0.88570640431E+03  0.11057430473E+04  0.66194241290E+03 0.  0.
         13    1    3    3    0    0 -0.55696216039E+02 -0.32351299621E+03 -0.46428851485E+03  0.56861810754E+03  0.00000000000E+00 0.  1.
          1    1    3    3  501    0  0.57695256043E+02  0.32799606830E+03 -0.42141788946E+03  0.53712493979E+03  0.00000000000E+00 0.  1.
         21    1    1    2  502  501 -0.19990400036E+01 -0.44830720869E+01 -0.28663530639E+01  0.56841952956E+01  0.00000000000E+00 0.  1.
<mgrwt>
<rscale>  1 0.66196061E+03</rscale>
<asrwt>0</asrwt>
<pdfrwt beam="1">  1        1 0.40519083E+00 0.66196061E+03</pdfrwt>
<pdfrwt beam="2">0</pdfrwt>
<totfact> 0.12654770E+00</totfact>
</mgrwt>
</event>
<event>
 6    1  0.3848910E-003  0.6423909E+03  0.7818608E-02  0.9821163E-01
          1   -1    0    0  502    0  0.00000000000E+00  0.00000000000E+00  0.10319198182E+03  0.10319198182E+03  0.00000000000E+00 0.  1.
         13   -1    0    0    0    0 -0.00000000000E+00 -0.00000000000E+00 -0.10000000000E+04  0.10000000000E+04  0.00000000000E+00 0.  1.
    9000005    2    1    2  501    0  0.10220883583E-02  0.69299610164E-02 -0.89683295611E+03  0.11031660787E+04  0.64239088264E+03 0.  0.
         13    1    3    3    0    0  0.25967913743E+03  0.46164457690E+01 -0.12389067783E+03  0.28775591400E+03  0.00000000000E+00 0.  1.
          1    1    3    3  501    0 -0.25967811535E+03 -0.46095158080E+01 -0.77294227827E+03  0.81541016474E+03  0.00000000000E+00 0.  1.
         21    1    1    2  502  501 -0.10220883583E-02 -0.69299610164E-02  0.24937923719E-01  0.25903070546E-01  0.00000000000E+00 0. -1.
<mgrwt>
<rscale>  1 0.64239088E+03</rscale>
<asrwt>0</asrwt>
<pdfrwt beam="1">  1        1 0.37524436E+00 0.64239088E+03</pdfrwt>
<pdfrwt beam="2">0</pdfrwt>
<totfact> 0.17245153E+00</totfact>
</mgrwt>
</event>
<event>
 6    1  0.3848910E-003  0.6452412E+03  0.7818608E-02  0.9815750E-01
          1   -1    0    0  502    0  0.00000000000E+00  0.00000000000E+00  0.10410972991E+03  0.10410972991E+03  0.00000000000E+00 0.  1.
         13   -1    0    0    0    0 -0.00000000000E+00 -0.00000000000E+00 -0.10000000000E+04  0.10000000000E+04  0.00000000000E+00 0.  1.
    9000005    2    1    2  501    0 -0.79403085061E-03 -0.68234068942E-03 -0.89591595030E+03  0.11040840284E+04  0.64524115777E+03 0.  0.
         13    1    3    3    0    0  0.24995734916E+03 -0.13155105228E+03 -0.18122311908E+03  0.33559823397E+03  0.00000000000E+00 0.  1.
          1    1    3    3  501    0 -0.24995814319E+03  0.13155036994E+03 -0.71469283122E+03  0.76848579439E+03  0.00000000000E+00 0.  1.
         21    1    1    2  502  501  0.79403085064E-03  0.68234068942E-03  0.25680216337E-01  0.25701548298E-01  0.00000000000E+00 0.  1.
<mgrwt>
<rscale>  1 0.64524116E+03</rscale>
<asrwt>0</asrwt>
<pdfrwt beam="1">  1        1 0.37858163E+00 0.64524116E+03</pdfrwt>
<pdfrwt beam="2">0</pdfrwt>
<totfact> 0.16662382E+00</totfact>
</mgrwt>
</event>
<event>
 6    1  0.3848910E-003  0.6725586E+03  0.7818608E-02  0.9765347E-01
          1   -1    0    0  502    0  0.00000000000E+00  0.00000000000E+00  0.11335105379E+03  0.11335105379E+03  0.00000000000E+00 0.  1.
         13   -1    0    0    0    0 -0.00000000000E+00 -0.00000000000E+00 -0.10000000000E+04  0.10000000000E+04  0.00000000000E+00 0.  1.
    9000005    2    1    2  501    0  0.31648947253E-02 -0.28056682837E-02 -0.88691620220E+03  0.11130837643E+04  0.67255863438E+03 0.  0.
         13    1    3    3    0    0  0.46964259359E+02  0.31995265121E+03 -0.59610898786E+03  0.67817495241E+03  0.00000000000E+00 0.  1.
          1    1    3    3  501    0 -0.46961094464E+02 -0.31995545687E+03 -0.29080721434E+03  0.43490881192E+03  0.00000000000E+00 0.  1.
         21    1    1    2  502  501 -0.31648947253E-02  0.28056682837E-02  0.26725598717E+00  0.26728945174E+00  0.00000000000E+00 0. -1.
<mgrwt>
<rscale>  1 0.67255863E+03</rscale>
<asrwt>0</asrwt>
<pdfrwt beam="1">  1        1 0.41218652E+00 0.67255863E+03</pdfrwt>
<pdfrwt beam="2">0</pdfrwt>
<totfact> 0.11749782E+00</totfact>
</mgrwt>
</event>
<event>
 6    1  0.3848910E-003  0.6530058E+03  0.7818608E-02  0.9801155E-01
          1   -1    0    0  502    0  0.00000000000E+00  0.00000000000E+00  0.10660685032E+03  0.10660685032E+03  0.00000000000E+00 0.  1.
         13   -1    0    0    0    0 -0.00000000000E+00 -0.00000000000E+00 -0.10000000000E+04  0.10000000000E+04  0.00000000000E+00 0.  1.
    9000005    2    1    2  501    0 -0.25417585249E-02  0.27873884486E-02 -0.89339434403E+03  0.11066028935E+04  0.65300575029E+03 0.  0.
         13    1    3    3    0    0  0.18691553512E+03 -0.34169547480E+02 -0.89664673358E+03  0.91655896705E+03  0.00000000000E+00 0.  1.
          3    1    3    3  501    0 -0.18691807688E+03  0.34172334868E+02  0.32523895479E+01  0.19004392643E+03  0.00000000000E+00 0.  1.
         21    1    1    2  502  501  0.25417585249E-02 -0.27873884486E-02  0.11943524065E-02  0.39568356591E-02  0.00000000000E+00 0.  1.
<mgrwt>
<rscale>  1 0.65300575E+03</rscale>
<asrwt>0</asrwt>
<pdfrwt beam="1">  1        1 0.38766209E+00 0.65300575E+03</pdfrwt>
<pdfrwt beam="2">0</pdfrwt>
<totfact> 0.15170079E+00</totfact>
</mgrwt>
</event>
<event>
 6    1  0.4211894E-003  0.6262310E+03  0.7818608E-02  0.9852431E-01
          1   -1    0    0  502    0  0.00000000000E+00  0.00000000000E+00  0.98041324116E+02  0.98041324116E+02  0.00000000000E+00 0.  1.
         13   -1    0    0    0    0 -0.00000000000E+00 -0.00000000000E+00 -0.10000000000E+04  0.10000000000E+04  0.00000000000E+00 0.  1.
    9000005    2    1    2  501    0  0.64617779003E-05  0.59531044911E-05 -0.90195868043E+03  0.10980413142E+04  0.62623100095E+03 0.  0.
         13    1    3    3    0    0 -0.30300955052E+03 -0.77985890441E+02 -0.42988530732E+03  0.53169348714E+03  0.00000000000E+00 0.  1.
          3    1    3    3  501    0  0.30300955698E+03  0.77985896394E+02 -0.47207337310E+03  0.56634782709E+03  0.00000000000E+00 0.  1.
         21    1    1    2  502  501 -0.64617778909E-05 -0.59531044906E-05  0.45411034276E-05  0.98901793172E-05  0.00000000000E+00 0.  1.
<mgrwt>
<rscale>  1 0.62623100E+03</rscale>
<asrwt>0</asrwt>
<pdfrwt beam="1">  1        1 0.35651466E+00 0.62623100E+03</pdfrwt>
<pdfrwt beam="2">0</pdfrwt>
<totfact> 0.20895723E+00</totfact>
</mgrwt>
</event>
<event>
 6    1  0.3848910E-003  0.5365021E+03  0.7818608E-02  0.1004667E+00
          1   -1    0    0  502    0  0.00000000000E+00  0.00000000000E+00  0.72004841595E+02  0.72004841595E+02  0.00000000000E+00 0.  1.
         13   -1    0    0    0    0 -0.00000000000E+00 -0.00000000000E+00 -0.10000000000E+04  0.10000000000E+04  0.00000000000E+00 0.  1.
    9000005    2    1    2  501    0  0.76733985332E-02 -0.11608517077E-01 -0.92804024032E+03  0.10719576609E+04  0.53650213319E+03 0.  0.
         13    1    3    3    0    0  0.25361354581E+03  0.58927313758E+02 -0.59301273933E+03  0.64765451279E+03  0.00000000000E+00 0.  1.
          1    1    3    3  501    0 -0.25360587241E+03 -0.58938922275E+02 -0.33502750099E+03  0.42430314811E+03  0.00000000000E+00 0.  1.
         21    1    1    2  502  501 -0.76733985332E-02  0.11608517077E-01  0.45081915924E-01  0.47180693691E-01  0.00000000000E+00 0. -1.
<mgrwt>
<rscale>  1 0.53650213E+03</rscale>
<asrwt>0</asrwt>
<pdfrwt beam="1">  1        1 0.26183634E+00 0.53650213E+03</pdfrwt>
<pdfrwt beam="2">0</pdfrwt>
<totfact> 0.54530826E+00</totfact>
</mgrwt>
</event>
<event>
 6    1  0.3848910E-003  0.6520260E+03  0.7818608E-02  0.9802985E-01
          1   -1    0    0  502    0  0.00000000000E+00  0.00000000000E+00  0.10628448026E+03  0.10628448026E+03  0.00000000000E+00 0.  1.
         13   -1    0    0    0    0 -0.00000000000E+00 -0.00000000000E+00 -0.10000000000E+04  0.10000000000E+04  0.00000000000E+00 0.  1.
    9000005    2    1    2  501    0  0.62415659841E-06  0.15941447487E-05 -0.89371553569E+03  0.11062844642E+04  0.65202596348E+03 0.  0.
         13    1    3    3    0    0 -0.23012089391E+03 -0.22842037051E+03 -0.50446955509E+03  0.59968410309E+03  0.00000000000E+00 0.  1.
          1    1    3    3  501    0  0.23012089453E+03  0.22842037211E+03 -0.38924598059E+03  0.50660036113E+03  0.00000000000E+00 0.  1.
         21    1    1    2  502  501 -0.62415657836E-06 -0.15941447682E-05  0.15944631585E-04  0.16036275919E-04  0.00000000000E+00 0.  1.
<mgrwt>
<rscale>  1 0.65202596E+03</rscale>
<asrwt>0</asrwt>
<pdfrwt beam="1">  1        1 0.38648983E+00 0.65202596E+03</pdfrwt>
<pdfrwt beam="2">0</pdfrwt>
<totfact> 0.15355264E+00</totfact>
</mgrwt>
</event>
<event>
 6    1  0.3848910E-003  0.6537224E+03  0.7818608E-02  0.9799819E-01
          1   -1    0    0  502    0  0.00000000000E+00  0.00000000000E+00  0.10683827710E+03  0.10683827710E+03  0.00000000000E+00 0.  1.
         13   -1    0    0    0    0 -0.00000000000E+00 -0.00000000000E+00 -0.10000000000E+04  0.10000000000E+04  0.00000000000E+00 0.  1.
    9000005    2    1    2  501    0 -0.98077268561E-04 -0.85564213563E-04 -0.89316163507E+03  0.11068381201E+04  0.65372235522E+03 0.  0.
         13    1    3    3    0    0 -0.81803727627E+02  0.11525206279E+03 -0.94559056570E+03  0.95609434982E+03  0.00000000000E+00 0.  1.
          3    1    3    3  501    0  0.81803629550E+02 -0.11525214835E+03  0.52428930626E+02  0.15074377026E+03  0.00000000000E+00 0.  1.
         21    1    1    2  502  501  0.98077268553E-04  0.85564213554E-04 -0.87825412591E-04  0.15701493032E-03  0.00000000000E+00 0.  1.
<mgrwt>
<rscale>  1 0.65372236E+03</rscale>
<asrwt>0</asrwt>
<pdfrwt beam="1">  1        1 0.38850365E+00 0.65372236E+03</pdfrwt>
<pdfrwt beam="2">0</pdfrwt>
<totfact> 0.15038409E+00</totfact>
</mgrwt>
</event>
<event>
 6    1  0.3848910E-003  0.6687897E+03  0.7818608E-02  0.9772147E-01
          1   -1    0    0  502    0  0.00000000000E+00  0.00000000000E+00  0.11182003358E+03  0.11182003358E+03  0.00000000000E+00 0.  1.
         13   -1    0    0    0    0 -0.00000000000E+00 -0.00000000000E+00 -0.10000000000E+04  0.10000000000E+04  0.00000000000E+00 0.  1.
    9000005    2    1    2  501    0  0.46586418392E-04 -0.62499956641E-04 -0.88818006752E+03  0.11118199059E+04  0.66878970599E+03 0.  0.
         13    1    3    3    0    0 -0.22849533171E+03  0.24334423206E+03 -0.47706157646E+03  0.58224932771E+03  0.00000000000E+00 0.  1.
          3    1    3    3  501    0  0.22849537830E+03 -0.24334429456E+03 -0.41111849107E+03  0.52957057820E+03  0.00000000000E+00 0.  1.
         21    1    1    2  502  501 -0.46586418392E-04  0.62499956647E-04  0.10110054844E-03  0.12766307161E-03  0.00000000000E+00 0.  1.
<mgrwt>
<rscale>  1 0.66878971E+03</rscale>
<asrwt>0</asrwt>
<pdfrwt beam="1">  1        1 0.40661916E+00 0.66878971E+03</pdfrwt>
<pdfrwt beam="2">0</pdfrwt>
<totfact> 0.12453861E+00</totfact>
</mgrwt>
</event>
<event>
 6    1  0.3848910E-003  0.6799013E+03  0.7818608E-02  0.9752235E-01
          1   -1    0    0  502    0  0.00000000000E+00  0.00000000000E+00  0.12005721094E+03  0.12005721094E+03  0.00000000000E+00 0.  1.
         13   -1    0    0    0    0 -0.00000000000E+00 -0.00000000000E+00 -0.10000000000E+04  0.10000000000E+04  0.00000000000E+00 0.  1.
    9000005    2    1    2  501    0 -0.18363059341E-02 -0.69360733807E-01 -0.88443327042E+03  0.11155661936E+04  0.67990125576E+03 0.  0.
         13    1    3    3    0    0  0.20004598876E+03  0.25059575889E+03 -0.62732197932E+03  0.70452075748E+03  0.00000000000E+00 0.  1.
          3    1    3    3  501    0 -0.20004782506E+03 -0.25066511963E+03 -0.25711129110E+03  0.41104543608E+03  0.00000000000E+00 0.  1.
         21    1    1    2  502  501  0.18363059341E-02  0.69360733807E-01  0.44904813559E+01  0.44910173782E+01  0.00000000000E+00 0.  1.
<mgrwt>
<rscale>  1 0.67990126E+03</rscale>
<asrwt>0</asrwt>
<pdfrwt beam="1">  1        1 0.43657260E+00 0.67990126E+03</pdfrwt>
<pdfrwt beam="2">0</pdfrwt>
<totfact> 0.90994086E-01</totfact>
</mgrwt>
</event>
<event>
 6    1  0.3848910E-003  0.6502863E+03  0.7818608E-02  0.9806242E-01
          1   -1    0    0  502    0  0.00000000000E+00  0.00000000000E+00  0.10906801265E+03  0.10906801265E+03  0.00000000000E+00 0.  1.
         13   -1    0    0    0    0 -0.00000000000E+00 -0.00000000000E+00 -0.10000000000E+04  0.10000000000E+04  0.00000000000E+00 0.  1.
    9000005    2    1    2  501    0  0.32752329427E+00  0.18558131866E+00 -0.89427024812E+03  0.11057085935E+04  0.65028614886E+03 0.  0.
         13    1    3    3    0    0  0.30185421721E+03  0.93245069060E+02 -0.57934698788E+03  0.65988903895E+03  0.00000000000E+00 0.  1.
          3    1    3    3  501    0 -0.30152669391E+03 -0.93059487742E+02 -0.31492326024E+03  0.44581955457E+03  0.00000000000E+00 0.  1.
         21    1    1    2  502  501 -0.32752329427E+00 -0.18558131866E+00  0.33382607678E+01  0.33594191296E+01  0.00000000000E+00 0. -1.
<mgrwt>
<rscale>  1 0.65028626E+03</rscale>
<asrwt>0</asrwt>
<pdfrwt beam="1">  1        1 0.39661179E+00 0.65028626E+03</pdfrwt>
<pdfrwt beam="2">0</pdfrwt>
<totfact> 0.13850954E+00</totfact>
</mgrwt>
</event>
<event>
 6    1  0.3848910E-003  0.5897284E+03  0.7818608E-02  0.9926948E-01
          1   -1    0    0  502    0  0.00000000000E+00  0.00000000000E+00  0.86947359200E+02  0.86947359200E+02  0.00000000000E+00 0.  1.
         13   -1    0    0    0    0 -0.00000000000E+00 -0.00000000000E+00 -0.10000000000E+04  0.10000000000E+04  0.00000000000E+00 0.  1.
    9000005    2    1    2  501    0  0.13025194659E-03  0.42933360950E-02 -0.91305289685E+03  0.10869430563E+04  0.58972842487E+03 0.  0.
         13    1    3    3    0    0 -0.46226489636E+02  0.14982172193E+03 -0.91680071035E+03  0.93011127249E+03  0.00000000000E+00 0.  1.
          3    1    3    3  501    0  0.46226619888E+02 -0.14981742859E+03  0.37478135077E+01  0.15683178377E+03  0.00000000000E+00 0.  1.
         21    1    1    2  502  501 -0.13025194659E-03 -0.42933360950E-02  0.25604669618E-03  0.43029362422E-02  0.00000000000E+00 0. -1.
<mgrwt>
<rscale>  1 0.58972842E+03</rscale>
<asrwt>0</asrwt>
<pdfrwt beam="1">  1        1 0.31617288E+00 0.58972842E+03</pdfrwt>
<pdfrwt beam="2">0</pdfrwt>
<totfact> 0.31476318E+00</totfact>
</mgrwt>
</event>
<event>
 6    1  0.3848910E-003  0.6477791E+03  0.7818608E-02  0.9810955E-01
          1   -1    0    0  502    0  0.00000000000E+00  0.00000000000E+00  0.12053580310E+03  0.12053580310E+03  0.00000000000E+00 0.  1.
         13   -1    0    0    0    0 -0.00000000000E+00 -0.00000000000E+00 -0.10000000000E+04  0.10000000000E+04  0.00000000000E+00 0.  1.
    9000005    2    1    2  501    0 -0.10884475505E+01 -0.57701860717E+01 -0.89448394207E+03  0.11044090393E+04  0.64775251733E+03 0.  0.
         13    1    3    3    0    0 -0.13992137137E+03 -0.27880971003E+03 -0.61575237166E+03  0.69026359297E+03  0.00000000000E+00 0.  1.
          1    1    3    3  501    0  0.13883292382E+03  0.27303952396E+03 -0.27873157041E+03  0.41414544634E+03  0.00000000000E+00 0.  1.
         21    1    1    2  502  501  0.10884475505E+01  0.57701860717E+01  0.15019745177E+02  0.16126763797E+02  0.00000000000E+00 0. -1.
<mgrwt>
<rscale>  1 0.64777913E+03</rscale>
<asrwt>0</asrwt>
<pdfrwt beam="1">  1        1 0.43831294E+00 0.64777913E+03</pdfrwt>
<pdfrwt beam="2">0</pdfrwt>
<totfact> 0.89921614E-01</totfact>
</mgrwt>
</event>
<event>
 6    1  0.3848910E-003  0.6435508E+03  0.7818608E-02  0.9818956E-01
          1   -1    0    0  502    0  0.00000000000E+00  0.00000000000E+00  0.10376850714E+03  0.10376850714E+03  0.00000000000E+00 0.  1.
         13   -1    0    0    0    0 -0.00000000000E+00 -0.00000000000E+00 -0.10000000000E+04  0.10000000000E+04  0.00000000000E+00 0.  1.
    9000005    2    1    2  501    0 -0.24008240290E+00  0.19978596384E+00 -0.89633683250E+03  0.11034388855E+04  0.64355074328E+03 0.  0.
         13    1    3    3    0    0  0.15052920918E+03 -0.52084238811E+02  0.31168358586E+02  0.16230612227E+03  0.00000000000E+00 0.  1.
          3    1    3    3  501    0 -0.15076929158E+03  0.52284024774E+02 -0.92750519108E+03  0.94113276323E+03  0.00000000000E+00 0.  1.
         21    1    1    2  502  501  0.24008240290E+00 -0.19978596384E+00  0.10533964222E+00  0.32962164940E+00  0.00000000000E+00 0. -1.
<mgrwt>
<rscale>  1 0.64355082E+03</rscale>
<asrwt>0</asrwt>
<pdfrwt beam="1">  1        1 0.37734082E+00 0.64355082E+03</pdfrwt>
<pdfrwt beam="2">0</pdfrwt>
<totfact> 0.16878783E+00</totfact>
</mgrwt>
</event>
<event>
 6    1  0.3848910E-003  0.5964602E+03  0.7818608E-02  0.9912777E-01
          1   -1    0    0  502    0  0.00000000000E+00  0.00000000000E+00  0.88941330615E+02  0.88941330615E+02  0.00000000000E+00 0.  1.
         13   -1    0    0    0    0 -0.00000000000E+00 -0.00000000000E+00 -0.10000000000E+04  0.10000000000E+04  0.00000000000E+00 0.  1.
    9000005    2    1    2  501    0  0.74654972877E-04  0.11271651386E-03 -0.91105876039E+03  0.10889411676E+04  0.59646022643E+03 0.  0.
         13    1    3    3    0    0 -0.28963691675E+03  0.41980350370E+02 -0.35082274557E+03  0.45686813434E+03  0.00000000000E+00 0.  1.
          3    1    3    3  501    0  0.28963699140E+03 -0.41980237653E+02 -0.56023601481E+03  0.63207303331E+03  0.00000000000E+00 0.  1.
         21    1    1    2  502  501 -0.74654972844E-04 -0.11271651386E-03  0.91002062396E-04  0.16297163197E-03  0.00000000000E+00 0. -1.
<mgrwt>
<rscale>  1 0.59646023E+03</rscale>
<asrwt>0</asrwt>
<pdfrwt beam="1">  1        1 0.32342370E+00 0.59646023E+03</pdfrwt>
<pdfrwt beam="2">0</pdfrwt>
<totfact> 0.29249045E+00</totfact>
</mgrwt>
</event>
<event>
 6    1  0.3848910E-003  0.6266210E+03  0.7818608E-02  0.9851665E-01
          1   -1    0    0  502    0  0.00000000000E+00  0.00000000000E+00  0.98165772236E+02  0.98165772236E+02  0.00000000000E+00 0.  1.
         13   -1    0    0    0    0 -0.00000000000E+00 -0.00000000000E+00 -0.10000000000E+04  0.10000000000E+04  0.00000000000E+00 0.  1.
    9000005    2    1    2  501    0 -0.24183428221E-03  0.16984099923E-03 -0.90183653195E+03  0.10981634492E+04  0.62662096257E+03 0.  0.
         13    1    3    3    0    0  0.13320641600E+03  0.16410200924E+03 -0.45597816487E+02  0.21622344824E+03  0.00000000000E+00 0.  1.
          3    1    3    3  501    0 -0.13320665783E+03 -0.16410183940E+03 -0.85623871547E+03  0.88194000093E+03  0.00000000000E+00 0.  1.
         21    1    1    2  502  501  0.24183428220E-03 -0.16984099923E-03  0.23041896811E-02  0.23230626061E-02  0.00000000000E+00 0.  1.
<mgrwt>
<rscale>  1 0.62662096E+03</rscale>
<asrwt>0</asrwt>
<pdfrwt beam="1">  1        1 0.35696720E+00 0.62662096E+03</pdfrwt>
<pdfrwt beam="2">0</pdfrwt>
<totfact> 0.20799371E+00</totfact>
</mgrwt>
</event>
<event>
 6    1  0.3848910E-003  0.5784578E+03  0.7818608E-02  0.9951135E-01
          1   -1    0    0  502    0  0.00000000000E+00  0.00000000000E+00  0.83703375708E+02  0.83703375708E+02  0.00000000000E+00 0.  1.
         13   -1    0    0    0    0 -0.00000000000E+00 -0.00000000000E+00 -0.10000000000E+04  0.10000000000E+04  0.00000000000E+00 0.  1.
    9000005    2    1    2  501    0 -0.45739678216E-01  0.11569471432E-01 -0.91633435402E+03  0.10836429646E+04  0.57845779806E+03 0.  0.
         13    1    3    3    0    0  0.14753498251E+02 -0.28515212593E+03 -0.54441054483E+03  0.61474567258E+03  0.00000000000E+00 0.  1.
          3    1    3    3  501    0 -0.14799237929E+02  0.28516369540E+03 -0.37192380919E+03  0.46889729201E+03  0.00000000000E+00 0.  1.
         21    1    1    2  502  501  0.45739678216E-01 -0.11569471432E-01  0.37729725513E-01  0.60411116691E-01  0.00000000000E+00 0.  1.
<mgrwt>
<rscale>  1 0.57845780E+03</rscale>
<asrwt>0</asrwt>
<pdfrwt beam="1">  1        1 0.30437655E+00 0.57845780E+03</pdfrwt>
<pdfrwt beam="2">0</pdfrwt>
<totfact> 0.35463681E+00</totfact>
</mgrwt>
</event>
<event>
 6    1  0.3848910E-003  0.6617487E+03  0.7818608E-02  0.9784980E-01
          1   -1    0    0  502    0  0.00000000000E+00  0.00000000000E+00  0.10957319401E+03  0.10957319401E+03  0.00000000000E+00 0.  1.
         13   -1    0    0    0    0 -0.00000000000E+00 -0.00000000000E+00 -0.10000000000E+04  0.10000000000E+04  0.00000000000E+00 0.  1.
    9000005    2    1    2  501    0  0.49874419487E-01  0.75473902620E-01 -0.89049772530E+03  0.11094582448E+04  0.66174873634E+03 0.  0.
         13    1    3    3    0    0  0.17198802481E+03  0.28089111409E+03 -0.39155688066E+03  0.51166052168E+03  0.00000000000E+00 0.  1.
          1    1    3    3  501    0 -0.17193815040E+03 -0.28081564019E+03 -0.49894084464E+03  0.59779772314E+03  0.00000000000E+00 0.  1.
         21    1    1    2  502  501 -0.49874419487E-01 -0.75473902620E-01  0.70919306661E-01  0.11494918770E+00  0.00000000000E+00 0. -1.
<mgrwt>
<rscale>  1 0.66174874E+03</rscale>
<asrwt>0</asrwt>
<pdfrwt beam="1">  1        1 0.39844882E+00 0.66174874E+03</pdfrwt>
<pdfrwt beam="2">0</pdfrwt>
<totfact> 0.13563302E+00</totfact>
</mgrwt>
</event>
<event>
 6    1  0.3848910E-003  0.5045795E+03  0.7818608E-02  0.1012590E+00
          1   -1    0    0  502    0  0.00000000000E+00  0.00000000000E+00  0.63651357097E+02  0.63651357097E+02  0.00000000000E+00 0.  1.
         13   -1    0    0    0    0 -0.00000000000E+00 -0.00000000000E+00 -0.10000000000E+04  0.10000000000E+04  0.00000000000E+00 0.  1.
    9000005    2    1    2  501    0 -0.10373604280E-03  0.15315354958E-03 -0.93634988093E+03  0.10636501053E+04  0.50457947543E+03 0.  0.
         13    1    3    3    0    0  0.10906759473E+02  0.19161640564E+03 -0.81336068969E+03  0.83569816073E+03  0.00000000000E+00 0.  1.
          3    1    3    3  501    0 -0.10906863209E+02 -0.19161625248E+03 -0.12298919124E+03  0.22795194459E+03  0.00000000000E+00 0.  1.
         21    1    1    2  502  501  0.10373604280E-03 -0.15315354957E-03  0.12380309525E-02  0.12517738677E-02  0.00000000000E+00 0.  1.
<mgrwt>
<rscale>  1 0.50457948E+03</rscale>
<asrwt>0</asrwt>
<pdfrwt beam="1">  1        1 0.23145997E+00 0.50457948E+03</pdfrwt>
<pdfrwt beam="2">0</pdfrwt>
<totfact> 0.74372201E+00</totfact>
</mgrwt>
</event>
<event>
 6    1  0.3848910E-003  0.6334447E+03  0.7818608E-02  0.9838350E-01
          1   -1    0    0  502    0  0.00000000000E+00  0.00000000000E+00  0.10031341210E+03  0.10031341210E+03  0.00000000000E+00 0.  1.
         13   -1    0    0    0    0 -0.00000000000E+00 -0.00000000000E+00 -0.10000000000E+04  0.10000000000E+04  0.00000000000E+00 0.  1.
    9000005    2    1    2  501    0 -0.13734474565E-03  0.24188563003E-04 -0.89968694276E+03  0.11003130308E+04  0.63344468646E+03 0.  0.
         13    1    3    3    0    0 -0.90812558547E+01 -0.12400212059E+03 -0.95583568350E+03  0.96388840068E+03  0.00000000000E+00 0.  1.
          3    1    3    3  501    0  0.90811185100E+01  0.12400214477E+03  0.56148740733E+02  0.13642463014E+03  0.00000000000E+00 0.  1.
         21    1    1    2  502  501  0.13734474565E-03 -0.24188563001E-04  0.35486541488E-03  0.38128483895E-03  0.00000000000E+00 0.  1.
<mgrwt>
<rscale>  1 0.63344469E+03</rscale>
<asrwt>0</asrwt>
<pdfrwt beam="1">  1        1 0.36477681E+00 0.63344469E+03</pdfrwt>
<pdfrwt beam="2">0</pdfrwt>
<totfact> 0.19202056E+00</totfact>
</mgrwt>
</event>
<event>
 6    1  0.3848910E-003  0.6514696E+03  0.7818608E-02  0.9804026E-01
          1   -1    0    0  502    0  0.00000000000E+00  0.00000000000E+00  0.10632214040E+03  0.10632214040E+03  0.00000000000E+00 0.  1.
         13   -1    0    0    0    0 -0.00000000000E+00 -0.00000000000E+00 -0.10000000000E+04  0.10000000000E+04  0.00000000000E+00 0.  1.
    9000005    2    1    2  501    0 -0.37512808263E-02 -0.37753677241E-01 -0.89389502610E+03  0.11061016847E+04  0.65146958320E+03 0.  0.
         13    1    3    3    0    0 -0.19921290206E+03  0.22703516505E+01 -0.93995285427E+01  0.19944745168E+03  0.00000000000E+00 0.  1.
          3    1    3    3  501    0  0.19920915078E+03 -0.23081053277E+01 -0.88449549756E+03  0.90665423305E+03  0.00000000000E+00 0.  1.
         21    1    1    2  502  501  0.37512808263E-02  0.37753677241E-01  0.21716650427E+00  0.22045567090E+00  0.00000000000E+00 0. -1.
<mgrwt>
<rscale>  1 0.65146958E+03</rscale>
<asrwt>0</asrwt>
<pdfrwt beam="1">  1        1 0.38662678E+00 0.65146958E+03</pdfrwt>
<pdfrwt beam="2">0</pdfrwt>
<totfact> 0.15335422E+00</totfact>
</mgrwt>
</event>
<event>
 6    1  0.3848910E-003  0.6444945E+03  0.7818608E-02  0.9817165E-01
          1   -1    0    0  502    0  0.00000000000E+00  0.00000000000E+00  0.10384334523E+03  0.10384334523E+03  0.00000000000E+00 0.  1.
         13   -1    0    0    0    0 -0.00000000000E+00 -0.00000000000E+00 -0.10000000000E+04  0.10000000000E+04  0.00000000000E+00 0.  1.
    9000005    2    1    2  501    0 -0.33400074813E-05  0.33589004289E-05 -0.89615669752E+03  0.11038433022E+04  0.64449453786E+03 0.  0.
         13    1    3    3    0    0  0.28553353069E+03 -0.65425665676E+02 -0.21807887975E+03  0.36519626596E+03  0.00000000000E+00 0.  1.
          1    1    3    3  501    0 -0.28553353403E+03  0.65425669035E+02 -0.67807781777E+03  0.73864703626E+03  0.00000000000E+00 0.  1.
         21    1    1    2  502  501  0.33400074847E-05 -0.33589004232E-05  0.42752644788E-04  0.43014259245E-04  0.00000000000E+00 0. -1.
<mgrwt>
<rscale>  1 0.64449454E+03</rscale>
<asrwt>0</asrwt>
<pdfrwt beam="1">  1        1 0.37761296E+00 0.64449454E+03</pdfrwt>
<pdfrwt beam="2">0</pdfrwt>
<totfact> 0.16829324E+00</totfact>
</mgrwt>
</event>
<event>
 6    1  0.3848910E-003  0.6658039E+03  0.7818608E-02  0.9777568E-01
          1   -1    0    0  502    0  0.00000000000E+00  0.00000000000E+00  0.11085211181E+03  0.11085211181E+03  0.00000000000E+00 0.  1.
         13   -1    0    0    0    0 -0.00000000000E+00 -0.00000000000E+00 -0.10000000000E+04  0.10000000000E+04  0.00000000000E+00 0.  1.
    9000005    2    1    2  501    0  0.35431732964E-03  0.42280917904E-03 -0.88917629183E+03  0.11108237028E+04  0.66580389063E+03 0.  0.
         13    1    3    3    0    0  0.52100348593E+02  0.32402618911E+03 -0.35145013548E+03  0.48085820704E+03  0.00000000000E+00 0.  1.
          1    1    3    3  501    0 -0.52099994276E+02 -0.32402576630E+03 -0.53772615636E+03  0.62996549577E+03  0.00000000000E+00 0.  1.
         21    1    1    2  502  501 -0.35431732964E-03 -0.42280917904E-03  0.28403640982E-01  0.28408997332E-01  0.00000000000E+00 0.  1.
<mgrwt>
<rscale>  1 0.66580389E+03</rscale>
<asrwt>0</asrwt>
<pdfrwt beam="1">  1        1 0.40309944E+00 0.66580389E+03</pdfrwt>
<pdfrwt beam="2">0</pdfrwt>
<totfact> 0.12920752E+00</totfact>
</mgrwt>
</event>
<event>
 6    1  0.3848910E-003  0.6530220E+03  0.7818608E-02  0.9801125E-01
          1   -1    0    0  502    0  0.00000000000E+00  0.00000000000E+00  0.10696378658E+03  0.10696378658E+03  0.00000000000E+00 0.  1.
         13   -1    0    0    0    0 -0.00000000000E+00 -0.00000000000E+00 -0.10000000000E+04  0.10000000000E+04  0.00000000000E+00 0.  1.
    9000005    2    1    2  501    0 -0.67290445015E-02 -0.15845172216E-01 -0.89339034150E+03  0.11066092403E+04  0.65302198140E+03 0.  0.
         13    1    3    3    0    0  0.11867342462E+03 -0.26392639986E+03 -0.70298612117E+03  0.76021708269E+03  0.00000000000E+00 0.  1.
          1    1    3    3  501    0 -0.11868015366E+03  0.26391055469E+03 -0.19040422033E+03  0.34639215763E+03  0.00000000000E+00 0.  1.
         21    1    1    2  502  501  0.67290445015E-02  0.15845172216E-01  0.35412808080E+00  0.35454625528E+00  0.00000000000E+00 0. -1.
<mgrwt>
<rscale>  1 0.65302198E+03</rscale>
<asrwt>0</asrwt>
<pdfrwt beam="1">  1        1 0.38896004E+00 0.65302198E+03</pdfrwt>
<pdfrwt beam="2">0</pdfrwt>
<totfact> 0.14970476E+00</totfact>
</mgrwt>
</event>
<event>
 6    1  0.3848910E-003  0.6492191E+03  0.7818608E-02  0.9808246E-01
          1   -1    0    0  502    0  0.00000000000E+00  0.00000000000E+00  0.10537376443E+03  0.10537376443E+03  0.00000000000E+00 0.  1.
         13   -1    0    0    0    0 -0.00000000000E+00 -0.00000000000E+00 -0.10000000000E+04  0.10000000000E+04  0.00000000000E+00 0.  1.
    9000005    2    1    2  501    0  0.10731474703E-04 -0.63957551873E-04 -0.89462863604E+03  0.11053713631E+04  0.64921911087E+03 0.  0.
         13    1    3    3    0    0  0.22539614408E+03 -0.17689159590E+03 -0.18754769914E+03  0.34244444501E+03  0.00000000000E+00 0.  1.
          3    1    3    3  501    0 -0.22539613335E+03  0.17689153194E+03 -0.70708093690E+03  0.76292691808E+03  0.00000000000E+00 0.  1.
         21    1    1    2  502  501 -0.10731474699E-04  0.63957551864E-04  0.24004710688E-02  0.24013469315E-02  0.00000000000E+00 0.  1.
<mgrwt>
<rscale>  1 0.64921911E+03</rscale>
<asrwt>0</asrwt>
<pdfrwt beam="1">  1        1 0.38317813E+00 0.64921911E+03</pdfrwt>
<pdfrwt beam="2">0</pdfrwt>
<totfact> 0.15890209E+00</totfact>
</mgrwt>
</event>
<event>
 6    1  0.3848910E-003  0.6488311E+03  0.7818608E-02  0.9808975E-01
          1   -1    0    0  502    0  0.00000000000E+00  0.00000000000E+00  0.10524691858E+03  0.10524691858E+03  0.00000000000E+00 0.  1.
         13   -1    0    0    0    0 -0.00000000000E+00 -0.00000000000E+00 -0.10000000000E+04  0.10000000000E+04  0.00000000000E+00 0.  1.
    9000005    2    1    2  501    0 -0.40612620538E-03 -0.25071753164E-03 -0.89475452230E+03  0.11052454007E+04  0.64883105707E+03 0.  0.
         13    1    3    3    0    0 -0.20019853173E+03 -0.12437149242E+03 -0.82712575653E+03  0.86004926449E+03  0.00000000000E+00 0.  1.
          3    1    3    3  501    0  0.20019812560E+03  0.12437124170E+03 -0.67628765765E+02  0.24519613622E+03  0.00000000000E+00 0.  1.
         21    1    1    2  502  501  0.40612620538E-03  0.25071753165E-03  0.14408802056E-02  0.15178713853E-02  0.00000000000E+00 0. -1.
<mgrwt>
<rscale>  1 0.64883106E+03</rscale>
<asrwt>0</asrwt>
<pdfrwt beam="1">  1        1 0.38271687E+00 0.64883106E+03</pdfrwt>
<pdfrwt beam="2">0</pdfrwt>
<totfact> 0.15966099E+00</totfact>
</mgrwt>
</event>
<event>
 6    1  0.3848910E-003  0.6582417E+03  0.7818608E-02  0.9791436E-01
          1   -1    0    0  502    0  0.00000000000E+00  0.00000000000E+00  0.12537818038E+03  0.12537818038E+03  0.00000000000E+00 0.  1.
         13   -1    0    0    0    0 -0.00000000000E+00 -0.00000000000E+00 -0.10000000000E+04  0.10000000000E+04  0.00000000000E+00 0.  1.
    9000005    2    1    2  501    0 -0.10951742677E+01  0.12656866929E+01 -0.89163395547E+03  0.11082839084E+04  0.65823955338E+03 0.  0.
         13    1    3    3    0    0 -0.16946281789E+02 -0.10408748878E+03 -0.97019630190E+03  0.97591098263E+03  0.00000000000E+00 0.  1.
          1    1    3    3  501    0  0.15851107522E+02  0.10535317547E+03  0.78562346437E+02  0.13237292574E+03  0.00000000000E+00 0.  1.
         21    1    1    2  502  501  0.10951742677E+01 -0.12656866929E+01  0.17012135848E+02  0.17094272011E+02  0.00000000000E+00 0. -1.
<mgrwt>
<rscale>  1 0.65824168E+03</rscale>
<asrwt>0</asrwt>
<pdfrwt beam="1">  1        1 0.45592162E+00 0.65824168E+03</pdfrwt>
<pdfrwt beam="2">0</pdfrwt>
<totfact> 0.74473274E-01</totfact>
</mgrwt>
</event>
<event>
 6    1  0.3848910E-003  0.6412788E+03  0.7818608E-02  0.9823283E-01
          1   -1    0    0  502    0  0.00000000000E+00  0.00000000000E+00  0.10281243645E+03  0.10281243645E+03  0.00000000000E+00 0.  1.
         13   -1    0    0    0    0 -0.00000000000E+00 -0.00000000000E+00 -0.10000000000E+04  0.10000000000E+04  0.00000000000E+00 0.  1.
    9000005    2    1    2  501    0 -0.26009706990E-03  0.90121250275E-03 -0.89719030100E+03  0.11028095428E+04  0.64127876263E+03 0.  0.
         13    1    3    3    0    0 -0.81824916300E+02  0.28072257139E+03 -0.67484896779E+03  0.73547373056E+03  0.00000000000E+00 0.  1.
          1    1    3    3  501    0  0.81824656203E+02 -0.28072167018E+03 -0.22234133320E+03  0.36733581220E+03  0.00000000000E+00 0.  1.
         21    1    1    2  502  501  0.26009706990E-03 -0.90121250274E-03  0.27374488523E-02  0.28936932595E-02  0.00000000000E+00 0. -1.
<mgrwt>
<rscale>  1 0.64127876E+03</rscale>
<asrwt>0</asrwt>
<pdfrwt beam="1">  1        1 0.37386419E+00 0.64127876E+03</pdfrwt>
<pdfrwt beam="2">0</pdfrwt>
<totfact> 0.17491594E+00</totfact>
</mgrwt>
</event>
<event>
 6    1  0.3848910E-003  0.6404467E+03  0.7818608E-02  0.9824872E-01
          1   -1    0    0  502    0  0.00000000000E+00  0.00000000000E+00  0.10296787331E+03  0.10296787331E+03  0.00000000000E+00 0.  1.
         13   -1    0    0    0    0 -0.00000000000E+00 -0.00000000000E+00 -0.10000000000E+04  0.10000000000E+04  0.00000000000E+00 0.  1.
    9000005    2    1    2  501    0 -0.92179925966E-01  0.96166261027E-01 -0.89744546958E+03  0.11025335952E+04  0.64044667228E+03 0.  0.
         13    1    3    3    0    0  0.28473054226E+03 -0.10044413051E+03 -0.26526870029E+03  0.40190544710E+03  0.00000000000E+00 0.  1.
          1    1    3    3  501    0 -0.28482272219E+03  0.10054029677E+03 -0.63217676929E+03  0.70062814815E+03  0.00000000000E+00 0.  1.
         21    1    1    2  502  501  0.92179925966E-01 -0.96166261027E-01  0.41334289166E+00  0.43427806138E+00  0.00000000000E+00 0.  1.
<mgrwt>
<rscale>  1 0.64044669E+03</rscale>
<asrwt>0</asrwt>
<pdfrwt beam="1">  1        1 0.37442942E+00 0.64044669E+03</pdfrwt>
<pdfrwt beam="2">0</pdfrwt>
<totfact> 0.17394362E+00</totfact>
</mgrwt>
</event>
<event>
 6    1  0.3848910E-003  0.6648590E+03  0.7818608E-02  0.9779290E-01
          1   -1    0    0  502    0  0.00000000000E+00  0.00000000000E+00  0.11065468758E+03  0.11065468758E+03  0.00000000000E+00 0.  1.
         13   -1    0    0    0    0 -0.00000000000E+00 -0.00000000000E+00 -0.10000000000E+04  0.10000000000E+04  0.00000000000E+00 0.  1.
    9000005    2    1    2  501    0  0.45596510680E-02  0.10044073071E-01 -0.88949040639E+03  0.11105091749E+04  0.66485896579E+03 0.  0.
         13    1    3    3    0    0  0.18486242715E+03 -0.27480295813E+03 -0.39700891470E+03  0.51701727353E+03  0.00000000000E+00 0.  1.
          1    1    3    3  501    0 -0.18485786750E+03  0.27481300221E+03 -0.49248149169E+03  0.59349190139E+03  0.00000000000E+00 0.  1.
         21    1    1    2  502  501 -0.45596510680E-02 -0.10044073071E-01  0.14509397346E+00  0.14551266253E+00  0.00000000000E+00 0.  1.
<mgrwt>
<rscale>  1 0.66485897E+03</rscale>
<asrwt>0</asrwt>
<pdfrwt beam="1">  1        1 0.40238153E+00 0.66485897E+03</pdfrwt>
<pdfrwt beam="2">0</pdfrwt>
<totfact> 0.13018808E+00</totfact>
</mgrwt>
</event>
<event>
 6    1  0.3848910E-003  0.6520262E+03  0.7818608E-02  0.9802985E-01
          1   -1    0    0  502    0  0.00000000000E+00  0.00000000000E+00  0.10629055963E+03  0.10629055963E+03  0.00000000000E+00 0.  1.
         13   -1    0    0    0    0 -0.00000000000E+00 -0.00000000000E+00 -0.10000000000E+04  0.10000000000E+04  0.00000000000E+00 0.  1.
    9000005    2    1    2  501    0 -0.89639886454E-04 -0.62952948710E-03 -0.89371544167E+03  0.11062845247E+04  0.65202619503E+03 0.  0.
         13    1    3    3    0    0 -0.19174290599E+03  0.24348412292E+03 -0.27521050775E+03  0.41447639702E+03  0.00000000000E+00 0.  1.
          3    1    3    3  501    0  0.19174281635E+03 -0.24348475245E+03 -0.61850493392E+03  0.69180812772E+03  0.00000000000E+00 0.  1.
         21    1    1    2  502  501  0.89639886468E-04  0.62952948709E-03  0.60012954027E-02  0.60348893275E-02  0.00000000000E+00 0.  1.
<mgrwt>
<rscale>  1 0.65202620E+03</rscale>
<asrwt>0</asrwt>
<pdfrwt beam="1">  1        1 0.38651194E+00 0.65202620E+03</pdfrwt>
<pdfrwt beam="2">0</pdfrwt>
<totfact> 0.15351804E+00</totfact>
</mgrwt>
</event>
<event>
 6    1  0.3848910E-003  0.6356757E+03  0.7818608E-02  0.9834035E-01
          1   -1    0    0  502    0  0.00000000000E+00  0.00000000000E+00  0.10108397516E+03  0.10108397516E+03  0.00000000000E+00 0.  1.
         13   -1    0    0    0    0 -0.00000000000E+00 -0.00000000000E+00 -0.10000000000E+04  0.10000000000E+04  0.00000000000E+00 0.  1.
    9000005    2    1    2  501    0  0.26402804860E-01 -0.27175609108E-01 -0.89897276602E+03  0.11010157463E+04  0.63567573340E+03 0.  0.
         13    1    3    3    0    0  0.11978935790E+03  0.28389052175E+03 -0.58445360898E+03  0.66070367008E+03  0.00000000000E+00 0.  1.
          3    1    3    3  501    0 -0.11976295509E+03 -0.28391769736E+03 -0.31451915704E+03  0.44031207618E+03  0.00000000000E+00 0.  1.
         21    1    1    2  502  501 -0.26402804860E-01  0.27175609108E-01  0.56741176405E-01  0.68228901022E-01  0.00000000000E+00 0.  1.
<mgrwt>
<rscale>  1 0.63567573E+03</rscale>
<asrwt>0</asrwt>
<pdfrwt beam="1">  1        1 0.36757887E+00 0.63567573E+03</pdfrwt>
<pdfrwt beam="2">0</pdfrwt>
<totfact> 0.18658903E+00</totfact>
</mgrwt>
</event>
<event>
 6    1  0.3848910E-003  0.6576533E+03  0.7818608E-02  0.9792523E-01
          1   -1    0    0  502    0  0.00000000000E+00  0.00000000000E+00  0.10812728837E+03  0.10812728837E+03  0.00000000000E+00 0.  1.
         13   -1    0    0    0    0 -0.00000000000E+00 -0.00000000000E+00 -0.10000000000E+04  0.10000000000E+04  0.00000000000E+00 0.  1.
    9000005    2    1    2  501    0 -0.49245873754E-04 -0.37638113042E-03 -0.89187292001E+03  0.11081268553E+04  0.65765326889E+03 0.  0.
         13    1    3    3    0    0  0.27681764288E+03 -0.17740183783E+03 -0.43708618954E+03  0.54694035924E+03  0.00000000000E+00 0.  1.
          1    1    3    3  501    0 -0.27681769213E+03  0.17740146145E+03 -0.45478673047E+03  0.56118649611E+03  0.00000000000E+00 0.  1.
         21    1    1    2  502  501  0.49245873767E-04  0.37638113040E-03  0.20838925369E-03  0.43302885869E-03  0.00000000000E+00 0.  1.
<mgrwt>
<rscale>  1 0.65765327E+03</rscale>
<asrwt>0</asrwt>
<pdfrwt beam="1">  1        1 0.39319097E+00 0.65765327E+03</pdfrwt>
<pdfrwt beam="2">0</pdfrwt>
<totfact> 0.14324792E+00</totfact>
</mgrwt>
</event>
<event>
 6    1  0.4245046E-003  0.6286647E+03  0.7818608E-02  0.9847658E-01
          1   -1    0    0  502    0  0.00000000000E+00  0.00000000000E+00  0.98804863244E+02  0.98804863244E+02  0.00000000000E+00 0.  1.
         13   -1    0    0    0    0 -0.00000000000E+00 -0.00000000000E+00 -0.10000000000E+04  0.10000000000E+04  0.00000000000E+00 0.  1.
    9000005    2    1    2  501    0 -0.10267931252E-05 -0.13707827975E-05 -0.90119518470E+03  0.10988048153E+04  0.62866466509E+03 0.  0.
         13    1    3    3    0    0 -0.20539688910E+02 -0.31004579570E+03 -0.36760666601E+03  0.48133661314E+03  0.00000000000E+00 0.  1.
          3    1    3    3  501    0  0.20539687884E+02  0.31004579433E+03 -0.53358851869E+03  0.61746820213E+03  0.00000000000E+00 0.  1.
         21    1    1    2  502  501  0.10267931217E-05  0.13707828000E-05  0.47944445794E-04  0.47975027172E-04  0.00000000000E+00 0.  1.
<mgrwt>
<rscale>  1 0.62866467E+03</rscale>
<asrwt>0</asrwt>
<pdfrwt beam="1">  1        1 0.35929117E+00 0.62866467E+03</pdfrwt>
<pdfrwt beam="2">0</pdfrwt>
<totfact> 0.20311123E+00</totfact>
</mgrwt>
</event>
<event>
 6    1  0.3848910E-003  0.6304910E+03  0.7818608E-02  0.9844091E-01
          1   -1    0    0  502    0  0.00000000000E+00  0.00000000000E+00  0.10340774492E+03  0.10340774492E+03  0.00000000000E+00 0.  1.
         13   -1    0    0    0    0 -0.00000000000E+00 -0.00000000000E+00 -0.10000000000E+04  0.10000000000E+04  0.00000000000E+00 0.  1.
    9000005    2    1    2  501    0  0.10779720868E+02 -0.44930910937E+01 -0.88724230889E+03  0.10884474059E+04  0.63038278092E+03 0.  0.
         13    1    3    3    0    0 -0.99304217659E+02  0.27246045377E+03 -0.63468776991E+03  0.69779982214E+03  0.00000000000E+00 0.  1.
          3    1    3    3  501    0  0.11008393853E+03 -0.27695354487E+03 -0.25255453899E+03  0.39064758376E+03  0.00000000000E+00 0.  1.
         21    1    1    2  502  501 -0.10779720868E+02  0.44930910937E+01 -0.93499461901E+01  0.14960339011E+02  0.00000000000E+00 0.  1.
<mgrwt>
<rscale>  1 0.63049095E+03</rscale>
<asrwt>0</asrwt>
<pdfrwt beam="1">  1        1 0.37602896E+00 0.63049095E+03</pdfrwt>
<pdfrwt beam="2">0</pdfrwt>
<totfact> 0.17146186E+00</totfact>
</mgrwt>
</event>
<event>
 6    1  0.3848910E-003  0.6534740E+03  0.7818608E-02  0.9800282E-01
          1   -1    0    0  502    0  0.00000000000E+00  0.00000000000E+00  0.10675740191E+03  0.10675740191E+03  0.00000000000E+00 0.  1.
         13   -1    0    0    0    0 -0.00000000000E+00 -0.00000000000E+00 -0.10000000000E+04  0.10000000000E+04  0.00000000000E+00 0.  1.
    9000005    2    1    2  501    0  0.17387918948E-03  0.53153287581E-04 -0.89324289613E+03  0.11067570528E+04  0.65347402580E+03 0.  0.
         13    1    3    3    0    0 -0.46615671506E+02  0.28441992556E+03 -0.18594566998E+03  0.34299199272E+03  0.00000000000E+00 0.  1.
          3    1    3    3  501    0  0.46615845385E+02 -0.28441987240E+03 -0.70729722615E+03  0.76376506006E+03  0.00000000000E+00 0.  1.
         21    1    1    2  502  501 -0.17387918948E-03 -0.53153287605E-04  0.29803784599E-03  0.34912147193E-03  0.00000000000E+00 0.  1.
<mgrwt>
<rscale>  1 0.65347403E+03</rscale>
<asrwt>0</asrwt>
<pdfrwt beam="1">  1        1 0.38820955E+00 0.65347403E+03</pdfrwt>
<pdfrwt beam="2">0</pdfrwt>
<totfact> 0.15084293E+00</totfact>
</mgrwt>
</event>
<event>
 6    1  0.3848910E-003  0.6394369E+03  0.7818608E-02  0.9826804E-01
          1   -1    0    0  502    0  0.00000000000E+00  0.00000000000E+00  0.10221992626E+03  0.10221992626E+03  0.00000000000E+00 0.  1.
         13   -1    0    0    0    0 -0.00000000000E+00 -0.00000000000E+00 -0.10000000000E+04  0.10000000000E+04  0.00000000000E+00 0.  1.
    9000005    2    1    2  501    0  0.34375142945E-04 -0.10224099611E-04 -0.89778009487E+03  0.11022198846E+04  0.63943692052E+03 0.  0.
         13    1    3    3    0    0 -0.29416838295E+03 -0.10981186820E+03 -0.55268981534E+03  0.63565691682E+03  0.00000000000E+00 0.  1.
          1    1    3    3  501    0  0.29416841732E+03  0.10981185798E+03 -0.34509027954E+03  0.46656296781E+03  0.00000000000E+00 0.  1.
         21    1    1    2  502  501 -0.34375142940E-04  0.10224099610E-04  0.21134461952E-04  0.41627492682E-04  0.00000000000E+00 0. -1.
<mgrwt>
<rscale>  1 0.63943692E+03</rscale>
<asrwt>0</asrwt>
<pdfrwt beam="1">  1        1 0.37170961E+00 0.63943692E+03</pdfrwt>
<pdfrwt beam="2">0</pdfrwt>
<totfact> 0.17883394E+00</totfact>
</mgrwt>
</event>
<event>
 6    1  0.3848910E-003  0.6529625E+03  0.7818608E-02  0.9801236E-01
          1   -1    0    0  502    0  0.00000000000E+00  0.00000000000E+00  0.10659290985E+03  0.10659290985E+03  0.00000000000E+00 0.  1.
         13   -1    0    0    0    0 -0.00000000000E+00 -0.00000000000E+00 -0.10000000000E+04  0.10000000000E+04  0.00000000000E+00 0.  1.
    9000005    2    1    2  501    0  0.22196989960E-04 -0.57936005945E-04 -0.89340999088E+03  0.11065900085E+04  0.65296250660E+03 0.  0.
         13    1    3    3    0    0 -0.20937616709E+03  0.10580780077E+03 -0.83150889386E+03  0.86396800324E+03  0.00000000000E+00 0.  1.
          1    1    3    3  501    0  0.20937618929E+03 -0.10580785871E+03 -0.61901097020E+02  0.24262200522E+03  0.00000000000E+00 0.  1.
         21    1    1    2  502  501 -0.22196989981E-04  0.57936005934E-04  0.29007304943E-02  0.29013939215E-02  0.00000000000E+00 0.  1.
<mgrwt>
<rscale>  1 0.65296251E+03</rscale>
<asrwt>0</asrwt>
<pdfrwt beam="1">  1        1 0.38761140E+00 0.65296251E+03</pdfrwt>
<pdfrwt beam="2">0</pdfrwt>
<totfact> 0.15178046E+00</totfact>
</mgrwt>
</event>
<event>
 6    1  0.3848910E-003  0.6475978E+03  0.7818608E-02  0.9811297E-01
          1   -1    0    0  502    0  0.00000000000E+00  0.00000000000E+00  0.10484667982E+03  0.10484667982E+03  0.00000000000E+00 0.  1.
         13   -1    0    0    0    0 -0.00000000000E+00 -0.00000000000E+00 -0.10000000000E+04  0.10000000000E+04  0.00000000000E+00 0.  1.
    9000005    2    1    2  501    0  0.67258184839E-03 -0.47461095275E-03 -0.89515407406E+03  0.11048455636E+04  0.64759779422E+03 0.  0.
         13    1    3    3    0    0 -0.17872941785E+03 -0.11748435753E+03 -0.86232637817E+03  0.88845571727E+03  0.00000000000E+00 0.  1.
          3    1    3    3  501    0  0.17873009043E+03  0.11748388292E+03 -0.32827695895E+02  0.21638984632E+03  0.00000000000E+00 0.  1.
         21    1    1    2  502  501 -0.67258184840E-03  0.47461095275E-03  0.75388098450E-03  0.11162250840E-02  0.00000000000E+00 0.  1.
<mgrwt>
<rscale>  1 0.64759779E+03</rscale>
<asrwt>0</asrwt>
<pdfrwt beam="1">  1        1 0.38126146E+00 0.64759779E+03</pdfrwt>
<pdfrwt beam="2">0</pdfrwt>
<totfact> 0.16207849E+00</totfact>
</mgrwt>
</event>
<event>
 6    1  0.3848910E-003  0.5876752E+03  0.7818608E-02  0.9931311E-01
          1   -1    0    0  502    0  0.00000000000E+00  0.00000000000E+00  0.98589901836E+02  0.98589901836E+02  0.00000000000E+00 0.  1.
         13   -1    0    0    0    0 -0.00000000000E+00 -0.00000000000E+00 -0.10000000000E+04  0.10000000000E+04  0.00000000000E+00 0.  1.
    9000005    2    1    2  501    0  0.37767911092E+01 -0.27203015030E+02 -0.89448849663E+03  0.10702671769E+04  0.58703312619E+03 0.  0.
         13    1    3    3    0    0  0.19013697824E+03  0.28609135792E+02 -0.84897424413E+03  0.87047562880E+03  0.00000000000E+00 0.  1.
          3    1    3    3  501    0 -0.18636018713E+03 -0.55812150822E+02 -0.45514252506E+02  0.19979154814E+03  0.00000000000E+00 0.  1.
         21    1    1    2  502  501 -0.37767911092E+01  0.27203015030E+02 -0.69216015290E+01  0.28322724896E+02  0.00000000000E+00 0. -1.
<mgrwt>
<rscale>  1 0.58767522E+03</rscale>
<asrwt>0</asrwt>
<pdfrwt beam="1">  1        1 0.35850949E+00 0.58767522E+03</pdfrwt>
<pdfrwt beam="2">0</pdfrwt>
<totfact> 0.20629161E+00</totfact>
</mgrwt>
</event>
<event>
 6    1  0.3848910E-003  0.6377531E+03  0.7818608E-02  0.9830035E-01
          1   -1    0    0  502    0  0.00000000000E+00  0.00000000000E+00  0.10168939955E+03  0.10168939955E+03  0.00000000000E+00 0.  1.
         13   -1    0    0    0    0 -0.00000000000E+00 -0.00000000000E+00 -0.10000000000E+04  0.10000000000E+04  0.00000000000E+00 0.  1.
    9000005    2    1    2  501    0  0.28093964883E-03 -0.75336633188E-04 -0.89831773808E+03  0.11016822560E+04  0.63775311415E+03 0.  0.
         13    1    3    3    0    0 -0.80854581036E+02  0.13061443742E+03 -0.93186907886E+03  0.94444564411E+03  0.00000000000E+00 0.  1.
          1    1    3    3  501    0  0.80854861975E+02 -0.13061451276E+03  0.33551340778E+02  0.15723661188E+03  0.00000000000E+00 0.  1.
         21    1    1    2  502  501 -0.28093964884E-03  0.75336633196E-04  0.71376355751E-02  0.71435596378E-02  0.00000000000E+00 0. -1.
<mgrwt>
<rscale>  1 0.63775311E+03</rscale>
<asrwt>0</asrwt>
<pdfrwt beam="1">  1        1 0.36978041E+00 0.63775311E+03</pdfrwt>
<pdfrwt beam="2">0</pdfrwt>
<totfact> 0.18241424E+00</totfact>
</mgrwt>
</event>
<event>
 6    1  0.3848910E-003  0.6549890E+03  0.7818608E-02  0.9797463E-01
          1   -1    0    0  502    0  0.00000000000E+00  0.00000000000E+00  0.10725292711E+03  0.10725292711E+03  0.00000000000E+00 0.  1.
         13   -1    0    0    0    0 -0.00000000000E+00 -0.00000000000E+00 -0.10000000000E+04  0.10000000000E+04  0.00000000000E+00 0.  1.
    9000005    2    1    2  501    0  0.35614525117E-04  0.40488841698E-03 -0.89274720042E+03  0.11072525011E+04  0.65498895974E+03 0.  0.
         13    1    3    3    0    0 -0.12353197296E+03  0.26817837934E+02 -0.95709560322E+03  0.96540734329E+03  0.00000000000E+00 0.  1.
          1    1    3    3  501    0  0.12353200857E+03 -0.26817433046E+02  0.64348402801E+02  0.14184515783E+03  0.00000000000E+00 0.  1.
         21    1    1    2  502  501 -0.35614525130E-04 -0.40488841698E-03  0.12752175549E-03  0.42598688094E-03  0.00000000000E+00 0.  1.
<mgrwt>
<rscale>  1 0.65498896E+03</rscale>
<asrwt>0</asrwt>
<pdfrwt beam="1">  1        1 0.39001147E+00 0.65498896E+03</pdfrwt>
<pdfrwt beam="2">0</pdfrwt>
<totfact> 0.14805249E+00</totfact>
</mgrwt>
</event>
<event>
 6    1  0.3848910E-003  0.6359229E+03  0.7818608E-02  0.9833558E-01
          1   -1    0    0  502    0  0.00000000000E+00  0.00000000000E+00  0.10128810864E+03  0.10128810864E+03  0.00000000000E+00 0.  1.
         13   -1    0    0    0    0 -0.00000000000E+00 -0.00000000000E+00 -0.10000000000E+04  0.10000000000E+04  0.00000000000E+00 0.  1.
    9000005    2    1    2  501    0 -0.34242085152E-01  0.38630053189E-01 -0.89889660436E+03  0.11010963179E+04  0.63592294601E+03 0.  0.
         13    1    3    3    0    0 -0.11063522921E+02  0.30757681376E+03 -0.58784191711E+03  0.66353900971E+03  0.00000000000E+00 0.  1.
          1    1    3    3  501    0  0.11029280836E+02 -0.30753818371E+03 -0.31105468725E+03  0.43755730817E+03  0.00000000000E+00 0.  1.
         21    1    1    2  502  501  0.34242085152E-01 -0.38630053189E-01  0.18471300475E+00  0.19179075976E+00  0.00000000000E+00 0.  1.
<mgrwt>
<rscale>  1 0.63592295E+03</rscale>
<asrwt>0</asrwt>
<pdfrwt beam="1">  1        1 0.36832117E+00 0.63592295E+03</pdfrwt>
<pdfrwt beam="2">0</pdfrwt>
<totfact> 0.18518656E+00</totfact>
</mgrwt>
</event>
<event>
 6    1  0.5795616E-003  0.6306771E+03  0.7818608E-02  0.9843728E-01
          1   -1    0    0  502    0  0.00000000000E+00  0.00000000000E+00  0.99438392862E+02  0.99438392862E+02  0.00000000000E+00 0.  1.
         13   -1    0    0    0    0 -0.00000000000E+00 -0.00000000000E+00 -0.10000000000E+04  0.10000000000E+04  0.00000000000E+00 0.  1.
    9000005    2    1    2  501    0  0.11170351755E-05 -0.62181035219E-05 -0.90056160261E+03  0.10994383851E+04  0.63067706674E+03 0.  0.
         13    1    3    3    0    0  0.55194941783E+01  0.16863474633E+03 -0.91469128280E+03  0.93012272594E+03  0.00000000000E+00 0.  1.
          1    1    3    3  501    0 -0.55194930613E+01 -0.16863475255E+03  0.14129680186E+02  0.16931565915E+03  0.00000000000E+00 0.  1.
         21    1    1    2  502  501 -0.11170351750E-05  0.62181035324E-05 -0.45244665581E-05  0.77706741508E-05  0.00000000000E+00 0. -1.
<mgrwt>
<rscale>  1 0.63067707E+03</rscale>
<asrwt>0</asrwt>
<pdfrwt beam="1">  1        1 0.36159492E+00 0.63067707E+03</pdfrwt>
<pdfrwt beam="2">0</pdfrwt>
<totfact> 0.19838053E+00</totfact>
</mgrwt>
</event>
<event>
 6    1  0.3848910E-003  0.6077620E+03  0.7818608E-02  0.9889432E-01
          1   -1    0    0  502    0  0.00000000000E+00  0.00000000000E+00  0.10679314612E+03  0.10679314612E+03  0.00000000000E+00 0.  1.
         13   -1    0    0    0    0 -0.00000000000E+00 -0.00000000000E+00 -0.10000000000E+04  0.10000000000E+04  0.00000000000E+00 0.  1.
    9000005    2    1    2  501    0 -0.22038171013E+02  0.25627144289E+02 -0.88212449500E+03  0.10712227907E+04  0.60682139971E+03 0.  0.
         13    1    3    3    0    0  0.85590195762E+02  0.22369531856E+03 -0.10402051897E+03  0.26112362115E+03  0.00000000000E+00 0.  1.
          1    1    3    3  501    0 -0.10762836677E+03 -0.19806817427E+03 -0.77810397603E+03  0.81009916956E+03  0.00000000000E+00 0.  1.
         21    1    1    2  502  501  0.22038171013E+02 -0.25627144289E+02 -0.11082358876E+02  0.35570355414E+02  0.00000000000E+00 0.  1.
<mgrwt>
<rscale>  1 0.60776200E+03</rscale>
<asrwt>0</asrwt>
<pdfrwt beam="1">  1        1 0.38833953E+00 0.60776200E+03</pdfrwt>
<pdfrwt beam="2">0</pdfrwt>
<totfact> 0.15196459E+00</totfact>
</mgrwt>
</event>
<event>
 6    1  0.3848910E-003  0.6164741E+03  0.7818608E-02  0.9871805E-01
          1   -1    0    0  502    0  0.00000000000E+00  0.00000000000E+00  0.95054148972E+02  0.95054148972E+02  0.00000000000E+00 0.  1.
         13   -1    0    0    0    0 -0.00000000000E+00 -0.00000000000E+00 -0.10000000000E+04  0.10000000000E+04  0.00000000000E+00 0.  1.
    9000005    2    1    2  501    0 -0.26704924541E-02 -0.17428833282E-02 -0.90498984448E+03  0.10950100401E+04  0.61647414325E+03 0.  0.
         13    1    3    3    0    0 -0.20230602716E+03 -0.10698737315E+03 -0.81926808231E+03  0.85063165785E+03  0.00000000000E+00 0.  1.
          1    1    3    3  501    0  0.20230335667E+03  0.10698563026E+03 -0.85721762168E+02  0.24437838225E+03  0.00000000000E+00 0.  1.
         21    1    1    2  502  501  0.26704924541E-02  0.17428833282E-02  0.43993450120E-01  0.44108874681E-01  0.00000000000E+00 0.  1.
<mgrwt>
<rscale>  1 0.61647414E+03</rscale>
<asrwt>0</asrwt>
<pdfrwt beam="1">  1        1 0.34565218E+00 0.61647414E+03</pdfrwt>
<pdfrwt beam="2">0</pdfrwt>
<totfact> 0.23343533E+00</totfact>
</mgrwt>
</event>
<event>
 6    1  0.3848910E-003  0.6450988E+03  0.7818608E-02  0.9816020E-01
          1   -1    0    0  502    0  0.00000000000E+00  0.00000000000E+00  0.10615664219E+03  0.10615664219E+03  0.00000000000E+00 0.  1.
         13   -1    0    0    0    0 -0.00000000000E+00 -0.00000000000E+00 -0.10000000000E+04  0.10000000000E+04  0.00000000000E+00 0.  1.
    9000005    2    1    2  501    0  0.13951124070E+00  0.10596649163E+01 -0.89581205170E+03  0.11039165286E+04  0.64509792115E+03 0.  0.
         13    1    3    3    0    0  0.53335288414E+02 -0.31272095057E+03 -0.35231769336E+03  0.47409577405E+03  0.00000000000E+00 0.  1.
          3    1    3    3  501    0 -0.53195777174E+02  0.31378061548E+03 -0.54349435834E+03  0.62982075459E+03  0.00000000000E+00 0.  1.
         21    1    1    2  502  501 -0.13951124070E+00 -0.10596649163E+01  0.19686938909E+01  0.22401135590E+01  0.00000000000E+00 0.  1.
<mgrwt>
<rscale>  1 0.64509881E+03</rscale>
<asrwt>0</asrwt>
<pdfrwt beam="1">  1        1 0.38602497E+00 0.64509881E+03</pdfrwt>
<pdfrwt beam="2">0</pdfrwt>
<totfact> 0.15448023E+00</totfact>
</mgrwt>
</event>
<event>
 6    1  0.3848910E-003  0.6532173E+03  0.7818608E-02  0.9800761E-01
          1   -1    0    0  502    0  0.00000000000E+00  0.00000000000E+00  0.10669478372E+03  0.10669478372E+03  0.00000000000E+00 0.  1.
         13   -1    0    0    0    0 -0.00000000000E+00 -0.00000000000E+00 -0.10000000000E+04  0.10000000000E+04  0.00000000000E+00 0.  1.
    9000005    2    1    2  501    0 -0.31452836354E-02  0.47706488317E-02 -0.89332637813E+03  0.11066728640E+04  0.65321727621E+03 0.  0.
         13    1    3    3    0    0 -0.36025358740E+02  0.31358389059E+03 -0.58883839798E+03  0.66810428965E+03  0.00000000000E+00 0.  1.
          1    1    3    3  501    0  0.36022213456E+02 -0.31357911994E+03 -0.30448798015E+03  0.43856857432E+03  0.00000000000E+00 0.  1.
         21    1    1    2  502  501  0.31452836354E-02 -0.47706488317E-02  0.21161845961E-01  0.21919754194E-01  0.00000000000E+00 0. -1.
<mgrwt>
<rscale>  1 0.65321728E+03</rscale>
<asrwt>0</asrwt>
<pdfrwt beam="1">  1        1 0.38798185E+00 0.65321728E+03</pdfrwt>
<pdfrwt beam="2">0</pdfrwt>
<totfact> 0.15120091E+00</totfact>
</mgrwt>
</event>
<event>
 6    1  0.3848910E-003  0.6555569E+03  0.7818608E-02  0.9796408E-01
          1   -1    0    0  502    0  0.00000000000E+00  0.00000000000E+00  0.10803127235E+03  0.10803127235E+03  0.00000000000E+00 0.  1.
         13   -1    0    0    0    0 -0.00000000000E+00 -0.00000000000E+00 -0.10000000000E+04  0.10000000000E+04  0.00000000000E+00 0.  1.
    9000005    2    1    2  501    0 -0.79779616885E-01  0.33693166898E-01 -0.89255779626E+03  0.11074358718E+04  0.65555684950E+03 0.  0.
         13    1    3    3    0    0 -0.14211126110E+03 -0.78396144866E+02 -0.92739571921E+03  0.94149051300E+03  0.00000000000E+00 0.  1.
          3    1    3    3  501    0  0.14203148148E+03  0.78429838033E+02  0.34837922945E+02  0.16594535878E+03  0.00000000000E+00 0.  1.
         21    1    1    2  502  501  0.79779616885E-01 -0.33693166898E-01  0.58906861190E+00  0.59540057633E+00  0.00000000000E+00 0.  1.
<mgrwt>
<rscale>  1 0.65555686E+03</rscale>
<asrwt>0</asrwt>
<pdfrwt beam="1">  1        1 0.39284182E+00 0.65555686E+03</pdfrwt>
<pdfrwt beam="2">0</pdfrwt>
<totfact> 0.14381646E+00</totfact>
</mgrwt>
</event>
<event>
 6    1  0.3848910E-003  0.6476466E+03  0.7818608E-02  0.9811205E-01
          1   -1    0    0  502    0  0.00000000000E+00  0.00000000000E+00  0.10493820957E+03  0.10493820957E+03  0.00000000000E+00 0.  1.
         13   -1    0    0    0    0 -0.00000000000E+00 -0.00000000000E+00 -0.10000000000E+04  0.10000000000E+04  0.00000000000E+00 0.  1.
    9000005    2    1    2  501    0 -0.98156085049E-01 -0.47284457547E-01 -0.89509315965E+03  0.11048248320E+04  0.64764661134E+03 0.  0.
         13    1    3    3    0    0  0.21142069944E+03 -0.24420572653E+03 -0.48632182722E+03  0.58381852373E+03  0.00000000000E+00 0.  1.
          1    1    3    3  501    0 -0.21151885553E+03  0.24415844207E+03 -0.40877133243E+03  0.52100630831E+03  0.00000000000E+00 0.  1.
         21    1    1    2  502  501  0.98156085049E-01  0.47284457547E-01  0.31369214922E-01  0.11337753129E+00  0.00000000000E+00 0.  1.
<mgrwt>
<rscale>  1 0.64764662E+03</rscale>
<asrwt>0</asrwt>
<pdfrwt beam="1">  1        1 0.38159429E+00 0.64764662E+03</pdfrwt>
<pdfrwt beam="2">0</pdfrwt>
<totfact> 0.16152952E+00</totfact>
</mgrwt>
</event>
<event>
 6    1  0.3848910E-003  0.6632812E+03  0.7818608E-02  0.9782172E-01
          1   -1    0    0  502    0  0.00000000000E+00  0.00000000000E+00  0.10998554222E+03  0.10998554222E+03  0.00000000000E+00 0.  1.
         13   -1    0    0    0    0 -0.00000000000E+00 -0.00000000000E+00 -0.10000000000E+04  0.10000000000E+04  0.00000000000E+00 0.  1.
    9000005    2    1    2  501    0  0.85763310551E-05 -0.22715236767E-05 -0.89001451744E+03  0.11099854819E+04  0.66328118379E+03 0.  0.
         13    1    3    3    0    0  0.17701349928E+03 -0.41436490078E+02 -0.90918126801E+03  0.92717923819E+03  0.00000000000E+00 0.  1.
          3    1    3    3  501    0 -0.17701349070E+03  0.41436487807E+02  0.19166750566E+02  0.18280624371E+03  0.00000000000E+00 0.  1.
         21    1    1    2  502  501 -0.85763310512E-05  0.22715236783E-05  0.59666999549E-04  0.60322998179E-04  0.00000000000E+00 0.  1.
<mgrwt>
<rscale>  1 0.66328118E+03</rscale>
<asrwt>0</asrwt>
<pdfrwt beam="1">  1        1 0.39994827E+00 0.66328118E+03</pdfrwt>
<pdfrwt beam="2">0</pdfrwt>
<totfact> 0.13352345E+00</totfact>
</mgrwt>
</event>
<event>
 6    1  0.3848910E-003  0.6501758E+03  0.7818608E-02  0.9806449E-01
          1   -1    0    0  502    0  0.00000000000E+00  0.00000000000E+00  0.10570910895E+03  0.10570910895E+03  0.00000000000E+00 0.  1.
         13   -1    0    0    0    0 -0.00000000000E+00 -0.00000000000E+00 -0.10000000000E+04  0.10000000000E+04  0.00000000000E+00 0.  1.
    9000005    2    1    2  501    0  0.10947905165E-01 -0.59954149688E-01 -0.89427250329E+03  0.11056454500E+04  0.65017578176E+03 0.  0.
         13    1    3    3    0    0 -0.18860615602E+03  0.64892927688E+02 -0.88364359711E+03  0.90587492562E+03  0.00000000000E+00 0.  1.
          1    1    3    3  501    0  0.18861710393E+03 -0.64952881838E+02 -0.10628906174E+02  0.19977052435E+03  0.00000000000E+00 0.  1.
         21    1    1    2  502  501 -0.10947905165E-01  0.59954149688E-01 -0.18387760352E-01  0.63658985407E-01  0.00000000000E+00 0.  1.
<mgrwt>
<rscale>  1 0.65017578E+03</rscale>
<asrwt>0</asrwt>
<pdfrwt beam="1">  1        1 0.38439757E+00 0.65017578E+03</pdfrwt>
<pdfrwt beam="2">0</pdfrwt>
<totfact> 0.15691426E+00</totfact>
</mgrwt>
</event>
<event>
 6    1  0.3848910E-003  0.6676228E+03  0.7818608E-02  0.9774262E-01
          1   -1    0    0  502    0  0.00000000000E+00  0.00000000000E+00  0.11413195061E+03  0.11413195061E+03  0.00000000000E+00 0.  1.
         13   -1    0    0    0    0 -0.00000000000E+00 -0.00000000000E+00 -0.10000000000E+04  0.10000000000E+04  0.00000000000E+00 0.  1.
    9000005    2    1    2  501    0  0.49175212772E-01 -0.16725334552E-01 -0.88856968450E+03  0.11114298162E+04  0.66762275986E+03 0.  0.
         13    1    3    3    0    0 -0.21743602292E+03 -0.12410918889E+03 -0.76737277103E+02  0.26185897832E+03  0.00000000000E+00 0.  1.
          3    1    3    3  501    0  0.21748519813E+03  0.12409246356E+03 -0.81183240740E+03  0.84957083791E+03  0.00000000000E+00 0.  1.
         21    1    1    2  502  501 -0.49175212772E-01  0.16725334552E-01  0.27016351148E+01  0.27021343845E+01  0.00000000000E+00 0.  1.
<mgrwt>
<rscale>  1 0.66762276E+03</rscale>
<asrwt>0</asrwt>
<pdfrwt beam="1">  1        1 0.41502615E+00 0.66762276E+03</pdfrwt>
<pdfrwt beam="2">0</pdfrwt>
<totfact> 0.11420159E+00</totfact>
</mgrwt>
</event>
<event>
 6    1  0.3848910E-003  0.6591987E+03  0.7818608E-02  0.9789670E-01
          1   -1    0    0  502    0  0.00000000000E+00  0.00000000000E+00  0.10863797855E+03  0.10863797855E+03  0.00000000000E+00 0.  1.
         13   -1    0    0    0    0 -0.00000000000E+00 -0.00000000000E+00 -0.10000000000E+04  0.10000000000E+04  0.00000000000E+00 0.  1.
    9000005    2    1    2  501    0 -0.13281983827E-02 -0.22289811697E-02 -0.89136340318E+03  0.11086350389E+04  0.65919870517E+03 0.  0.
         13    1    3    3    0    0 -0.12944760019E+02 -0.16128034639E+03  0.37250131237E+02  0.16603159104E+03  0.00000000000E+00 0.  1.
          3    1    3    3  501    0  0.12943431821E+02  0.16127811741E+03 -0.92861353442E+03  0.94260344785E+03  0.00000000000E+00 0.  1.
         21    1    1    2  502  501  0.13281983827E-02  0.22289811697E-02  0.13817375859E-02  0.29396711984E-02  0.00000000000E+00 0. -1.
<mgrwt>
<rscale>  1 0.65919871E+03</rscale>
<asrwt>0</asrwt>
<pdfrwt beam="1">  1        1 0.39504803E+00 0.65919871E+03</pdfrwt>
<pdfrwt beam="2">0</pdfrwt>
<totfact> 0.14051070E+00</totfact>
</mgrwt>
</event>
<event>
 6    1  0.3848910E-003  0.6235836E+03  0.7818608E-02  0.9857651E-01
          1   -1    0    0  502    0  0.00000000000E+00  0.00000000000E+00  0.97227633324E+02  0.97227633324E+02  0.00000000000E+00 0.  1.
         13   -1    0    0    0    0 -0.00000000000E+00 -0.00000000000E+00 -0.10000000000E+04  0.10000000000E+04  0.00000000000E+00 0.  1.
    9000005    2    1    2  501    0  0.15700184219E-02  0.78812745962E-02 -0.90278456306E+03  0.10972130275E+04  0.62358356317E+03 0.  0.
         13    1    3    3    0    0  0.21019295692E+03 -0.20012903289E+03 -0.65185334321E+03  0.71354431537E+03  0.00000000000E+00 0.  1.
          1    1    3    3  501    0 -0.21019138690E+03  0.20013691416E+03 -0.25093121985E+03  0.38366871209E+03  0.00000000000E+00 0.  1.
         21    1    1    2  502  501 -0.15700184219E-02 -0.78812745962E-02  0.12196385866E-01  0.14605864415E-01  0.00000000000E+00 0. -1.
<mgrwt>
<rscale>  1 0.62358356E+03</rscale>
<asrwt>0</asrwt>
<pdfrwt beam="1">  1        1 0.35355578E+00 0.62358356E+03</pdfrwt>
<pdfrwt beam="2">0</pdfrwt>
<totfact> 0.21536754E+00</totfact>
</mgrwt>
</event>
<event>
 6    1  0.3848910E-003  0.6505077E+03  0.7818608E-02  0.9805827E-01
          1   -1    0    0  502    0  0.00000000000E+00  0.00000000000E+00  0.10583328430E+03  0.10583328430E+03  0.00000000000E+00 0.  1.
         13   -1    0    0    0    0 -0.00000000000E+00 -0.00000000000E+00 -0.10000000000E+04  0.10000000000E+04  0.00000000000E+00 0.  1.
    9000005    2    1    2  501    0 -0.20754608164E-02  0.66773127958E-03 -0.89420989577E+03  0.11057900492E+04  0.65050772114E+03 0.  0.
         13    1    3    3    0    0  0.15815558811E+03 -0.25102825093E+03 -0.22055788001E+03  0.36969467301E+03  0.00000000000E+00 0.  1.
          1    1    3    3  501    0 -0.15815766357E+03  0.25102891866E+03 -0.67365201576E+03  0.73609537622E+03  0.00000000000E+00 0.  1.
         21    1    1    2  502  501  0.20754608164E-02 -0.66773127956E-03  0.43180069881E-01  0.43235076473E-01  0.00000000000E+00 0. -1.
<mgrwt>
<rscale>  1 0.65050772E+03</rscale>
<asrwt>0</asrwt>
<pdfrwt beam="1">  1        1 0.38484912E+00 0.65050772E+03</pdfrwt>
<pdfrwt beam="2">0</pdfrwt>
<totfact> 0.15618484E+00</totfact>
</mgrwt>
</event>
<event>
 6    1  0.3848910E-003  0.6639085E+03  0.7818608E-02  0.9781025E-01
          1   -1    0    0  502    0  0.00000000000E+00  0.00000000000E+00  0.14935123790E+03  0.14935123790E+03  0.00000000000E+00 0.  1.
         13   -1    0    0    0    0 -0.00000000000E+00 -0.00000000000E+00 -0.10000000000E+04  0.10000000000E+04  0.00000000000E+00 0.  1.
    9000005    2    1    2  501    0  0.23079038712E+02  0.30129738667E+02 -0.87930495788E+03  0.11017947374E+04  0.66282274502E+03 0.  0.
         13    1    3    3    0    0  0.29988520370E+03 -0.80523825096E+02 -0.66725650526E+03  0.73596634815E+03  0.00000000000E+00 0.  1.
          1    1    3    3  501    0 -0.27680616499E+03  0.11065356376E+03 -0.21204845262E+03  0.36582838928E+03  0.00000000000E+00 0.  1.
         21    1    1    2  502  501 -0.23079038712E+02 -0.30129738667E+02  0.28656195774E+02  0.47556500463E+02  0.00000000000E+00 0.  1.
<mgrwt>
<rscale>  1 0.66390845E+03</rscale>
<asrwt>0</asrwt>
<pdfrwt beam="1">  1        1 0.54309656E+00 0.66390845E+03</pdfrwt>
<pdfrwt beam="2">0</pdfrwt>
<totfact> 0.28281163E-01</totfact>
</mgrwt>
</event>
<event>
 6    1  0.3848910E-003  0.6456265E+03  0.7818608E-02  0.9815021E-01
          1   -1    0    0  502    0  0.00000000000E+00  0.00000000000E+00  0.10437546767E+03  0.10437546767E+03  0.00000000000E+00 0.  1.
         13   -1    0    0    0    0 -0.00000000000E+00 -0.00000000000E+00 -0.10000000000E+04  0.10000000000E+04  0.00000000000E+00 0.  1.
    9000005    2    1    2  501    0  0.66214080406E-01  0.17683529625E+00 -0.89573060864E+03  0.11041588869E+04  0.64562643123E+03 0.  0.
         13    1    3    3    0    0 -0.29406767733E+03 -0.13239088281E+03 -0.42598281330E+03  0.53428878140E+03  0.00000000000E+00 0.  1.
          3    1    3    3  501    0  0.29413389142E+03  0.13256771810E+03 -0.46974779535E+03  0.56987010555E+03  0.00000000000E+00 0.  1.
         21    1    1    2  502  501 -0.66214080406E-01 -0.17683529625E+00  0.10607631119E+00  0.21658072453E+00  0.00000000000E+00 0. -1.
<mgrwt>
<rscale>  1 0.64562646E+03</rscale>
<asrwt>0</asrwt>
<pdfrwt beam="1">  1        1 0.37954796E+00 0.64562646E+03</pdfrwt>
<pdfrwt beam="2">0</pdfrwt>
<totfact> 0.16498508E+00</totfact>
</mgrwt>
</event>
<event>
 6    1  0.3848910E-003  0.6991365E+03  0.7818608E-02  0.9718710E-01
          1   -1    0    0  502    0  0.00000000000E+00  0.00000000000E+00  0.12366953783E+03  0.12366953783E+03  0.00000000000E+00 0.  1.
         13   -1    0    0    0    0 -0.00000000000E+00 -0.00000000000E+00 -0.10000000000E+04  0.10000000000E+04  0.00000000000E+00 0.  1.
    9000005    2    1    2  501    0 -0.96247762067E-01  0.28519689000E+00 -0.87778476020E+03  0.11221844171E+04  0.69913638877E+03 0.  0.
         13    1    3    3    0    0  0.24692596247E+03 -0.24482909552E+03 -0.49410858140E+03  0.60419947631E+03  0.00000000000E+00 0.  1.
          3    1    3    3  501    0 -0.24702221023E+03  0.24511429241E+03 -0.38367617880E+03  0.51798494077E+03  0.00000000000E+00 0.  1.
         21    1    1    2  502  501  0.96247762067E-01 -0.28519689000E+00  0.14542980228E+01  0.14851207483E+01  0.00000000000E+00 0. -1.
<mgrwt>
<rscale>  1 0.69913645E+03</rscale>
<asrwt>0</asrwt>
<pdfrwt beam="1">  1        1 0.44970836E+00 0.69913645E+03</pdfrwt>
<pdfrwt beam="2">0</pdfrwt>
<totfact> 0.78906657E-01</totfact>
</mgrwt>
</event>
<event>
 6    1  0.3848910E-003  0.6415800E+03  0.7818608E-02  0.9822708E-01
          1   -1    0    0  502    0  0.00000000000E+00  0.00000000000E+00  0.10615469797E+03  0.10615469797E+03  0.00000000000E+00 0.  1.
         13   -1    0    0    0    0 -0.00000000000E+00 -0.00000000000E+00 -0.10000000000E+04  0.10000000000E+04  0.00000000000E+00 0.  1.
    9000005    2    1    2  501    0 -0.85831736109E+00  0.30596536806E+00 -0.89702314692E+03  0.11028487909E+04  0.64157937867E+03 0.  0.
         13    1    3    3    0    0 -0.12623938881E+03 -0.24107420454E+03 -0.15642771029E+03  0.31388339224E+03  0.00000000000E+00 0.  1.
          1    1    3    3  501    0  0.12538107145E+03  0.24138016991E+03 -0.74059543663E+03  0.78896539864E+03  0.00000000000E+00 0.  1.
         21    1    1    2  502  501  0.85831736109E+00 -0.30596536806E+00  0.31778448861E+01  0.33059070796E+01  0.00000000000E+00 0. -1.
<mgrwt>
<rscale>  1 0.64158003E+03</rscale>
<asrwt>0</asrwt>
<pdfrwt beam="1">  1        1 0.38601790E+00 0.64158003E+03</pdfrwt>
<pdfrwt beam="2">0</pdfrwt>
<totfact> 0.15459294E+00</totfact>
</mgrwt>
</event>
<event>
 6    1  0.3848910E-003  0.6436189E+03  0.7818608E-02  0.9818827E-01
          1   -1    0    0  502    0  0.00000000000E+00  0.00000000000E+00  0.10470299979E+03  0.10470299979E+03  0.00000000000E+00 0.  1.
         13   -1    0    0    0    0 -0.00000000000E+00 -0.00000000000E+00 -0.10000000000E+04  0.10000000000E+04  0.00000000000E+00 0.  1.
    9000005    2    1    2  501    0  0.23814495736E+01 -0.15594004270E+01 -0.89398380993E+03  0.11015681153E+04  0.64361258324E+03 0.  0.
         13    1    3    3    0    0  0.18635774111E+03 -0.14105583067E+03 -0.67256396110E+02  0.24320645110E+03  0.00000000000E+00 0.  1.
          3    1    3    3  501    0 -0.18397629154E+03  0.13949643024E+03 -0.82672741382E+03  0.85836166425E+03  0.00000000000E+00 0.  1.
         21    1    1    2  502  501 -0.23814495736E+01  0.15594004270E+01 -0.13131902797E+01  0.31348844435E+01  0.00000000000E+00 0. -1.
<mgrwt>
<rscale>  1 0.64361888E+03</rscale>
<asrwt>0</asrwt>
<pdfrwt beam="1">  1        1 0.38073898E+00 0.64361888E+03</pdfrwt>
<pdfrwt beam="2">0</pdfrwt>
<totfact> 0.16306105E+00</totfact>
</mgrwt>
</event>
<event>
 6    1  0.3848910E-003  0.6607403E+03  0.7818608E-02  0.9786832E-01
          1   -1    0    0  502    0  0.00000000000E+00  0.00000000000E+00  0.10914542904E+03  0.10914542904E+03  0.00000000000E+00 0.  1.
         13   -1    0    0    0    0 -0.00000000000E+00 -0.00000000000E+00 -0.10000000000E+04  0.10000000000E+04  0.00000000000E+00 0.  1.
    9000005    2    1    2  501    0  0.32647538267E-03  0.43070104827E-03 -0.89085546819E+03  0.11091443816E+04  0.66074033784E+03 0.  0.
         13    1    3    3    0    0  0.61418785810E+02 -0.10818027012E+03 -0.95918217025E+03  0.96721542265E+03  0.00000000000E+00 0.  1.
          1    1    3    3  501    0 -0.61418459335E+02  0.10818070082E+03  0.68326702060E+02  0.14192895896E+03  0.00000000000E+00 0.  1.
         21    1    1    2  502  501 -0.32647538267E-03 -0.43070104828E-03  0.89722562103E-03  0.10474270302E-02  0.00000000000E+00 0. -1.
<mgrwt>
<rscale>  1 0.66074034E+03</rscale>
<asrwt>0</asrwt>
<pdfrwt beam="1">  1        1 0.39689331E+00 0.66074034E+03</pdfrwt>
<pdfrwt beam="2">0</pdfrwt>
<totfact> 0.13783978E+00</totfact>
</mgrwt>
</event>
<event>
 6    1  0.3848910E-003  0.5360230E+03  0.7818608E-02  0.1004782E+00
          1   -1    0    0  502    0  0.00000000000E+00  0.00000000000E+00  0.71830279159E+02  0.71830279159E+02  0.00000000000E+00 0.  1.
         13   -1    0    0    0    0 -0.00000000000E+00 -0.00000000000E+00 -0.10000000000E+04  0.10000000000E+04  0.00000000000E+00 0.  1.
    9000005    2    1    2  501    0  0.26778343738E-05  0.20989041616E-05 -0.92816983749E+03  0.10718301625E+04  0.53602299386E+03 0.  0.
         13    1    3    3    0    0 -0.18254415202E+03 -0.14277173414E+03 -0.73328171733E+03  0.76903069671E+03  0.00000000000E+00 0.  1.
          3    1    3    3  501    0  0.18254415470E+03  0.14277173624E+03 -0.19488812015E+03  0.30279946575E+03  0.00000000000E+00 0.  1.
         21    1    1    2  502  501 -0.26778343479E-05 -0.20989041438E-05  0.11664663439E-03  0.11669624463E-03  0.00000000000E+00 0. -1.
<mgrwt>
<rscale>  1 0.53602299E+03</rscale>
<asrwt>0</asrwt>
<pdfrwt beam="1">  1        1 0.26120157E+00 0.53602299E+03</pdfrwt>
<pdfrwt beam="2">0</pdfrwt>
<totfact> 0.54881805E+00</totfact>
</mgrwt>
</event>
<event>
 6    1  0.3848910E-003  0.6011607E+03  0.7818608E-02  0.9903001E-01
          1   -1    0    0  502    0  0.00000000000E+00  0.00000000000E+00  0.90425872588E+02  0.90425872588E+02  0.00000000000E+00 0.  1.
         13   -1    0    0    0    0 -0.00000000000E+00 -0.00000000000E+00 -0.10000000000E+04  0.10000000000E+04  0.00000000000E+00 0.  1.
    9000005    2    1    2  501    0 -0.48327173527E-02 -0.15418086776E-02 -0.90965136447E+03  0.10903484691E+04  0.60116069334E+03 0.  0.
         13    1    3    3    0    0  0.26658517156E+03 -0.18667527799E+02 -0.20526922361E+03  0.33697415992E+03  0.00000000000E+00 0.  1.
          1    1    3    3  501    0 -0.26659000428E+03  0.18665985990E+02 -0.70438214086E+03  0.75337430921E+03  0.00000000000E+00 0.  1.
         21    1    1    2  502  501  0.48327173527E-02  0.15418086776E-02  0.77237058160E-01  0.77403459123E-01  0.00000000000E+00 0.  1.
<mgrwt>
<rscale>  1 0.60116069E+03</rscale>
<asrwt>0</asrwt>
<pdfrwt beam="1">  1        1 0.32882205E+00 0.60116069E+03</pdfrwt>
<pdfrwt beam="2">0</pdfrwt>
<totfact> 0.27694256E+00</totfact>
</mgrwt>
</event>
<event>
 6    1  0.3848910E-003  0.6527005E+03  0.7818608E-02  0.9801725E-01
          1   -1    0    0  502    0  0.00000000000E+00  0.00000000000E+00  0.10844539607E+03  0.10844539607E+03  0.00000000000E+00 0.  1.
         13   -1    0    0    0    0 -0.00000000000E+00 -0.00000000000E+00 -0.10000000000E+04  0.10000000000E+04  0.00000000000E+00 0.  1.
    9000005    2    1    2  501    0 -0.24723321426E-02 -0.23571097516E+00 -0.89348760116E+03  0.11064980789E+04  0.65270042874E+03 0.  0.
         13    1    3    3    0    0  0.34329407627E+01 -0.30487661777E+03 -0.64470160632E+03  0.71316316389E+03  0.00000000000E+00 0.  1.
          1    1    3    3  501    0 -0.34354130948E+01  0.30464090679E+03 -0.24878599484E+03  0.39333491503E+03  0.00000000000E+00 0.  1.
         21    1    1    2  502  501  0.24723321426E-02  0.23571097516E+00  0.19329972242E+01  0.19473171403E+01  0.00000000000E+00 0. -1.
<mgrwt>
<rscale>  1 0.65270047E+03</rscale>
<asrwt>0</asrwt>
<pdfrwt beam="1">  1        1 0.39434773E+00 0.65270047E+03</pdfrwt>
<pdfrwt beam="2">0</pdfrwt>
<totfact> 0.14169353E+00</totfact>
</mgrwt>
</event>
<event>
 6    1  0.3848910E-003  0.6351648E+03  0.7818608E-02  0.9835022E-01
          3   -1    0    0  502    0  0.00000000000E+00  0.00000000000E+00  0.10085869443E+03  0.10085869443E+03  0.00000000000E+00 0.  1.
         13   -1    0    0    0    0 -0.00000000000E+00 -0.00000000000E+00 -0.10000000000E+04  0.10000000000E+04  0.00000000000E+00 0.  1.
    9000005    2    1    2  501    0 -0.49539815450E-06  0.41237304060E-05 -0.89914141128E+03  0.11008585886E+04  0.63516482483E+03 0.  0.
         13    1    3    3    0    0  0.21456660621E+03  0.16771624864E+03 -0.16641345613E+03  0.31915671219E+03  0.00000000000E+00 0.  1.
          1    1    3    3  501    0 -0.21456660670E+03 -0.16771624452E+03 -0.73272795515E+03  0.78170187644E+03  0.00000000000E+00 0.  1.
         21    1    1    2  502  501  0.49539815602E-06 -0.41237303882E-05  0.10570723696E-03  0.10578880147E-03  0.00000000000E+00 0.  1.
<mgrwt>
<rscale>  1 0.63516482E+03</rscale>
<asrwt>0</asrwt>
<pdfrwt beam="1">  1        3 0.36675966E+00 0.63516482E+03</pdfrwt>
<pdfrwt beam="2">0</pdfrwt>
<totfact> 0.88911737E-02</totfact>
</mgrwt>
</event>
<event>
 6    1  0.3848910E-003  0.6718289E+03  0.7818608E-02  0.9766660E-01
          1   -1    0    0  502    0  0.00000000000E+00  0.00000000000E+00  0.11303216328E+03  0.11303216328E+03  0.00000000000E+00 0.  1.
         13   -1    0    0    0    0 -0.00000000000E+00 -0.00000000000E+00 -0.10000000000E+04  0.10000000000E+04  0.00000000000E+00 0.  1.
    9000005    2    1    2  501    0  0.14593271529E-01 -0.15291299028E-01 -0.88716084235E+03  0.11128380037E+04  0.67182889319E+03 0.  0.
         13    1    3    3    0    0  0.32228435684E+03  0.48558138009E+02 -0.30884210809E+03  0.44900840433E+03  0.00000000000E+00 0.  1.
          1    1    3    3  501    0 -0.32226976356E+03 -0.48573429308E+02 -0.57831873426E+03  0.66382959932E+03  0.00000000000E+00 0.  1.
         21    1    1    2  502  501 -0.14593271529E-01  0.15291299028E-01  0.19300563122E+00  0.19415962784E+00  0.00000000000E+00 0. -1.
<mgrwt>
<rscale>  1 0.67182889E+03</rscale>
<asrwt>0</asrwt>
<pdfrwt beam="1">  1        1 0.41102692E+00 0.67182889E+03</pdfrwt>
<pdfrwt beam="2">0</pdfrwt>
<totfact> 0.11893144E+00</totfact>
</mgrwt>
</event>
<event>
 6    1  0.3848910E-003  0.6540950E+03  0.7818608E-02  0.9799125E-01
          1   -1    0    0  502    0  0.00000000000E+00  0.00000000000E+00  0.10696820727E+03  0.10696820727E+03  0.00000000000E+00 0.  1.
         13   -1    0    0    0    0 -0.00000000000E+00 -0.00000000000E+00 -0.10000000000E+04  0.10000000000E+04  0.00000000000E+00 0.  1.
    9000005    2    1    2  501    0 -0.14704777266E-01  0.33322032261E-02 -0.89303130519E+03  0.11069531218E+04  0.65409502487E+03 0.  0.
         13    1    3    3    0    0 -0.16404546580E+02  0.30632480237E+03 -0.63841344094E+03  0.70829069969E+03  0.00000000000E+00 0.  1.
          1    1    3    3  501    0  0.16389841803E+02 -0.30632147017E+03 -0.25461786425E+03  0.39866242210E+03  0.00000000000E+00 0.  1.
         21    1    1    2  502  501  0.14704777266E-01 -0.33322032261E-02 -0.48753492426E-03  0.15085481201E-01  0.00000000000E+00 0. -1.
<mgrwt>
<rscale>  1 0.65409503E+03</rscale>
<asrwt>0</asrwt>
<pdfrwt beam="1">  1        1 0.38897612E+00 0.65409503E+03</pdfrwt>
<pdfrwt beam="2">0</pdfrwt>
<totfact> 0.14965043E+00</totfact>
</mgrwt>
</event>
<event>
 6    1  0.3848910E-003  0.6369243E+03  0.7818608E-02  0.9831629E-01
          1   -1    0    0  502    0  0.00000000000E+00  0.00000000000E+00  0.10814820413E+03  0.10814820413E+03  0.00000000000E+00 0.  1.
         13   -1    0    0    0    0 -0.00000000000E+00 -0.00000000000E+00 -0.10000000000E+04  0.10000000000E+04  0.00000000000E+00 0.  1.
    9000005    2    1    2  501    0 -0.61573261922E+00  0.14516792548E+00 -0.89856547104E+03  0.11014047900E+04  0.63692401853E+03 0.  0.
         13    1    3    3    0    0  0.12192273459E+03  0.11306335138E+03  0.20335922579E+02  0.16751723607E+03  0.00000000000E+00 0.  1.
          3    1    3    3  501    0 -0.12253846721E+03 -0.11291818345E+03 -0.91890139362E+03  0.93388755388E+03  0.00000000000E+00 0.  1.
         21    1    1    2  502  501  0.61573261922E+00 -0.14516792548E+00  0.67136751694E+01  0.67434141698E+01  0.00000000000E+00 0.  1.
<mgrwt>
<rscale>  1 0.63692433E+03</rscale>
<asrwt>0</asrwt>
<pdfrwt beam="1">  1        1 0.39326703E+00 0.63692433E+03</pdfrwt>
<pdfrwt beam="2">0</pdfrwt>
<totfact> 0.14369697E+00</totfact>
</mgrwt>
</event>
<event>
 6    1  0.3848910E-003  0.6486820E+03  0.7818608E-02  0.9809255E-01
          1   -1    0    0  502    0  0.00000000000E+00  0.00000000000E+00  0.10519710325E+03  0.10519710325E+03  0.00000000000E+00 0.  1.
         13   -1    0    0    0    0 -0.00000000000E+00 -0.00000000000E+00 -0.10000000000E+04  0.10000000000E+04  0.00000000000E+00 0.  1.
    9000005    2    1    2  501    0 -0.28876528688E-05 -0.13057263857E-05 -0.89480290933E+03  0.11051970903E+04  0.64868201902E+03 0.  0.
         13    1    3    3    0    0 -0.23059209992E+03  0.11388514520E+03 -0.78410189402E+03  0.82520198925E+03  0.00000000000E+00 0.  1.
          1    1    3    3  501    0  0.23059209703E+03 -0.11388514651E+03 -0.11070101531E+03  0.27999510103E+03  0.00000000000E+00 0.  1.
         21    1    1    2  502  501  0.28876528678E-05  0.13057263793E-05  0.12588787561E-04  0.12981565110E-04  0.00000000000E+00 0.  1.
<mgrwt>
<rscale>  1 0.64868202E+03</rscale>
<asrwt>0</asrwt>
<pdfrwt beam="1">  1        1 0.38253573E+00 0.64868202E+03</pdfrwt>
<pdfrwt beam="2">0</pdfrwt>
<totfact> 0.15995987E+00</totfact>
</mgrwt>
</event>
<event>
 6    1  0.3848910E-003  0.6480296E+03  0.7818608E-02  0.9810483E-01
          1   -1    0    0  502    0  0.00000000000E+00  0.00000000000E+00  0.10498573444E+03  0.10498573444E+03  0.00000000000E+00 0.  1.
         13   -1    0    0    0    0 -0.00000000000E+00 -0.00000000000E+00 -0.10000000000E+04  0.10000000000E+04  0.00000000000E+00 0.  1.
    9000005    2    1    2  501    0 -0.12459813405E-04  0.12650302088E-03 -0.89501435873E+03  0.11049855768E+04  0.64802964646E+03 0.  0.
         13    1    3    3    0    0 -0.15065503210E+03 -0.13724923758E+03 -0.87702576170E+03  0.90039351319E+03  0.00000000000E+00 0.  1.
          1    1    3    3  501    0  0.15065501964E+03  0.13724936409E+03 -0.17988597026E+02  0.20459206365E+03  0.00000000000E+00 0.  1.
         21    1    1    2  502  501  0.12459813389E-04 -0.12650302089E-03  0.93169097959E-04  0.15760311564E-03  0.00000000000E+00 0. -1.
<mgrwt>
<rscale>  1 0.64802965E+03</rscale>
<asrwt>0</asrwt>
<pdfrwt beam="1">  1        1 0.38176711E+00 0.64802965E+03</pdfrwt>
<pdfrwt beam="2">0</pdfrwt>
<totfact> 0.16123456E+00</totfact>
</mgrwt>
</event>
<event>
 6    1  0.3848910E-003  0.6543198E+03  0.7818608E-02  0.9798707E-01
          1   -1    0    0  502    0  0.00000000000E+00  0.00000000000E+00  0.11381255982E+03  0.11381255982E+03  0.00000000000E+00 0.  1.
         13   -1    0    0    0    0 -0.00000000000E+00 -0.00000000000E+00 -0.10000000000E+04  0.10000000000E+04  0.00000000000E+00 0.  1.
    9000005    2    1    2  501    0  0.60374977209E+01  0.81219801678E+01 -0.88849755296E+03  0.11034320703E+04  0.65424155655E+03 0.  0.
         13    1    3    3    0    0 -0.40298886576E+02 -0.18931166246E+03 -0.87938020962E+03  0.90042904156E+03  0.00000000000E+00 0.  1.
          3    1    3    3  501    0  0.46336384297E+02  0.19743364262E+03 -0.91173433370E+01  0.20300302879E+03  0.00000000000E+00 0.  1.
         21    1    1    2  502  501 -0.60374977209E+01 -0.81219801678E+01  0.23101127796E+01  0.10380489470E+02  0.00000000000E+00 0. -1.
<mgrwt>
<rscale>  1 0.65431982E+03</rscale>
<asrwt>0</asrwt>
<pdfrwt beam="1">  1        1 0.41386473E+00 0.65431982E+03</pdfrwt>
<pdfrwt beam="2">0</pdfrwt>
<totfact> 0.11587991E+00</totfact>
</mgrwt>
</event>
<event>
 6    1  0.3848910E-003  0.6508823E+03  0.7818608E-02  0.9805125E-01
          1   -1    0    0  502    0  0.00000000000E+00  0.00000000000E+00  0.10929057638E+03  0.10929057638E+03  0.00000000000E+00 0.  1.
         13   -1    0    0    0    0 -0.00000000000E+00 -0.00000000000E+00 -0.10000000000E+04  0.10000000000E+04  0.00000000000E+00 0.  1.
    9000005    2    1    2  501    0  0.76518401732E-01  0.63115344217E+00 -0.89405493342E+03  0.11058851916E+04  0.65088203908E+03 0.  0.
         13    1    3    3    0    0 -0.23923315824E+03 -0.16972843749E+03 -0.20800957819E+03  0.35959453710E+03  0.00000000000E+00 0.  1.
          1    1    3    3  501    0  0.23930967664E+03  0.17035959093E+03 -0.68604535523E+03  0.74629065449E+03  0.00000000000E+00 0.  1.
         21    1    1    2  502  501 -0.76518401732E-01 -0.63115344217E+00  0.33455098003E+01  0.34053847884E+01  0.00000000000E+00 0. -1.
<mgrwt>
<rscale>  1 0.65088235E+03</rscale>
<asrwt>0</asrwt>
<pdfrwt beam="1">  1        1 0.39742112E+00 0.65088235E+03</pdfrwt>
<pdfrwt beam="2">0</pdfrwt>
<totfact> 0.13735013E+00</totfact>
</mgrwt>
</event>
<event>
 6    1  0.3848910E-003  0.6436397E+03  0.7818608E-02  0.9818788E-01
          1   -1    0    0  502    0  0.00000000000E+00  0.00000000000E+00  0.10356861342E+03  0.10356861342E+03  0.00000000000E+00 0.  1.
         13   -1    0    0    0    0 -0.00000000000E+00 -0.00000000000E+00 -0.10000000000E+04  0.10000000000E+04  0.00000000000E+00 0.  1.
    9000005    2    1    2  501    0 -0.91549825726E-04  0.18107601976E-02 -0.89642963929E+03  0.11035660954E+04  0.64363967310E+03 0.  0.
         13    1    3    3    0    0  0.96371944351E+02 -0.19137549699E+03 -0.85990942547E+03  0.88620333587E+03  0.00000000000E+00 0.  1.
          3    1    3    3  501    0 -0.96372035901E+02  0.19137730775E+03 -0.36520213822E+02  0.21736275956E+03  0.00000000000E+00 0.  1.
         21    1    1    2  502  501  0.91549825723E-04 -0.18107601976E-02 -0.17472914115E-02  0.25179875179E-02  0.00000000000E+00 0. -1.
<mgrwt>
<rscale>  1 0.64363967E+03</rscale>
<asrwt>0</asrwt>
<pdfrwt beam="1">  1        1 0.37661393E+00 0.64363967E+03</pdfrwt>
<pdfrwt beam="2">0</pdfrwt>
<totfact> 0.17003432E+00</totfact>
</mgrwt>
</event>
<event>
 6    1  0.3848910E-003  0.6476295E+03  0.7818608E-02  0.9811237E-01
          1   -1    0    0  502    0  0.00000000000E+00  0.00000000000E+00  0.10487571712E+03  0.10487571712E+03  0.00000000000E+00 0.  1.
         13   -1    0    0    0    0 -0.00000000000E+00 -0.00000000000E+00 -0.10000000000E+04  0.10000000000E+04  0.00000000000E+00 0.  1.
    9000005    2    1    2  501    0  0.25484939792E-03 -0.18290501086E-03 -0.89514399210E+03  0.11048560054E+04  0.64762954385E+03 0.  0.
         13    1    3    3    0    0 -0.21417391561E+03  0.24282829264E+03 -0.45517482122E+03  0.55858765087E+03  0.00000000000E+00 0.  1.
          1    1    3    3  501    0  0.21417417046E+03 -0.24282847555E+03 -0.43996917089E+03  0.54626835453E+03  0.00000000000E+00 0.  1.
         21    1    1    2  502  501 -0.25484939792E-03  0.18290501087E-03  0.19709224432E-01  0.19711720630E-01  0.00000000000E+00 0. -1.
<mgrwt>
<rscale>  1 0.64762954E+03</rscale>
<asrwt>0</asrwt>
<pdfrwt beam="1">  1        1 0.38136705E+00 0.64762954E+03</pdfrwt>
<pdfrwt beam="2">0</pdfrwt>
<totfact> 0.16190366E+00</totfact>
</mgrwt>
</event>
<event>
 6    1  0.3848910E-003  0.6551399E+03  0.7818608E-02  0.9797182E-01
          1   -1    0    0  502    0  0.00000000000E+00  0.00000000000E+00  0.10730208441E+03  0.10730208441E+03  0.00000000000E+00 0.  1.
         13   -1    0    0    0    0 -0.00000000000E+00 -0.00000000000E+00 -0.10000000000E+04  0.10000000000E+04  0.00000000000E+00 0.  1.
    9000005    2    1    2  501    0  0.12827839271E-05 -0.15556294599E-05 -0.89269792212E+03  0.11073020776E+04  0.65513991700E+03 0.  0.
         13    1    3    3    0    0  0.13412841556E+03 -0.44034928531E+02  0.53247796437E+02  0.15088019955E+03  0.00000000000E+00 0.  1.
          1    1    3    3  501    0 -0.13412841427E+03  0.44034926975E+02 -0.94594571856E+03  0.95642187803E+03  0.00000000000E+00 0.  1.
         21    1    1    2  502  501 -0.12827839326E-05  0.15556294602E-05  0.65271361182E-05  0.68314730140E-05  0.00000000000E+00 0.  1.
<mgrwt>
<rscale>  1 0.65513992E+03</rscale>
<asrwt>0</asrwt>
<pdfrwt beam="1">  1        1 0.39019022E+00 0.65513992E+03</pdfrwt>
<pdfrwt beam="2">0</pdfrwt>
<totfact> 0.14777834E+00</totfact>
</mgrwt>
</event>
<event>
 6    1  0.3848910E-003  0.6643084E+03  0.7818608E-02  0.9780295E-01
          1   -1    0    0  502    0  0.00000000000E+00  0.00000000000E+00  0.11032728468E+03  0.11032728468E+03  0.00000000000E+00 0.  1.
         13   -1    0    0    0    0 -0.00000000000E+00 -0.00000000000E+00 -0.10000000000E+04  0.10000000000E+04  0.00000000000E+00 0.  1.
    9000005    2    1    2  501    0 -0.13518796962E-04 -0.10805416650E-05 -0.88967360053E+03  0.11103263994E+04  0.66430836037E+03 0.  0.
         13    1    3    3    0    0 -0.85001215679E+02  0.24292258444E+03 -0.93882905003E+02  0.27395362482E+03  0.00000000000E+00 0.  1.
          3    1    3    3  501    0  0.85001202160E+02 -0.24292258552E+03 -0.79579069553E+03  0.83637277455E+03  0.00000000000E+00 0.  1.
         21    1    1    2  502  501  0.13518796957E-04  0.10805416482E-05  0.88521107660E-03  0.88531495840E-03  0.00000000000E+00 0. -1.
<mgrwt>
<rscale>  1 0.66430836E+03</rscale>
<asrwt>0</asrwt>
<pdfrwt beam="1">  1        1 0.40119097E+00 0.66430836E+03</pdfrwt>
<pdfrwt beam="2">0</pdfrwt>
<totfact> 0.13180461E+00</totfact>
</mgrwt>
</event>
<event>
 6    1  0.3848910E-003  0.6599604E+03  0.7818608E-02  0.9788267E-01
          1   -1    0    0  502    0  0.00000000000E+00  0.00000000000E+00  0.10895595212E+03  0.10895595212E+03  0.00000000000E+00 0.  1.
         13   -1    0    0    0    0 -0.00000000000E+00 -0.00000000000E+00 -0.10000000000E+04  0.10000000000E+04  0.00000000000E+00 0.  1.
    9000005    2    1    2  501    0 -0.15648058000E+00 -0.84670937758E-01 -0.89094636892E+03  0.11087529829E+04  0.65996038749E+03 0.  0.
         13    1    3    3    0    0  0.15730647373E+03 -0.21907518832E+03 -0.76485017469E+03  0.81100866490E+03  0.00000000000E+00 0.  1.
          1    1    3    3  501    0 -0.15746295431E+03  0.21899051738E+03 -0.12609619423E+03  0.29774431797E+03  0.00000000000E+00 0.  1.
         21    1    1    2  502  501  0.15648058000E+00  0.84670937758E-01 -0.97678955497E-01  0.20296925374E+00  0.00000000000E+00 0. -1.
<mgrwt>
<rscale>  1 0.65996041E+03</rscale>
<asrwt>0</asrwt>
<pdfrwt beam="1">  1        1 0.39620430E+00 0.65996041E+03</pdfrwt>
<pdfrwt beam="2">0</pdfrwt>
<totfact> 0.13883669E+00</totfact>
</mgrwt>
</event>
<event>
 6    1  0.3848910E-003  0.6727709E+03  0.7818608E-02  0.9764965E-01
          1   -1    0    0  502    0  0.00000000000E+00  0.00000000000E+00  0.11465234220E+03  0.11465234220E+03  0.00000000000E+00 0.  1.
         13   -1    0    0    0    0 -0.00000000000E+00 -0.00000000000E+00 -0.10000000000E+04  0.10000000000E+04  0.00000000000E+00 0.  1.
    9000005    2    1    2  501    0 -0.11616236901E+00  0.18104316077E-01 -0.88684225620E+03  0.11131531271E+04  0.67277089951E+03 0.  0.
         13    1    3    3    0    0  0.37502812373E+02  0.50795625157E+01  0.10961957817E+03  0.11596859407E+03  0.00000000000E+00 0.  1.
          3    1    3    3  501    0 -0.37618974742E+02 -0.50614581997E+01 -0.99646183437E+03  0.99718453306E+03  0.00000000000E+00 0.  1.
         21    1    1    2  502  501  0.11616236901E+00 -0.18104316077E-01  0.14945984035E+01  0.14992150780E+01  0.00000000000E+00 0.  1.
<mgrwt>
<rscale>  1 0.67277091E+03</rscale>
<asrwt>0</asrwt>
<pdfrwt beam="1">  1        1 0.41691849E+00 0.67277091E+03</pdfrwt>
<pdfrwt beam="2">0</pdfrwt>
<totfact> 0.11187316E+00</totfact>
</mgrwt>
</event>
<event>
 6    1  0.3848910E-003  0.6151668E+03  0.7818608E-02  0.9874430E-01
          1   -1    0    0  502    0  0.00000000000E+00  0.00000000000E+00  0.94830404496E+02  0.94830404496E+02  0.00000000000E+00 0.  1.
         13   -1    0    0    0    0 -0.00000000000E+00 -0.00000000000E+00 -0.10000000000E+04  0.10000000000E+04  0.00000000000E+00 0.  1.
    9000005    2    1    2  501    0  0.79077054296E-03 -0.52904112748E-02 -0.90539242828E+03  0.10946075075E+04  0.61516676301E+03 0.  0.
         13    1    3    3    0    0  0.44035693555E+02 -0.12769487163E+03 -0.94440606093E+03  0.95401673490E+03  0.00000000000E+00 0.  1.
          1    1    3    3  501    0 -0.44034902785E+02  0.12768958122E+03  0.39013632652E+02  0.14059077263E+03  0.00000000000E+00 0.  1.
         21    1    1    2  502  501 -0.79077054296E-03  0.52904112749E-02  0.22283277534E+00  0.22289697068E+00  0.00000000000E+00 0. -1.
<mgrwt>
<rscale>  1 0.61516676E+03</rscale>
<asrwt>0</asrwt>
<pdfrwt beam="1">  1        1 0.34483856E+00 0.61516676E+03</pdfrwt>
<pdfrwt beam="2">0</pdfrwt>
<totfact> 0.23540041E+00</totfact>
</mgrwt>
</event>
<event>
 6    1  0.3848910E-003  0.6317377E+03  0.7818608E-02  0.9841664E-01
          1   -1    0    0  502    0  0.00000000000E+00  0.00000000000E+00  0.99775181201E+02  0.99775181201E+02  0.00000000000E+00 0.  1.
         13   -1    0    0    0    0 -0.00000000000E+00 -0.00000000000E+00 -0.10000000000E+04  0.10000000000E+04  0.00000000000E+00 0.  1.
    9000005    2    1    2  501    0  0.11397325676E-03 -0.35212135344E-03 -0.90022685627E+03  0.10997731104E+04  0.63173768414E+03 0.  0.
         13    1    3    3    0    0  0.24727885204E+03 -0.14949949418E+03 -0.22801602034E+03  0.36808726541E+03  0.00000000000E+00 0.  1.
          3    1    3    3  501    0 -0.24727873807E+03  0.14949914206E+03 -0.67221083594E+03  0.73168584497E+03  0.00000000000E+00 0.  1.
         21    1    1    2  502  501 -0.11397325676E-03  0.35212135344E-03  0.20374747531E-02  0.20708169210E-02  0.00000000000E+00 0. -1.
<mgrwt>
<rscale>  1 0.63173768E+03</rscale>
<asrwt>0</asrwt>
<pdfrwt beam="1">  1        1 0.36281961E+00 0.63173768E+03</pdfrwt>
<pdfrwt beam="2">0</pdfrwt>
<totfact> 0.19590923E+00</totfact>
</mgrwt>
</event>
<event>
 6    1  0.3848910E-003  0.6633659E+03  0.7818608E-02  0.9782017E-01
          3   -1    0    0  502    0  0.00000000000E+00  0.00000000000E+00  0.11002625822E+03  0.11002625822E+03  0.00000000000E+00 0.  1.
         13   -1    0    0    0    0 -0.00000000000E+00 -0.00000000000E+00 -0.10000000000E+04  0.10000000000E+04  0.00000000000E+00 0.  1.
    9000005    2    1    2  501    0  0.12338303837E-02 -0.21155269661E-02 -0.88998630550E+03  0.11100134580E+04  0.66336585157E+03 0.  0.
         13    1    3    3    0    0 -0.24016662377E+02 -0.26876825412E+03 -0.76773366570E+03  0.81377402020E+03  0.00000000000E+00 0.  1.
          1    1    3    3  501    0  0.24017896207E+02  0.26876613859E+03 -0.12225263979E+03  0.29623943783E+03  0.00000000000E+00 0.  1.
         21    1    1    2  502  501 -0.12338303837E-02  0.21155269661E-02  0.12563718465E-01  0.12800188024E-01  0.00000000000E+00 0. -1.
<mgrwt>
<rscale>  1 0.66336585E+03</rscale>
<asrwt>0</asrwt>
<pdfrwt beam="1">  1        3 0.40009633E+00 0.66336585E+03</pdfrwt>
<pdfrwt beam="2">0</pdfrwt>
<totfact> 0.59035396E-02</totfact>
</mgrwt>
</event>
<event>
 6    1  0.3848910E-003  0.6616603E+03  0.7818608E-02  0.9785142E-01
          1   -1    0    0  502    0  0.00000000000E+00  0.00000000000E+00  0.11435629718E+03  0.11435629718E+03  0.00000000000E+00 0.  1.
         13   -1    0    0    0    0 -0.00000000000E+00 -0.00000000000E+00 -0.10000000000E+04  0.10000000000E+04  0.00000000000E+00 0.  1.
    9000005    2    1    2  501    0  0.15436194564E+01  0.19063336308E+01 -0.89020899686E+03  0.11091737516E+04  0.66165575362E+03 0.  0.
         13    1    3    3    0    0  0.21577388261E+03  0.42330292976E+02 -0.30186493482E+02  0.22194919804E+03  0.00000000000E+00 0.  1.
          1    1    3    3  501    0 -0.21423026316E+03 -0.40423959345E+02 -0.86002250338E+03  0.88722455357E+03  0.00000000000E+00 0.  1.
         21    1    1    2  502  501 -0.15436194564E+01 -0.19063336308E+01  0.45652940379E+01  0.51825455705E+01  0.00000000000E+00 0.  1.
<mgrwt>
<rscale>  1 0.66166030E+03</rscale>
<asrwt>0</asrwt>
<pdfrwt beam="1">  1        1 0.41584196E+00 0.66166030E+03</pdfrwt>
<pdfrwt beam="2">0</pdfrwt>
<totfact> 0.11337026E+00</totfact>
</mgrwt>
</event>
<event>
 6    1  0.3848910E-003  0.6492428E+03  0.7818608E-02  0.9808201E-01
          1   -1    0    0  502    0  0.00000000000E+00  0.00000000000E+00  0.10538080010E+03  0.10538080010E+03  0.00000000000E+00 0.  1.
         13   -1    0    0    0    0 -0.00000000000E+00 -0.00000000000E+00 -0.10000000000E+04  0.10000000000E+04  0.00000000000E+00 0.  1.
    9000005    2    1    2  501    0 -0.51589000347E-03 -0.11626119327E-02 -0.89462068301E+03  0.11053788463E+04  0.64924281077E+03 0.  0.
         13    1    3    3    0    0 -0.16404376556E+03 -0.11192358411E+03 -0.88451582009E+03  0.90653487616E+03  0.00000000000E+00 0.  1.
          3    1    3    3  501    0  0.16404324967E+03  0.11192242150E+03 -0.10104862914E+02  0.19884397012E+03  0.00000000000E+00 0.  1.
         21    1    1    2  502  501  0.51589000347E-03  0.11626119327E-02  0.14831118046E-02  0.19538243592E-02  0.00000000000E+00 0.  1.
<mgrwt>
<rscale>  1 0.64924281E+03</rscale>
<asrwt>0</asrwt>
<pdfrwt beam="1">  1        1 0.38320372E+00 0.64924281E+03</pdfrwt>
<pdfrwt beam="2">0</pdfrwt>
<totfact> 0.15886004E+00</totfact>
</mgrwt>
</event>
<event>
 6    1  0.3848910E-003  0.6452225E+03  0.7818608E-02  0.9815785E-01
          1   -1    0    0  502    0  0.00000000000E+00  0.00000000000E+00  0.10407801798E+03  0.10407801798E+03  0.00000000000E+00 0.  1.
         13   -1    0    0    0    0 -0.00000000000E+00 -0.00000000000E+00 -0.10000000000E+04  0.10000000000E+04  0.00000000000E+00 0.  1.
    9000005    2    1    2  501    0 -0.90088266091E-05 -0.80457160152E-05 -0.89592196505E+03  0.11040779972E+04  0.64522248593E+03 0.  0.
         13    1    3    3    0    0  0.85284560683E+02  0.30321303002E+03 -0.56733085184E+03  0.64890360864E+03  0.00000000000E+00 0.  1.
          1    1    3    3  501    0 -0.85284569692E+02 -0.30321303806E+03 -0.32859111322E+03  0.45517438852E+03  0.00000000000E+00 0.  1.
         21    1    1    2  502  501  0.90088266165E-05  0.80457160158E-05 -0.16962367943E-04  0.20823410610E-04  0.00000000000E+00 0. -1.
<mgrwt>
<rscale>  1 0.64522249E+03</rscale>
<asrwt>0</asrwt>
<pdfrwt beam="1">  1        1 0.37846632E+00 0.64522249E+03</pdfrwt>
<pdfrwt beam="2">0</pdfrwt>
<totfact> 0.16681958E+00</totfact>
</mgrwt>
</event>
<event>
 6    1  0.3848910E-003  0.6368375E+03  0.7818608E-02  0.9831796E-01
          1   -1    0    0  502    0  0.00000000000E+00  0.00000000000E+00  0.10498897525E+03  0.10498897525E+03  0.00000000000E+00 0.  1.
         13   -1    0    0    0    0 -0.00000000000E+00 -0.00000000000E+00 -0.10000000000E+04  0.10000000000E+04  0.00000000000E+00 0.  1.
    9000005    2    1    2  501    0 -0.16622755793E+00  0.15498845717E+00 -0.89860555776E+03  0.11013872645E+04  0.63683742526E+03 0.  0.
         13    1    3    3    0    0 -0.92965596173E+02 -0.22831710843E+03 -0.10078459651E+03  0.26632468711E+03  0.00000000000E+00 0.  1.
          3    1    3    3  501    0  0.92799368616E+02  0.22847209688E+03 -0.79782096125E+03  0.83506257735E+03  0.00000000000E+00 0.  1.
         21    1    1    2  502  501  0.16622755793E+00 -0.15498845717E+00  0.35945330151E+01  0.36017107907E+01  0.00000000000E+00 0. -1.
<mgrwt>
<rscale>  1 0.63683747E+03</rscale>
<asrwt>0</asrwt>
<pdfrwt beam="1">  1        1 0.38177890E+00 0.63683747E+03</pdfrwt>
<pdfrwt beam="2">0</pdfrwt>
<totfact> 0.16155021E+00</totfact>
</mgrwt>
</event>
<event>
 6    1  0.3848910E-003  0.6577990E+03  0.7818608E-02  0.9792254E-01
          1   -1    0    0  502    0  0.00000000000E+00  0.00000000000E+00  0.10820107768E+03  0.10820107768E+03  0.00000000000E+00 0.  1.
         13   -1    0    0    0    0 -0.00000000000E+00 -0.00000000000E+00 -0.10000000000E+04  0.10000000000E+04  0.00000000000E+00 0.  1.
    9000005    2    1    2  501    0  0.26942409229E-02  0.11927372083E-01 -0.89182353913E+03  0.11081735912E+04  0.65779896857E+03 0.  0.
         13    1    3    3    0    0 -0.31110684454E+03  0.10650312770E+03 -0.43462186938E+03  0.54500142593E+03  0.00000000000E+00 0.  1.
          3    1    3    3  501    0  0.31110953878E+03 -0.10649120032E+03 -0.45720166975E+03  0.56317216523E+03  0.00000000000E+00 0.  1.
         21    1    1    2  502  501 -0.26942409229E-02 -0.11927372083E-01  0.24616809488E-01  0.27486513936E-01  0.00000000000E+00 0.  1.
<mgrwt>
<rscale>  1 0.65779897E+03</rscale>
<asrwt>0</asrwt>
<pdfrwt beam="1">  1        1 0.39345929E+00 0.65779897E+03</pdfrwt>
<pdfrwt beam="2">0</pdfrwt>
<totfact> 0.14285139E+00</totfact>
</mgrwt>
</event>
<event>
 6    1  0.3848910E-003  0.6475292E+03  0.7818608E-02  0.9811427E-01
          1   -1    0    0  502    0  0.00000000000E+00  0.00000000000E+00  0.10484781036E+03  0.10484781036E+03  0.00000000000E+00 0.  1.
         13   -1    0    0    0    0 -0.00000000000E+00 -0.00000000000E+00 -0.10000000000E+04  0.10000000000E+04  0.00000000000E+00 0.  1.
    9000005    2    1    2  501    0  0.14053724454E-02 -0.24863049180E-03 -0.89517647412E+03  0.11048234840E+04  0.64752915836E+03 0.  0.
         13    1    3    3    0    0 -0.55932851978E+02  0.30014626273E+03 -0.26376688696E+03  0.40347147808E+03  0.00000000000E+00 0.  1.
          3    1    3    3  501    0  0.55934257351E+02 -0.30014651136E+03 -0.63140958716E+03  0.70135200590E+03  0.00000000000E+00 0.  1.
         21    1    1    2  502  501 -0.14053724454E-02  0.24863049176E-03  0.24284482881E-01  0.24326384804E-01  0.00000000000E+00 0. -1.
<mgrwt>
<rscale>  1 0.64752916E+03</rscale>
<asrwt>0</asrwt>
<pdfrwt beam="1">  1        1 0.38126557E+00 0.64752916E+03</pdfrwt>
<pdfrwt beam="2">0</pdfrwt>
<totfact> 0.16207377E+00</totfact>
</mgrwt>
</event>
<event>
 6    1  0.3848910E-003  0.6514828E+03  0.7818608E-02  0.9804001E-01
          1   -1    0    0  502    0  0.00000000000E+00  0.00000000000E+00  0.10667241939E+03  0.10667241939E+03  0.00000000000E+00 0.  1.
         13   -1    0    0    0    0 -0.00000000000E+00 -0.00000000000E+00 -0.10000000000E+04  0.10000000000E+04  0.00000000000E+00 0.  1.
    9000005    2    1    2  501    0  0.40533320472E-01 -0.89023704603E-01 -0.89388784101E+03  0.11061036840E+04  0.65148283015E+03 0.  0.
         13    1    3    3    0    0 -0.17784835389E+03 -0.58660336268E+02 -0.89944874966E+03  0.91873778920E+03  0.00000000000E+00 0.  1.
          1    1    3    3  501    0  0.17788888721E+03  0.58571312563E+02  0.55609086506E+01  0.18736589485E+03  0.00000000000E+00 0.  1.
         21    1    1    2  502  501 -0.40533320472E-01  0.89023704603E-01  0.56026040581E+00  0.56873534475E+00  0.00000000000E+00 0.  1.
<mgrwt>
<rscale>  1 0.65148284E+03</rscale>
<asrwt>0</asrwt>
<pdfrwt beam="1">  1        1 0.38790052E+00 0.65148284E+03</pdfrwt>
<pdfrwt beam="2">0</pdfrwt>
<totfact> 0.15137502E+00</totfact>
</mgrwt>
</event>
<event>
 6    1  0.3848910E-003  0.6438314E+03  0.7818608E-02  0.9818423E-01
          1   -1    0    0  502    0  0.00000000000E+00  0.00000000000E+00  0.10378928768E+03  0.10378928768E+03  0.00000000000E+00 0.  1.
         13   -1    0    0    0    0 -0.00000000000E+00 -0.00000000000E+00 -0.10000000000E+04  0.10000000000E+04  0.00000000000E+00 0.  1.
    9000005    2    1    2  501    0 -0.34322354502E+00 -0.20535123768E+00 -0.89602243804E+03  0.11033472258E+04  0.64383129091E+03 0.  0.
         13    1    3    3    0    0  0.25142503835E+03 -0.14422962982E+03 -0.68754143488E+03  0.74614339152E+03  0.00000000000E+00 0.  1.
          1    1    3    3  501    0 -0.25176826190E+03  0.14402427858E+03 -0.20848100316E+03  0.35720383424E+03  0.00000000000E+00 0.  1.
         21    1    1    2  502  501  0.34322354502E+00  0.20535123768E+00 -0.18827427617E+00  0.44206191392E+00  0.00000000000E+00 0.  1.
<mgrwt>
<rscale>  1 0.64383142E+03</rscale>
<asrwt>0</asrwt>
<pdfrwt beam="1">  1        1 0.37741639E+00 0.64383142E+03</pdfrwt>
<pdfrwt beam="2">0</pdfrwt>
<totfact> 0.16864978E+00</totfact>
</mgrwt>
</event>
<event>
 6    1  0.3848910E-003  0.6504401E+03  0.7818608E-02  0.9805954E-01
          1   -1    0    0  502    0  0.00000000000E+00  0.00000000000E+00  0.10576858375E+03  0.10576858375E+03  0.00000000000E+00 0.  1.
         13   -1    0    0    0    0 -0.00000000000E+00 -0.00000000000E+00 -0.10000000000E+04  0.10000000000E+04  0.00000000000E+00 0.  1.
    9000005    2    1    2  501    0 -0.13443519691E-03  0.15538038014E-04 -0.89423190232E+03  0.11057680792E+04  0.65044012009E+03 0.  0.
         13    1    3    3    0    0  0.21537330458E+03 -0.24351530208E+03 -0.46257513831E+03  0.56538581629E+03  0.00000000000E+00 0.  1.
          3    1    3    3  501    0 -0.21537343901E+03  0.24351531762E+03 -0.43165676401E+03  0.54038226290E+03  0.00000000000E+00 0.  1.
         21    1    1    2  502  501  0.13443519690E-03 -0.15538038011E-04  0.48607206312E-03  0.50455951417E-03  0.00000000000E+00 0. -1.
<mgrwt>
<rscale>  1 0.65044012E+03</rscale>
<asrwt>0</asrwt>
<pdfrwt beam="1">  1        1 0.38461384E+00 0.65044012E+03</pdfrwt>
<pdfrwt beam="2">0</pdfrwt>
<totfact> 0.15656145E+00</totfact>
</mgrwt>
</event>
<event>
 6    1  0.3848910E-003  0.6474477E+03  0.7818608E-02  0.9811580E-01
          1   -1    0    0  502    0  0.00000000000E+00  0.00000000000E+00  0.10479875565E+03  0.10479875565E+03  0.00000000000E+00 0.  1.
         13   -1    0    0    0    0 -0.00000000000E+00 -0.00000000000E+00 -0.10000000000E+04  0.10000000000E+04  0.00000000000E+00 0.  1.
    9000005    2    1    2  501    0 -0.92731893790E-03  0.46976512707E-02 -0.89519206775E+03  0.11047884049E+04  0.64744774416E+03 0.  0.
         13    1    3    3    0    0 -0.15069279033E+02  0.43861482508E+01  0.10414861389E+03  0.10532452346E+03  0.00000000000E+00 0.  1.
          1    1    3    3  501    0  0.15068351714E+02 -0.43814505995E+01 -0.99934068164E+03  0.99946388144E+03  0.00000000000E+00 0.  1.
         21    1    1    2  502  501  0.92731893790E-03 -0.46976512707E-02 -0.91766035696E-02  0.10350743980E-01  0.00000000000E+00 0. -1.
<mgrwt>
<rscale>  1 0.64744774E+03</rscale>
<asrwt>0</asrwt>
<pdfrwt beam="1">  1        1 0.38108719E+00 0.64744774E+03</pdfrwt>
<pdfrwt beam="2">0</pdfrwt>
<totfact> 0.16237036E+00</totfact>
</mgrwt>
</event>
<event>
 6    1  0.3848910E-003  0.6355059E+03  0.7818608E-02  0.9834363E-01
          1   -1    0    0  502    0  0.00000000000E+00  0.00000000000E+00  0.10207466405E+03  0.10207466405E+03  0.00000000000E+00 0.  1.
         13   -1    0    0    0    0 -0.00000000000E+00 -0.00000000000E+00 -0.10000000000E+04  0.10000000000E+04  0.00000000000E+00 0.  1.
    9000005    2    1    2  501    0 -0.20050554006E+00  0.11100328489E+01 -0.89870814023E+03  0.11007016535E+04  0.63550494598E+03 0.  0.
         13    1    3    3    0    0 -0.28001712512E+03 -0.13411181388E+03 -0.56504920166E+03  0.64472953188E+03  0.00000000000E+00 0.  1.
          3    1    3    3  501    0  0.27981661958E+03  0.13522184673E+03 -0.33365893856E+03  0.45597212163E+03  0.00000000000E+00 0.  1.
         21    1    1    2  502  501  0.20050554006E+00 -0.11100328489E+01  0.78280427686E+00  0.13730105364E+01  0.00000000000E+00 0.  1.
<mgrwt>
<rscale>  1 0.63550595E+03</rscale>
<asrwt>0</asrwt>
<pdfrwt beam="1">  1        1 0.37118138E+00 0.63550595E+03</pdfrwt>
<pdfrwt beam="2">0</pdfrwt>
<totfact> 0.17992157E+00</totfact>
</mgrwt>
</event>
<event>
 6    1  0.3848910E-003  0.6450807E+03  0.7818608E-02  0.9816054E-01
          1   -1    0    0  502    0  0.00000000000E+00  0.00000000000E+00  0.10416116479E+03  0.10416116479E+03  0.00000000000E+00 0.  1.
         13   -1    0    0    0    0 -0.00000000000E+00 -0.00000000000E+00 -0.10000000000E+04  0.10000000000E+04  0.00000000000E+00 0.  1.
    9000005    2    1    2  501    0 -0.20533561333E+00  0.11399566848E+00 -0.89583715027E+03  0.11039263019E+04  0.64508063458E+03 0.  0.
         13    1    3    3    0    0  0.27577109026E+03  0.75239543542E+02 -0.70321481052E+03  0.75909271691E+03  0.00000000000E+00 0.  1.
          1    1    3    3  501    0 -0.27597642587E+03 -0.75125547873E+02 -0.19262233975E+03  0.34483358501E+03  0.00000000000E+00 0.  1.
         21    1    1    2  502  501  0.20533561333E+00 -0.11399566848E+00 -0.16849477778E-02  0.23486286548E+00  0.00000000000E+00 0. -1.
<mgrwt>
<rscale>  1 0.64508068E+03</rscale>
<asrwt>0</asrwt>
<pdfrwt beam="1">  1        1 0.37876867E+00 0.64508068E+03</pdfrwt>
<pdfrwt beam="2">0</pdfrwt>
<totfact> 0.16631261E+00</totfact>
</mgrwt>
</event>
<event>
 6    1  0.3848910E-003  0.6548073E+03  0.7818608E-02  0.9797800E-01
          1   -1    0    0  502    0  0.00000000000E+00  0.00000000000E+00  0.10772578654E+03  0.10772578654E+03  0.00000000000E+00 0.  1.
         13   -1    0    0    0    0 -0.00000000000E+00 -0.00000000000E+00 -0.10000000000E+04  0.10000000000E+04  0.00000000000E+00 0.  1.
    9000005    2    1    2  501    0 -0.15475302911E+00 -0.20257814728E-01 -0.89279414533E+03  0.11071829348E+04  0.65480733104E+03 0.  0.
         13    1    3    3    0    0 -0.13381243845E+03  0.24077904881E+03 -0.14715063396E+03  0.31230374333E+03  0.00000000000E+00 0.  1.
          1    1    3    3  501    0  0.13365768542E+03 -0.24079930662E+03 -0.74564351138E+03  0.79487919145E+03  0.00000000000E+00 0.  1.
         21    1    1    2  502  501  0.15475302911E+00  0.20257814728E-01  0.51993187525E+00  0.54285176059E+00  0.00000000000E+00 0. -1.
<mgrwt>
<rscale>  1 0.65480735E+03</rscale>
<asrwt>0</asrwt>
<pdfrwt beam="1">  1        1 0.39173096E+00 0.65480735E+03</pdfrwt>
<pdfrwt beam="2">0</pdfrwt>
<totfact> 0.14547937E+00</totfact>
</mgrwt>
</event>
<event>
 6    1  0.3848910E-003  0.6223086E+03  0.7818608E-02  0.9860174E-01
          1   -1    0    0  502    0  0.00000000000E+00  0.00000000000E+00  0.97333788829E+02  0.97333788829E+02  0.00000000000E+00 0.  1.
         13   -1    0    0    0    0 -0.00000000000E+00 -0.00000000000E+00 -0.10000000000E+04  0.10000000000E+04  0.00000000000E+00 0.  1.
    9000005    2    1    2  501    0 -0.48817898608E+00 -0.51601608501E-01 -0.90305221287E+03  0.10967093060E+04  0.62230841373E+03 0.  0.
         13    1    3    3    0    0  0.17657335404E+03  0.14698633902E+03 -0.82072311294E+03  0.85227317295E+03  0.00000000000E+00 0.  1.
          3    1    3    3  501    0 -0.17706153303E+03 -0.14703794063E+03 -0.82329099927E+02  0.24443613309E+03  0.00000000000E+00 0.  1.
         21    1    1    2  502  501  0.48817898608E+00  0.51601608501E-01  0.38600169691E+00  0.62448279278E+00  0.00000000000E+00 0. -1.
<mgrwt>
<rscale>  1 0.62230861E+03</rscale>
<asrwt>0</asrwt>
<pdfrwt beam="1">  1        1 0.35394180E+00 0.62230861E+03</pdfrwt>
<pdfrwt beam="2">0</pdfrwt>
<totfact> 0.21458308E+00</totfact>
</mgrwt>
</event>
<event>
 6    1  0.3848910E-003  0.6260792E+03  0.7818608E-02  0.9852730E-01
          1   -1    0    0  502    0  0.00000000000E+00  0.00000000000E+00  0.98924721381E+02  0.98924721381E+02  0.00000000000E+00 0.  1.
         13   -1    0    0    0    0 -0.00000000000E+00 -0.00000000000E+00 -0.10000000000E+04  0.10000000000E+04  0.00000000000E+00 0.  1.
    9000005    2    1    2  501    0 -0.11772218666E+00  0.13761896328E-01 -0.90200207168E+03  0.10979903803E+04  0.62607916740E+03 0.  0.
         13    1    3    3    0    0  0.26508033047E+03 -0.16335150411E+03 -0.50663254351E+03  0.59466614973E+03  0.00000000000E+00 0.  1.
          1    1    3    3  501    0 -0.26519805265E+03  0.16336526600E+03 -0.39536952817E+03  0.50332423056E+03  0.00000000000E+00 0.  1.
         21    1    1    2  502  501  0.11772218666E+00 -0.13761896328E-01  0.92679305642E+00  0.93434109000E+00  0.00000000000E+00 0. -1.
<mgrwt>
<rscale>  1 0.62607918E+03</rscale>
<asrwt>0</asrwt>
<pdfrwt beam="1">  1        1 0.35972702E+00 0.62607918E+03</pdfrwt>
<pdfrwt beam="2">0</pdfrwt>
<totfact> 0.20231646E+00</totfact>
</mgrwt>
</event>
<event>
 6    1  0.3848910E-003  0.6426125E+03  0.7818608E-02  0.9820741E-01
          1   -1    0    0  502    0  0.00000000000E+00  0.00000000000E+00  0.10345088078E+03  0.10345088078E+03  0.00000000000E+00 0.  1.
         13   -1    0    0    0    0 -0.00000000000E+00 -0.00000000000E+00 -0.10000000000E+04  0.10000000000E+04  0.00000000000E+00 0.  1.
    9000005    2    1    2  501    0 -0.16485995913E+00  0.70996193497E-01 -0.89671982728E+03  0.11032031703E+04  0.64261244463E+03 0.  0.
         13    1    3    3    0    0  0.25407273165E+02  0.23576626080E+03 -0.76130094870E+02  0.24905230496E+03  0.00000000000E+00 0.  1.
          1    1    3    3  501    0 -0.25572133124E+02 -0.23569526460E+03 -0.82058973241E+03  0.85415086529E+03  0.00000000000E+00 0.  1.
         21    1    1    2  502  501  0.16485995913E+00 -0.70996193497E-01  0.17070806032E+00  0.24771053162E+00  0.00000000000E+00 0. -1.
<mgrwt>
<rscale>  1 0.64261247E+03</rscale>
<asrwt>0</asrwt>
<pdfrwt beam="1">  1        1 0.37618581E+00 0.64261247E+03</pdfrwt>
<pdfrwt beam="2">0</pdfrwt>
<totfact> 0.17080635E+00</totfact>
</mgrwt>
</event>
<event>
 6    1  0.3848910E-003  0.6833928E+03  0.7818608E-02  0.9746062E-01
          1   -1    0    0  502    0  0.00000000000E+00  0.00000000000E+00  0.11675654400E+03  0.11675654400E+03  0.00000000000E+00 0.  1.
         13   -1    0    0    0    0 -0.00000000000E+00 -0.00000000000E+00 -0.10000000000E+04  0.10000000000E+04  0.00000000000E+00 0.  1.
    9000005    2    1    2  501    0 -0.24377902719E-06 -0.48322816042E-05 -0.88324356531E+03  0.11167564346E+04  0.68339281421E+03 0.  0.
         13    1    3    3    0    0 -0.15584002327E+03 -0.27392049957E+03 -0.22582998608E+03  0.38770831246E+03  0.00000000000E+00 0.  1.
          1    1    3    3  501    0  0.15584002303E+03  0.27392049474E+03 -0.65741357923E+03  0.72904812212E+03  0.00000000000E+00 0.  1.
         21    1    1    2  502  501  0.24377902989E-06  0.48322815926E-05  0.10931040229E-03  0.10941743198E-03  0.00000000000E+00 0.  1.
<mgrwt>
<rscale>  1 0.68339281E+03</rscale>
<asrwt>0</asrwt>
<pdfrwt beam="1">  1        1 0.42457015E+00 0.68339281E+03</pdfrwt>
<pdfrwt beam="2">0</pdfrwt>
<totfact> 0.10310664E+00</totfact>
</mgrwt>
</event>
<event>
 6    1  0.3848910E-003  0.6316427E+03  0.7818608E-02  0.9841848E-01
          1   -1    0    0  502    0  0.00000000000E+00  0.00000000000E+00  0.99923766772E+02  0.99923766772E+02  0.00000000000E+00 0.  1.
         13   -1    0    0    0    0 -0.00000000000E+00 -0.00000000000E+00 -0.10000000000E+04  0.10000000000E+04  0.00000000000E+00 0.  1.
    9000005    2    1    2  501    0 -0.40611517184E-01  0.66297620851E-02 -0.90025430231E+03  0.10997410051E+04  0.63164267405E+03 0.  0.
         13    1    3    3    0    0  0.41903259516E+02  0.44777684089E+02 -0.98952418585E+03  0.99142273452E+03  0.00000000000E+00 0.  1.
          3    1    3    3  501    0 -0.41943871033E+02 -0.44771054327E+02  0.89269883544E+02  0.10831827053E+03  0.00000000000E+00 0.  1.
         21    1    1    2  502  501  0.40611517184E-01 -0.66297620851E-02  0.17806907730E+00  0.18276171745E+00  0.00000000000E+00 0.  1.
<mgrwt>
<rscale>  1 0.63164268E+03</rscale>
<asrwt>0</asrwt>
<pdfrwt beam="1">  1        1 0.36335992E+00 0.63164268E+03</pdfrwt>
<pdfrwt beam="2">0</pdfrwt>
<totfact> 0.19484821E+00</totfact>
</mgrwt>
</event>
<event>
 6    1  0.3848910E-003  0.6398192E+03  0.7818608E-02  0.9826073E-01
          1   -1    0    0  502    0  0.00000000000E+00  0.00000000000E+00  0.10235980363E+03  0.10235980363E+03  0.00000000000E+00 0.  1.
         13   -1    0    0    0    0 -0.00000000000E+00 -0.00000000000E+00 -0.10000000000E+04  0.10000000000E+04  0.00000000000E+00 0.  1.
    9000005    2    1    2  501    0  0.48670047863E-03 -0.50950988560E-03 -0.89765784423E+03  0.11023421417E+04  0.63981918701E+03 0.  0.
         13    1    3    3    0    0  0.12413000772E+03 -0.25887987548E+03 -0.20569154221E+03  0.35317992480E+03  0.00000000000E+00 0.  1.
          1    1    3    3  501    0 -0.12412952102E+03  0.25887936597E+03 -0.69196630202E+03  0.74916221691E+03  0.00000000000E+00 0.  1.
         21    1    1    2  502  501 -0.48670047863E-03  0.50950988560E-03  0.17647863600E-01  0.17661924225E-01  0.00000000000E+00 0.  1.
<mgrwt>
<rscale>  1 0.63981919E+03</rscale>
<asrwt>0</asrwt>
<pdfrwt beam="1">  1        1 0.37221825E+00 0.63981919E+03</pdfrwt>
<pdfrwt beam="2">0</pdfrwt>
<totfact> 0.17790321E+00</totfact>
</mgrwt>
</event>
<event>
 6    1  0.3848910E-003  0.6170547E+03  0.7818608E-02  0.9870641E-01
          1   -1    0    0  502    0  0.00000000000E+00  0.00000000000E+00  0.95190309131E+02  0.95190309131E+02  0.00000000000E+00 0.  1.
         13   -1    0    0    0    0 -0.00000000000E+00 -0.00000000000E+00 -0.10000000000E+04  0.10000000000E+04  0.00000000000E+00 0.  1.
    9000005    2    1    2  501    0 -0.86417227863E-05 -0.21577898540E-04 -0.90481085926E+03  0.10951891405E+04  0.61705474836E+03 0.  0.
         13    1    3    3    0    0 -0.26281882213E+03 -0.31096344908E+02 -0.73386813601E+03  0.78013021797E+03  0.00000000000E+00 0.  1.
          3    1    3    3  501    0  0.26281881348E+03  0.31096323330E+02 -0.17094272324E+03  0.31505892254E+03  0.00000000000E+00 0.  1.
         21    1    1    2  502  501  0.86417227487E-05  0.21577898540E-04  0.11683863257E-02  0.11686175128E-02  0.00000000000E+00 0.  1.
<mgrwt>
<rscale>  1 0.61705475E+03</rscale>
<asrwt>0</asrwt>
<pdfrwt beam="1">  1        1 0.34614731E+00 0.61705475E+03</pdfrwt>
<pdfrwt beam="2">0</pdfrwt>
<totfact> 0.23225614E+00</totfact>
</mgrwt>
</event>
<event>
 6    1  0.3848910E-003  0.6440292E+03  0.7818608E-02  0.9818048E-01
          1   -1    0    0  502    0  0.00000000000E+00  0.00000000000E+00  0.10375882081E+03  0.10375882081E+03  0.00000000000E+00 0.  1.
         13   -1    0    0    0    0 -0.00000000000E+00 -0.00000000000E+00 -0.10000000000E+04  0.10000000000E+04  0.00000000000E+00 0.  1.
    9000005    2    1    2  501    0 -0.10382732958E-03  0.93702355076E-03 -0.89630658505E+03  0.11036934082E+04  0.64402922667E+03 0.  0.
         13    1    3    3    0    0 -0.14966315575E+03  0.27372634620E+03 -0.58491473453E+03  0.66291056672E+03  0.00000000000E+00 0.  1.
          3    1    3    3  501    0  0.14966305192E+03 -0.27372540918E+03 -0.31139185052E+03  0.44078284144E+03  0.00000000000E+00 0.  1.
         21    1    1    2  502  501  0.10382732956E-03 -0.93702355074E-03  0.65405854816E-01  0.65412648910E-01  0.00000000000E+00 0.  1.
<mgrwt>
<rscale>  1 0.64402923E+03</rscale>
<asrwt>0</asrwt>
<pdfrwt beam="1">  1        1 0.37730560E+00 0.64402923E+03</pdfrwt>
<pdfrwt beam="2">0</pdfrwt>
<totfact> 0.16883335E+00</totfact>
</mgrwt>
</event>
<event>
 6    1  0.3848910E-003  0.6475815E+03  0.7818608E-02  0.9811328E-01
          1   -1    0    0  502    0  0.00000000000E+00  0.00000000000E+00  0.10485588359E+03  0.10485588359E+03  0.00000000000E+00 0.  1.
         13   -1    0    0    0    0 -0.00000000000E+00 -0.00000000000E+00 -0.10000000000E+04  0.10000000000E+04  0.00000000000E+00 0.  1.
    9000005    2    1    2  501    0 -0.26395548544E-02 -0.25534539792E-02 -0.89515930870E+03  0.11048402537E+04  0.64758149931E+03 0.  0.
         13    1    3    3    0    0  0.20407310474E+03 -0.24406434770E+03 -0.55033332136E+03  0.63567287381E+03  0.00000000000E+00 0.  1.
          1    1    3    3  501    0 -0.20407574429E+03  0.24406179425E+03 -0.34482598734E+03  0.46916737990E+03  0.00000000000E+00 0.  1.
         21    1    1    2  502  501  0.26395548544E-02  0.25534539792E-02  0.15192287235E-01  0.15629874231E-01  0.00000000000E+00 0. -1.
<mgrwt>
<rscale>  1 0.64758150E+03</rscale>
<asrwt>0</asrwt>
<pdfrwt beam="1">  1        1 0.38129493E+00 0.64758150E+03</pdfrwt>
<pdfrwt beam="2">0</pdfrwt>
<totfact> 0.16202384E+00</totfact>
</mgrwt>
</event>
<event>
 6    1  0.4971915E-003  0.6630904E+03  0.7818608E-02  0.9782521E-01
          1   -1    0    0  502    0  0.00000000000E+00  0.00000000000E+00  0.10992222180E+03  0.10992222180E+03  0.00000000000E+00 0.  1.
         13   -1    0    0    0    0 -0.00000000000E+00 -0.00000000000E+00 -0.10000000000E+04  0.10000000000E+04  0.00000000000E+00 0.  1.
    9000005    2    1    2  501    0  0.47451965202E-06  0.36039147915E-05 -0.89007778179E+03  0.11099222167E+04  0.66309039314E+03 0.  0.
         13    1    3    3    0    0 -0.30897743723E+03 -0.66768417907E+02 -0.61240120182E+03  0.68917364310E+03  0.00000000000E+00 0.  1.
          3    1    3    3  501    0  0.30897743770E+03  0.66768421511E+02 -0.27767657997E+03  0.42074857359E+03  0.00000000000E+00 0.  1.
         21    1    1    2  502  501 -0.47451960208E-06 -0.36039147882E-05  0.35920161417E-05  0.51103767587E-05  0.00000000000E+00 0. -1.
<mgrwt>
<rscale>  1 0.66309039E+03</rscale>
<asrwt>0</asrwt>
<pdfrwt beam="1">  1        1 0.39971801E+00 0.66309039E+03</pdfrwt>
<pdfrwt beam="2">0</pdfrwt>
<totfact> 0.13384425E+00</totfact>
</mgrwt>
</event>
<event>
 6    1  0.3848910E-003  0.6636674E+03  0.7818608E-02  0.9781466E-01
          1   -1    0    0  502    0  0.00000000000E+00  0.00000000000E+00  0.11011405498E+03  0.11011405498E+03  0.00000000000E+00 0.  1.
         13   -1    0    0    0    0 -0.00000000000E+00 -0.00000000000E+00 -0.10000000000E+04  0.10000000000E+04  0.00000000000E+00 0.  1.
    9000005    2    1    2  501    0 -0.86784748703E-05 -0.15756819266E-04 -0.88988640914E+03  0.11101135905E+04  0.66366735844E+03 0.  0.
         13    1    3    3    0    0 -0.24969584959E+03  0.12972324931E+03 -0.73915442642E+03  0.79090164042E+03  0.00000000000E+00 0.  1.
          1    1    3    3  501    0  0.24969584091E+03 -0.12972326507E+03 -0.15073198272E+03  0.31921195009E+03  0.00000000000E+00 0.  1.
         21    1    1    2  502  501  0.86784748795E-05  0.15756819272E-04  0.46412329053E-03  0.46447176673E-03  0.00000000000E+00 0.  1.
<mgrwt>
<rscale>  1 0.66366736E+03</rscale>
<asrwt>0</asrwt>
<pdfrwt beam="1">  1        1 0.40041559E+00 0.66366736E+03</pdfrwt>
<pdfrwt beam="2">0</pdfrwt>
<totfact> 0.13287461E+00</totfact>
</mgrwt>
</event>
<event>
 6    1  0.3848910E-003  0.6539587E+03  0.7818608E-02  0.9799379E-01
          1   -1    0    0  502    0  0.00000000000E+00  0.00000000000E+00  0.10691646490E+03  0.10691646490E+03  0.00000000000E+00 0.  1.
         13   -1    0    0    0    0 -0.00000000000E+00 -0.00000000000E+00 -0.10000000000E+04  0.10000000000E+04  0.00000000000E+00 0.  1.
    9000005    2    1    2  501    0 -0.30655394141E-04  0.26911057797E-02 -0.89308161646E+03  0.11069131597E+04  0.65395869098E+03 0.  0.
         13    1    3    3    0    0  0.23768838163E+03 -0.21255248257E+03 -0.56907265415E+03  0.65231741531E+03  0.00000000000E+00 0.  1.
          1    1    3    3  501    0 -0.23768841228E+03  0.21255517367E+03 -0.32400896231E+03  0.45459574442E+03  0.00000000000E+00 0.  1.
         21    1    1    2  502  501  0.30655394134E-04 -0.26911057797E-02 -0.19186364420E-02  0.33051710799E-02  0.00000000000E+00 0.  1.
<mgrwt>
<rscale>  1 0.65395869E+03</rscale>
<asrwt>0</asrwt>
<pdfrwt beam="1">  1        1 0.38878796E+00 0.65395869E+03</pdfrwt>
<pdfrwt beam="2">0</pdfrwt>
<totfact> 0.14994186E+00</totfact>
</mgrwt>
</event>
<event>
 6    1  0.3848910E-003  0.6585580E+03  0.7818608E-02  0.9790852E-01
          1   -1    0    0  502    0  0.00000000000E+00  0.00000000000E+00  0.11532667791E+03  0.11532667791E+03  0.00000000000E+00 0.  1.
         13   -1    0    0    0    0 -0.00000000000E+00 -0.00000000000E+00 -0.10000000000E+04  0.10000000000E+04  0.00000000000E+00 0.  1.
    9000005    2    1    2  501    0 -0.17957871439E+01  0.17186833278E+02 -0.87615890700E+03  0.10960625311E+04  0.65833124610E+03 0.  0.
         13    1    3    3    0    0 -0.15356177773E+03  0.23757586602E+03 -0.14584194477E+03  0.31826621648E+03  0.00000000000E+00 0.  1.
          3    1    3    3  501    0  0.15176599059E+03 -0.22038903275E+03 -0.73031696223E+03  0.77779631458E+03  0.00000000000E+00 0.  1.
         21    1    1    2  502  501  0.17957871439E+01 -0.17186833278E+02 -0.85144150856E+01  0.19264146850E+02  0.00000000000E+00 0. -1.
<mgrwt>
<rscale>  1 0.65855800E+03</rscale>
<asrwt>0</asrwt>
<pdfrwt beam="1">  1        1 0.41937062E+00 0.65855800E+03</pdfrwt>
<pdfrwt beam="2">0</pdfrwt>
<totfact> 0.10936153E+00</totfact>
</mgrwt>
</event>
<event>
 6    1  0.3848910E-003  0.6474405E+03  0.7818608E-02  0.9811594E-01
          3   -1    0    0  502    0  0.00000000000E+00  0.00000000000E+00  0.10481289569E+03  0.10481289569E+03  0.00000000000E+00 0.  1.
         13   -1    0    0    0    0 -0.00000000000E+00 -0.00000000000E+00 -0.10000000000E+04  0.10000000000E+04  0.00000000000E+00 0.  1.
    9000005    2    1    2  501    0 -0.20279599306E-03 -0.52760700922E-03 -0.89520518715E+03  0.11047948040E+04  0.64744052382E+03 0.  0.
         13    1    3    3    0    0  0.28265546893E+03  0.10258198316E+03 -0.24299383200E+03  0.38660468152E+03  0.00000000000E+00 0.  1.
          3    1    3    3  501    0 -0.28265567172E+03 -0.10258251077E+03 -0.65221135515E+03  0.71819012250E+03  0.00000000000E+00 0.  1.
         21    1    1    2  502  501  0.20279599306E-03  0.52760700922E-03  0.18082838841E-01  0.18091670899E-01  0.00000000000E+00 0. -1.
<mgrwt>
<rscale>  1 0.64744052E+03</rscale>
<asrwt>0</asrwt>
<pdfrwt beam="1">  1        3 0.38113861E+00 0.64744052E+03</pdfrwt>
<pdfrwt beam="2">0</pdfrwt>
<totfact> 0.74472850E-02</totfact>
</mgrwt>
</event>
<event>
 6    1  0.3848910E-003  0.6669318E+03  0.7818608E-02  0.9775517E-01
          1   -1    0    0  502    0  0.00000000000E+00  0.00000000000E+00  0.16336831293E+03  0.16336831293E+03  0.00000000000E+00 0.  1.
         13   -1    0    0    0    0 -0.00000000000E+00 -0.00000000000E+00 -0.10000000000E+04  0.10000000000E+04  0.00000000000E+00 0.  1.
    9000005    2    1    2  501    0 -0.10573977018E+03 -0.31422804308E+02 -0.81120210834E+03  0.10501651544E+04  0.65774592306E+03 0.  0.
         13    1    3    3    0    0 -0.18062015814E+03  0.28726983288E+03 -0.42654809368E+03  0.54506043209E+03  0.00000000000E+00 0.  1.
          1    1    3    3  501    0  0.74880387963E+02 -0.31869263719E+03 -0.38465401466E+03  0.50510472230E+03  0.00000000000E+00 0.  1.
         21    1    1    2  502  501  0.10573977018E+03  0.31422804308E+02 -0.25429578728E+02  0.11320315854E+03  0.00000000000E+00 0. -1.
<mgrwt>
<rscale>  1 0.66693177E+03</rscale>
<asrwt>0</asrwt>
<pdfrwt beam="1">  1        1 0.59406785E+00 0.66693177E+03</pdfrwt>
<pdfrwt beam="2">0</pdfrwt>
<totfact> 0.15325294E-01</totfact>
</mgrwt>
</event>
<event>
 6    1  0.3848910E-003  0.6581039E+03  0.7818608E-02  0.9791691E-01
          1   -1    0    0  502    0  0.00000000000E+00  0.00000000000E+00  0.10829178254E+03  0.10829178254E+03  0.00000000000E+00 0.  1.
         13   -1    0    0    0    0 -0.00000000000E+00 -0.00000000000E+00 -0.10000000000E+04  0.10000000000E+04  0.00000000000E+00 0.  1.
    9000005    2    1    2  501    0  0.16424255564E-02  0.28345288741E-01 -0.89171011156E+03  0.11082633266E+04  0.65810384987E+03 0.  0.
         13    1    3    3    0    0 -0.66009894816E+02  0.24106878792E+03 -0.80630700866E+03  0.84415784006E+03  0.00000000000E+00 0.  1.
          1    1    3    3  501    0  0.66011537242E+02 -0.24104044263E+03 -0.85403102898E+02  0.26410548654E+03  0.00000000000E+00 0.  1.
         21    1    1    2  502  501 -0.16424255564E-02 -0.28345288741E-01  0.18940944575E-02  0.28455940492E-01  0.00000000000E+00 0.  1.
<mgrwt>
<rscale>  1 0.65810385E+03</rscale>
<asrwt>0</asrwt>
<pdfrwt beam="1">  1        1 0.39378913E+00 0.65810385E+03</pdfrwt>
<pdfrwt beam="2">0</pdfrwt>
<totfact> 0.14236204E+00</totfact>
</mgrwt>
</event>
<event>
 6    1  0.3848910E-003  0.6537344E+03  0.7818608E-02  0.9799797E-01
          1   -1    0    0  502    0  0.00000000000E+00  0.00000000000E+00  0.10684227815E+03  0.10684227815E+03  0.00000000000E+00 0.  1.
         13   -1    0    0    0    0 -0.00000000000E+00 -0.00000000000E+00 -0.10000000000E+04  0.10000000000E+04  0.00000000000E+00 0.  1.
    9000005    2    1    2  501    0 -0.13120686788E-04 -0.30361361667E-04 -0.89315782431E+03  0.11068421705E+04  0.65373441950E+03 0.  0.
         13    1    3    3    0    0  0.13758960904E+03  0.29173109951E+03 -0.35692049783E+03  0.48107190388E+03  0.00000000000E+00 0.  1.
          3    1    3    3  501    0 -0.13758962216E+03 -0.29173112987E+03 -0.53623732648E+03  0.62577026660E+03  0.00000000000E+00 0.  1.
         21    1    1    2  502  501  0.13120686805E-04  0.30361361676E-04  0.10245723212E-03  0.10766359235E-03  0.00000000000E+00 0. -1.
<mgrwt>
<rscale>  1 0.65373442E+03</rscale>
<asrwt>0</asrwt>
<pdfrwt beam="1">  1        1 0.38851819E+00 0.65373442E+03</pdfrwt>
<pdfrwt beam="2">0</pdfrwt>
<totfact> 0.15036143E+00</totfact>
</mgrwt>
</event>
<event>
 6    1  0.3848910E-003  0.6587812E+03  0.7818608E-02  0.9790440E-01
          1   -1    0    0  502    0  0.00000000000E+00  0.00000000000E+00  0.10849858776E+03  0.10849858776E+03  0.00000000000E+00 0.  1.
         13   -1    0    0    0    0 -0.00000000000E+00 -0.00000000000E+00 -0.10000000000E+04  0.10000000000E+04  0.00000000000E+00 0.  1.
    9000005    2    1    2  501    0 -0.11398839311E-03 -0.11645183734E-03 -0.89150183143E+03  0.11084981380E+04  0.65878115223E+03 0.  0.
         13    1    3    3    0    0 -0.15504336610E+03 -0.22508684829E+01  0.43245384235E+02  0.16097725006E+03  0.00000000000E+00 0.  1.
          1    1    3    3  501    0  0.15504325211E+03  0.22507520311E+01 -0.93474721566E+03  0.94752088795E+03  0.00000000000E+00 0.  1.
         21    1    1    2  502  501  0.11398839312E-03  0.11645183734E-03  0.41918596452E-03  0.44974576934E-03  0.00000000000E+00 0.  1.
<mgrwt>
<rscale>  1 0.65878115E+03</rscale>
<asrwt>0</asrwt>
<pdfrwt beam="1">  1        1 0.39454115E+00 0.65878115E+03</pdfrwt>
<pdfrwt beam="2">0</pdfrwt>
<totfact> 0.14125275E+00</totfact>
</mgrwt>
</event>
<event>
 6    1  0.3848910E-003  0.6566256E+03  0.7818608E-02  0.9794426E-01
          1   -1    0    0  502    0  0.00000000000E+00  0.00000000000E+00  0.10778964719E+03  0.10778964719E+03  0.00000000000E+00 0.  1.
         13   -1    0    0    0    0 -0.00000000000E+00 -0.00000000000E+00 -0.10000000000E+04  0.10000000000E+04  0.00000000000E+00 0.  1.
    9000005    2    1    2  501    0 -0.92362822386E-05  0.31078526820E-03 -0.89221062904E+03  0.11077892313E+04  0.65662559680E+03 0.  0.
         13    1    3    3    0    0 -0.14931726404E+03  0.27151725302E+03 -0.62915416487E+03  0.70132177152E+03  0.00000000000E+00 0.  1.
          3    1    3    3  501    0  0.14931725481E+03 -0.27151694224E+03 -0.26305646417E+03  0.40646745977E+03  0.00000000000E+00 0.  1.
         21    1    1    2  502  501  0.92362822558E-05 -0.31078526819E-03  0.27622881154E-03  0.41590281096E-03  0.00000000000E+00 0.  1.
<mgrwt>
<rscale>  1 0.65662560E+03</rscale>
<asrwt>0</asrwt>
<pdfrwt beam="1">  1        1 0.39196318E+00 0.65662560E+03</pdfrwt>
<pdfrwt beam="2">0</pdfrwt>
<totfact> 0.14508543E+00</totfact>
</mgrwt>
</event>
<event>
 6    1  0.3848910E-003  0.6526799E+03  0.7818608E-02  0.9801763E-01
          1   -1    0    0  502    0  0.00000000000E+00  0.00000000000E+00  0.10660436048E+03  0.10660436048E+03  0.00000000000E+00 0.  1.
         13   -1    0    0    0    0 -0.00000000000E+00 -0.00000000000E+00 -0.10000000000E+04  0.10000000000E+04  0.00000000000E+00 0.  1.
    9000005    2    1    2  501    0 -0.34895052746E-01 -0.25127712718E+00 -0.89329722737E+03  0.11063322524E+04  0.65267990003E+03 0.  0.
         13    1    3    3    0    0  0.26951173518E+03  0.12937266512E+03 -0.66810178055E+03  0.73193842026E+03  0.00000000000E+00 0.  1.
          1    1    3    3  501    0 -0.26954663023E+03 -0.12962394225E+03 -0.22519544682E+03  0.37439383213E+03  0.00000000000E+00 0.  1.
         21    1    1    2  502  501  0.34895052746E-01  0.25127712718E+00 -0.98412146318E-01  0.27210808494E+00  0.00000000000E+00 0. -1.
<mgrwt>
<rscale>  1 0.65267995E+03</rscale>
<asrwt>0</asrwt>
<pdfrwt beam="1">  1        1 0.38765304E+00 0.65267995E+03</pdfrwt>
<pdfrwt beam="2">0</pdfrwt>
<totfact> 0.15172395E+00</totfact>
</mgrwt>
</event>
<event>
 6    1  0.3848910E-003  0.5913210E+03  0.7818608E-02  0.9923578E-01
          1   -1    0    0  502    0  0.00000000000E+00  0.00000000000E+00  0.11396097208E+03  0.11396097208E+03  0.00000000000E+00 0.  1.
         13   -1    0    0    0    0 -0.00000000000E+00 -0.00000000000E+00 -0.10000000000E+04  0.10000000000E+04  0.00000000000E+00 0.  1.
    9000005    2    1    2  501    0 -0.11653927793E+01  0.61804304282E+00 -0.91256704778E+03  0.10874001747E+04  0.59131952719E+03 0.  0.
         13    1    3    3    0    0 -0.38651943738E+02  0.28624083738E+03 -0.33756254024E+03  0.44427047878E+03  0.00000000000E+00 0.  1.
          3    1    3    3  501    0  0.37486550958E+02 -0.28562279434E+03 -0.57500450753E+03  0.64312969597E+03  0.00000000000E+00 0.  1.
         21    1    1    2  502  501  0.11653927793E+01 -0.61804304282E+00  0.26528019859E+02  0.26560797337E+02  0.00000000000E+00 0. -1.
<mgrwt>
<rscale>  1 0.59132100E+03</rscale>
<asrwt>0</asrwt>
<pdfrwt beam="1">  1        1 0.41440441E+00 0.59132100E+03</pdfrwt>
<pdfrwt beam="2">0</pdfrwt>
<totfact> 0.11672457E+00</totfact>
</mgrwt>
</event>
<event>
 6    1  0.3848910E-003  0.6247630E+03  0.7818608E-02  0.9855322E-01
          1   -1    0    0  502    0  0.00000000000E+00  0.00000000000E+00  0.99173519424E+02  0.99173519424E+02  0.00000000000E+00 0.  1.
         13   -1    0    0    0    0 -0.00000000000E+00 -0.00000000000E+00 -0.10000000000E+04  0.10000000000E+04  0.00000000000E+00 0.  1.
    9000005    2    1    2  501    0  0.10080965447E+01  0.19839537985E+01 -0.90151857986E+03  0.10968429974E+04  0.62475904064E+03 0.  0.
         13    1    3    3    0    0  0.82168046032E+02 -0.29809048686E+03 -0.38244409871E+03  0.49180587104E+03  0.00000000000E+00 0.  1.
          3    1    3    3  501    0 -0.81159949487E+02  0.30007444066E+03 -0.51907448115E+03  0.60503712640E+03  0.00000000000E+00 0.  1.
         21    1    1    2  502  501 -0.10080965447E+01 -0.19839537985E+01  0.69209928497E+00  0.23305219884E+01  0.00000000000E+00 0. -1.
<mgrwt>
<rscale>  1 0.62476300E+03</rscale>
<asrwt>0</asrwt>
<pdfrwt beam="1">  1        1 0.36063174E+00 0.62476300E+03</pdfrwt>
<pdfrwt beam="2">0</pdfrwt>
<totfact> 0.20052963E+00</totfact>
</mgrwt>
</event>
<event>
 6    1  0.3848910E-003  0.6545340E+03  0.7818608E-02  0.9798308E-01
          1   -1    0    0  502    0  0.00000000000E+00  0.00000000000E+00  0.10710370544E+03  0.10710370544E+03  0.00000000000E+00 0.  1.
         13   -1    0    0    0    0 -0.00000000000E+00 -0.00000000000E+00 -0.10000000000E+04  0.10000000000E+04  0.00000000000E+00 0.  1.
    9000005    2    1    2  501    0 -0.23808177048E-05  0.78081139065E-05 -0.89289631060E+03  0.11071036874E+04  0.65453399701E+03 0.  0.
         13    1    3    3    0    0  0.27227580237E+03  0.18043433290E+03 -0.48082340555E+03  0.58127601737E+03  0.00000000000E+00 0.  1.
          3    1    3    3  501    0 -0.27227580475E+03 -0.18043432509E+03 -0.41207290506E+03  0.52582767007E+03  0.00000000000E+00 0.  1.
         21    1    1    2  502  501  0.23808176730E-05 -0.78081138886E-05  0.16039879959E-04  0.17997574403E-04  0.00000000000E+00 0.  1.
<mgrwt>
<rscale>  1 0.65453400E+03</rscale>
<asrwt>0</asrwt>
<pdfrwt beam="1">  1        1 0.38946884E+00 0.65453400E+03</pdfrwt>
<pdfrwt beam="2">0</pdfrwt>
<totfact> 0.14888757E+00</totfact>
</mgrwt>
</event>
<event>
 6    1  0.3848910E-003  0.5971535E+03  0.7818608E-02  0.9911329E-01
          1   -1    0    0  502    0  0.00000000000E+00  0.00000000000E+00  0.89153209628E+02  0.89153209628E+02  0.00000000000E+00 0.  1.
         13   -1    0    0    0    0 -0.00000000000E+00 -0.00000000000E+00 -0.10000000000E+04  0.10000000000E+04  0.00000000000E+00 0.  1.
    9000005    2    1    2  501    0  0.15450711794E-02  0.70067975753E-03 -0.91085176347E+03  0.10891479551E+04  0.59715352559E+03 0.  0.
         13    1    3    3    0    0 -0.20090829181E+03  0.20969541803E+03 -0.32890928220E+03  0.43876830558E+03  0.00000000000E+00 0.  1.
          3    1    3    3  501    0  0.20090983688E+03 -0.20969471735E+03 -0.58194248126E+03  0.65037964954E+03  0.00000000000E+00 0.  1.
         21    1    1    2  502  501 -0.15450711794E-02 -0.70067975753E-03  0.49730939954E-02  0.52545086315E-02  0.00000000000E+00 0.  1.
<mgrwt>
<rscale>  1 0.59715353E+03</rscale>
<asrwt>0</asrwt>
<pdfrwt beam="1">  1        1 0.32419417E+00 0.59715353E+03</pdfrwt>
<pdfrwt beam="2">0</pdfrwt>
<totfact> 0.29021914E+00</totfact>
</mgrwt>
</event>
<event>
 6    1  0.3848910E-003  0.6479839E+03  0.7818608E-02  0.9810570E-01
          1   -1    0    0  502    0  0.00000000000E+00  0.00000000000E+00  0.10497117920E+03  0.10497117920E+03  0.00000000000E+00 0.  1.
         13   -1    0    0    0    0 -0.00000000000E+00 -0.00000000000E+00 -0.10000000000E+04  0.10000000000E+04  0.00000000000E+00 0.  1.
    9000005    2    1    2  501    0 -0.78381920048E-05 -0.37664528918E-06 -0.89502922948E+03  0.11049707704E+04  0.64798385931E+03 0.  0.
         13    1    3    3    0    0 -0.14237271526E+03  0.26741322452E+03 -0.64336508732E+03  0.71112478391E+03  0.00000000000E+00 0.  1.
          3    1    3    3  501    0  0.14237270742E+03 -0.26741322490E+03 -0.25166414215E+03  0.39384598654E+03  0.00000000000E+00 0.  1.
         21    1    1    2  502  501  0.78381920231E-05  0.37664530916E-06  0.40867948131E-03  0.40875481350E-03  0.00000000000E+00 0. -1.
<mgrwt>
<rscale>  1 0.64798386E+03</rscale>
<asrwt>0</asrwt>
<pdfrwt beam="1">  1        1 0.38171418E+00 0.64798386E+03</pdfrwt>
<pdfrwt beam="2">0</pdfrwt>
<totfact> 0.16132272E+00</totfact>
</mgrwt>
</event>
<event>
 6    1  0.3848910E-003  0.6496210E+03  0.7818608E-02  0.9807491E-01
          1   -1    0    0  502    0  0.00000000000E+00  0.00000000000E+00  0.10550187480E+03  0.10550187480E+03  0.00000000000E+00 0.  1.
         13   -1    0    0    0    0 -0.00000000000E+00 -0.00000000000E+00 -0.10000000000E+04  0.10000000000E+04  0.00000000000E+00 0.  1.
    9000005    2    1    2  501    0 -0.14151943333E-05 -0.11345738020E-05 -0.89449814746E+03  0.11055018525E+04  0.64962097411E+03 0.  0.
         13    1    3    3    0    0  0.13402714422E+03  0.14058267024E+02  0.55681887776E+02  0.14581283512E+03  0.00000000000E+00 0.  1.
          3    1    3    3  501    0 -0.13402714563E+03 -0.14058268159E+02 -0.95018003523E+03  0.95968901735E+03  0.00000000000E+00 0.  1.
         21    1    1    2  502  501  0.14151943306E-05  0.11345738032E-05  0.22257488120E-04  0.22331274261E-04  0.00000000000E+00 0. -1.
<mgrwt>
<rscale>  1 0.64962097E+03</rscale>
<asrwt>0</asrwt>
<pdfrwt beam="1">  1        1 0.38364399E+00 0.64962097E+03</pdfrwt>
<pdfrwt beam="2">0</pdfrwt>
<totfact> 0.15813882E+00</totfact>
</mgrwt>
</event>
<event>
 6    1  0.3848910E-003  0.6349087E+03  0.7818608E-02  0.9835516E-01
          1   -1    0    0  502    0  0.00000000000E+00  0.00000000000E+00  0.10077740946E+03  0.10077740946E+03  0.00000000000E+00 0.  1.
         13   -1    0    0    0    0 -0.00000000000E+00 -0.00000000000E+00 -0.10000000000E+04  0.10000000000E+04  0.00000000000E+00 0.  1.
    9000005    2    1    2  501    0  0.38856285869E-05  0.56313295005E-05 -0.89922274831E+03  0.11007772515E+04  0.63490865992E+03 0.  0.
         13    1    3    3    0    0  0.29695313448E+03  0.50907085228E+02 -0.62302656921E+03  0.69205115515E+03  0.00000000000E+00 0.  1.
          3    1    3    3  501    0 -0.29695313060E+03 -0.50907079597E+02 -0.27619617910E+03  0.40872609639E+03  0.00000000000E+00 0.  1.
         21    1    1    2  502  501 -0.38856285764E-05 -0.56313295024E-05  0.15777262584E-03  0.15792090249E-03  0.00000000000E+00 0.  1.
<mgrwt>
<rscale>  1 0.63490866E+03</rscale>
<asrwt>0</asrwt>
<pdfrwt beam="1">  1        1 0.36646408E+00 0.63490866E+03</pdfrwt>
<pdfrwt beam="2">0</pdfrwt>
<totfact> 0.18872795E+00</totfact>
</mgrwt>
</event>
<event>
 6    1  0.3848910E-003  0.6462811E+03  0.7818608E-02  0.9813783E-01
          1   -1    0    0  502    0  0.00000000000E+00  0.00000000000E+00  0.10520684085E+03  0.10520684085E+03  0.00000000000E+00 0.  1.
         13   -1    0    0    0    0 -0.00000000000E+00 -0.00000000000E+00 -0.10000000000E+04  0.10000000000E+04  0.00000000000E+00 0.  1.
    9000005    2    1    2  501    0  0.19651002615E+01  0.14308479337E+01 -0.89149113561E+03  0.11011065598E+04  0.64627649060E+03 0.  0.
         13    1    3    3    0    0 -0.28146474382E+03  0.18648197935E+01 -0.17711637746E+03  0.33255990548E+03  0.00000000000E+00 0.  1.
          1    1    3    3  501    0  0.28342984408E+03 -0.43397185978E+00 -0.71437475815E+03  0.76854665436E+03  0.00000000000E+00 0.  1.
         21    1    1    2  502  501 -0.19651002615E+01 -0.14308479337E+01 -0.33020235462E+01  0.41002810083E+01  0.00000000000E+00 0. -1.
<mgrwt>
<rscale>  1 0.64628106E+03</rscale>
<asrwt>0</asrwt>
<pdfrwt beam="1">  1        1 0.38257114E+00 0.64628106E+03</pdfrwt>
<pdfrwt beam="2">0</pdfrwt>
<totfact> 0.15997310E+00</totfact>
</mgrwt>
</event>
<event>
 6    1  0.3848910E-003  0.6606240E+03  0.7818608E-02  0.9787046E-01
          1   -1    0    0  502    0  0.00000000000E+00  0.00000000000E+00  0.10944104007E+03  0.10944104007E+03  0.00000000000E+00 0.  1.
         13   -1    0    0    0    0 -0.00000000000E+00 -0.00000000000E+00 -0.10000000000E+04  0.10000000000E+04  0.00000000000E+00 0.  1.
    9000005    2    1    2  501    0 -0.89809962418E-02  0.21213293183E-02 -0.89089392383E+03  0.11091059491E+04  0.66062396466E+03 0.  0.
         13    1    3    3    0    0  0.90559274198E+02 -0.26226753946E+02 -0.97692640261E+03  0.98146524181E+03  0.00000000000E+00 0.  1.
          3    1    3    3  501    0 -0.90568255194E+02  0.26228875276E+02  0.86032478780E+02  0.12764070727E+03  0.00000000000E+00 0.  1.
         21    1    1    2  502  501  0.89809962418E-02 -0.21213293183E-02  0.33496389567E+00  0.33509098724E+00  0.00000000000E+00 0.  1.
<mgrwt>
<rscale>  1 0.66062396E+03</rscale>
<asrwt>0</asrwt>
<pdfrwt beam="1">  1        1 0.39796826E+00 0.66062396E+03</pdfrwt>
<pdfrwt beam="2">0</pdfrwt>
<totfact> 0.13633189E+00</totfact>
</mgrwt>
</event>
<event>
 6    1  0.3848910E-003  0.6462698E+03  0.7818608E-02  0.9813804E-01
          1   -1    0    0  502    0  0.00000000000E+00  0.00000000000E+00  0.10447845741E+03  0.10447845741E+03  0.00000000000E+00 0.  1.
         13   -1    0    0    0    0 -0.00000000000E+00 -0.00000000000E+00 -0.10000000000E+04  0.10000000000E+04  0.00000000000E+00 0.  1.
    9000005    2    1    2  501    0 -0.59555599074E-02  0.10320952640E-01 -0.89558321460E+03  0.11044156448E+04  0.64626977493E+03 0.  0.
         13    1    3    3    0    0  0.13857316561E+03 -0.19891585020E+03 -0.81288131802E+03  0.84826061731E+03  0.00000000000E+00 0.  1.
          3    1    3    3  501    0 -0.13857912117E+03  0.19892617115E+03 -0.82701896580E+02  0.25615502746E+03  0.00000000000E+00 0.  1.
         21    1    1    2  502  501  0.59555599074E-02 -0.10320952640E-01  0.61672013967E-01  0.62812642548E-01  0.00000000000E+00 0. -1.
<mgrwt>
<rscale>  1 0.64626978E+03</rscale>
<asrwt>0</asrwt>
<pdfrwt beam="1">  1        1 0.37992246E+00 0.64626978E+03</pdfrwt>
<pdfrwt beam="2">0</pdfrwt>
<totfact> 0.16433918E+00</totfact>
</mgrwt>
</event>
<event>
 6    1  0.3848910E-003  0.6845903E+03  0.7818608E-02  0.9743954E-01
          1   -1    0    0  502    0  0.00000000000E+00  0.00000000000E+00  0.11718430287E+03  0.11718430287E+03  0.00000000000E+00 0.  1.
         13   -1    0    0    0    0 -0.00000000000E+00 -0.00000000000E+00 -0.10000000000E+04  0.10000000000E+04  0.00000000000E+00 0.  1.
    9000005    2    1    2  501    0 -0.18625666476E-01 -0.65103388084E-02 -0.88282787490E+03  0.11171611167E+04  0.68459031808E+03 0.  0.
         13    1    3    3    0    0 -0.31990483197E+03 -0.59023042227E+02 -0.61527535708E+03  0.69597886897E+03  0.00000000000E+00 0.  1.
          3    1    3    3  501    0  0.31988620630E+03  0.59016531888E+02 -0.26755251782E+03  0.42118224774E+03  0.00000000000E+00 0.  1.
         21    1    1    2  502  501  0.18625666476E-01  0.65103388084E-02  0.12177765049E-01  0.23186158040E-01  0.00000000000E+00 0. -1.
<mgrwt>
<rscale>  1 0.68459032E+03</rscale>
<asrwt>0</asrwt>
<pdfrwt beam="1">  1        1 0.42612564E+00 0.68459032E+03</pdfrwt>
<pdfrwt beam="2">0</pdfrwt>
<totfact> 0.10142378E+00</totfact>
</mgrwt>
</event>
<event>
 6    1  0.3848910E-003  0.6545761E+03  0.7818608E-02  0.9798230E-01
          1   -1    0    0  502    0  0.00000000000E+00  0.00000000000E+00  0.10713991534E+03  0.10713991534E+03  0.00000000000E+00 0.  1.
         13   -1    0    0    0    0 -0.00000000000E+00 -0.00000000000E+00 -0.10000000000E+04  0.10000000000E+04  0.00000000000E+00 0.  1.
    9000005    2    1    2  501    0 -0.13515124088E-01  0.52679247768E-01 -0.89283722119E+03  0.11070809196E+04  0.65457608877E+03 0.  0.
         13    1    3    3    0    0 -0.22761926831E+02 -0.96950228265E+01 -0.99837430663E+03  0.99868080733E+03  0.00000000000E+00 0.  1.
          3    1    3    3  501    0  0.22748411707E+02  0.97477020743E+01  0.10553708545E+03  0.10840011225E+03  0.00000000000E+00 0.  1.
         21    1    1    2  502  501  0.13515124088E-01 -0.52679247768E-01 -0.22863473766E-01  0.58995763891E-01  0.00000000000E+00 0. -1.
<mgrwt>
<rscale>  1 0.65457609E+03</rscale>
<asrwt>0</asrwt>
<pdfrwt beam="1">  1        1 0.38960051E+00 0.65457609E+03</pdfrwt>
<pdfrwt beam="2">0</pdfrwt>
<totfact> 0.14868640E+00</totfact>
</mgrwt>
</event>
<event>
 6    1  0.3848910E-003  0.6930364E+03  0.7818608E-02  0.9729216E-01
          1   -1    0    0  502    0  0.00000000000E+00  0.00000000000E+00  0.12009140090E+03  0.12009140090E+03  0.00000000000E+00 0.  1.
         13   -1    0    0    0    0 -0.00000000000E+00 -0.00000000000E+00 -0.10000000000E+04  0.10000000000E+04  0.00000000000E+00 0.  1.
    9000005    2    1    2  501    0 -0.69813551301E-03  0.42713943417E-03 -0.87992513050E+03  0.11200748493E+04  0.69303638625E+03 0.  0.
         13    1    3    3    0    0 -0.28738446701E+03  0.57734097818E+02 -0.73863823212E+03  0.79467571743E+03  0.00000000000E+00 0.  1.
          1    1    3    3  501    0  0.28738376887E+03 -0.57733670679E+02 -0.14128689838E+03  0.32539913183E+03  0.00000000000E+00 0.  1.
         21    1    1    2  502  501  0.69813551296E-03 -0.42713943418E-03  0.16531396200E-01  0.16551643472E-01  0.00000000000E+00 0.  1.
<mgrwt>
<rscale>  1 0.69303639E+03</rscale>
<asrwt>0</asrwt>
<pdfrwt beam="1">  1        1 0.43669692E+00 0.69303639E+03</pdfrwt>
<pdfrwt beam="2">0</pdfrwt>
<totfact> 0.90643539E-01</totfact>
</mgrwt>
</event>
<event>
 6    1  0.3848910E-003  0.6493589E+03  0.7818608E-02  0.9807983E-01
          1   -1    0    0  502    0  0.00000000000E+00  0.00000000000E+00  0.11382249252E+03  0.11382249252E+03  0.00000000000E+00 0.  1.
         13   -1    0    0    0    0 -0.00000000000E+00 -0.00000000000E+00 -0.10000000000E+04  0.10000000000E+04  0.00000000000E+00 0.  1.
    9000005    2    1    2  501    0 -0.29437674023E+01 -0.17221922591E+01 -0.89419916233E+03  0.11051059187E+04  0.64934991946E+03 0.  0.
         13    1    3    3    0    0 -0.18762861396E+03  0.10534088667E+03 -0.32816490446E+02  0.21766515851E+03  0.00000000000E+00 0.  1.
          3    1    3    3  501    0  0.18468484656E+03 -0.10706307893E+03 -0.86138267189E+03  0.88744076019E+03  0.00000000000E+00 0.  1.
         21    1    1    2  502  501  0.29437674023E+01  0.17221922591E+01  0.80216548558E+01  0.87165738293E+01  0.00000000000E+00 0. -1.
<mgrwt>
<rscale>  1 0.64935888E+03</rscale>
<asrwt>0</asrwt>
<pdfrwt beam="1">  1        1 0.41390085E+00 0.64935888E+03</pdfrwt>
<pdfrwt beam="2">0</pdfrwt>
<totfact> 0.11594869E+00</totfact>
</mgrwt>
</event>
<event>
 6    1  0.3848910E-003  0.6500032E+03  0.7818608E-02  0.9806773E-01
          1   -1    0    0  502    0  0.00000000000E+00  0.00000000000E+00  0.10563974530E+03  0.10563974530E+03  0.00000000000E+00 0.  1.
         13   -1    0    0    0    0 -0.00000000000E+00 -0.00000000000E+00 -0.10000000000E+04  0.10000000000E+04  0.00000000000E+00 0.  1.
    9000005    2    1    2  501    0  0.74412053572E-02 -0.22665614728E-01 -0.89436137531E+03  0.11056158631E+04  0.65000320509E+03 0.  0.
         13    1    3    3    0    0  0.12912967168E+03 -0.17572888498E+03 -0.85709937831E+03  0.88440627396E+03  0.00000000000E+00 0.  1.
          1    1    3    3  501    0 -0.12912223047E+03  0.17570621937E+03 -0.37261997000E+02  0.22120958918E+03  0.00000000000E+00 0.  1.
         21    1    1    2  502  501 -0.74412053572E-02  0.22665614728E-01  0.11206135896E-02  0.23882156582E-01  0.00000000000E+00 0.  1.
<mgrwt>
<rscale>  1 0.65000321E+03</rscale>
<asrwt>0</asrwt>
<pdfrwt beam="1">  1        1 0.38414534E+00 0.65000321E+03</pdfrwt>
<pdfrwt beam="2">0</pdfrwt>
<totfact> 0.15732275E+00</totfact>
</mgrwt>
</event>
