<event>
 6    1  0.7694636E-003  0.6578546E+03  0.7818608E-02  0.9792151E-01
          1   -1    0    0  502    0  0.00000000000E+00  0.00000000000E+00  0.10819316569E+03  0.10819316569E+03  0.00000000000E+00 0.  1.
         13   -1    0    0    0    0 -0.00000000000E+00 -0.00000000000E+00 -0.10000000000E+04  0.10000000000E+04  0.00000000000E+00 0.  1.
    9000005    2    1    2  501    0 -0.28700145833E-05 -0.10523276615E-05 -0.89180683802E+03  0.11081931609E+04  0.65785457777E+03 0.  0.
         13    1    3    3    0    0 -0.14709499734E+03  0.29180906372E+03 -0.50901684017E+03  0.60488644512E+03  0.00000000000E+00 0.  1.
          3    1    3    3  501    0  0.14709499447E+03 -0.29180906477E+03 -0.38278999785E+03  0.50330671577E+03  0.00000000000E+00 0.  1.
         21    1    1    2  502  501  0.28700145844E-05  0.10523276761E-05  0.37126538644E-05  0.48091762257E-05  0.00000000000E+00 0.  1.
<mgrwt>
<rscale>  1 0.65785458E+03</rscale>
<asrwt>0</asrwt>
<pdfrwt beam="1">  1        1 0.39343052E+00 0.65785458E+03</pdfrwt>
<pdfrwt beam="2">0</pdfrwt>
<totfact> 0.14289196E+00</totfact>
</mgrwt>
</event>
<event>
 6    1  0.7694636E-003  0.6403969E+03  0.7818608E-02  0.9824967E-01
          1   -1    0    0  502    0  0.00000000000E+00  0.00000000000E+00  0.10259096590E+03  0.10259096590E+03  0.00000000000E+00 0.  1.
         13   -1    0    0    0    0 -0.00000000000E+00 -0.00000000000E+00 -0.10000000000E+04  0.10000000000E+04  0.00000000000E+00 0.  1.
    9000005    2    1    2  501    0 -0.38836930687E-01  0.28782537641E-02 -0.89746634619E+03  0.11025216747E+04  0.64039690753E+03 0.  0.
         13    1    3    3    0    0 -0.26718783528E+03 -0.35980435446E+02 -0.74621988315E+03  0.79342803395E+03  0.00000000000E+00 0.  1.
          3    1    3    3  501    0  0.26714899835E+03  0.35983313700E+02 -0.15124646304E+03  0.30909364077E+03  0.00000000000E+00 0.  1.
         21    1    1    2  502  501  0.38836930687E-01 -0.28782537641E-02  0.57312085443E-01  0.69291173087E-01  0.00000000000E+00 0.  1.
<mgrwt>
<rscale>  1 0.64039691E+03</rscale>
<asrwt>0</asrwt>
<pdfrwt beam="1">  1        1 0.37305884E+00 0.64039691E+03</pdfrwt>
<pdfrwt beam="2">0</pdfrwt>
<totfact> 0.17637696E+00</totfact>
</mgrwt>
</event>
<event>
 6    1  0.8186097E-003  0.6649848E+03  0.7818608E-02  0.9779061E-01
          1   -1    0    0  502    0  0.00000000000E+00  0.00000000000E+00  0.11055124748E+03  0.11055124748E+03  0.00000000000E+00 0.  1.
         13   -1    0    0    0    0 -0.00000000000E+00 -0.00000000000E+00 -0.10000000000E+04  0.10000000000E+04  0.00000000000E+00 0.  1.
    9000005    2    1    2  501    0  0.49189192737E-04  0.53333249554E-04 -0.88944877674E+03  0.11105511710E+04  0.66498479451E+03 0.  0.
         13    1    3    3    0    0 -0.19427896638E+03 -0.23446025187E+03 -0.66775594794E+03  0.73390321739E+03  0.00000000000E+00 0.  1.
          1    1    3    3  501    0  0.19427901557E+03  0.23446030520E+03 -0.22169282880E+03  0.37664795360E+03  0.00000000000E+00 0.  1.
         21    1    1    2  502  501 -0.49189192724E-04 -0.53333249549E-04  0.24224031912E-04  0.76490626291E-04  0.00000000000E+00 0. -1.
<mgrwt>
<rscale>  1 0.66498479E+03</rscale>
<asrwt>0</asrwt>
<pdfrwt beam="1">  1        1 0.40200538E+00 0.66498479E+03</pdfrwt>
<pdfrwt beam="2">0</pdfrwt>
<totfact> 0.13068943E+00</totfact>
</mgrwt>
</event>
<event>
 6    1  0.7694636E-003  0.6540453E+03  0.7818608E-02  0.9799218E-01
          1   -1    0    0  502    0  0.00000000000E+00  0.00000000000E+00  0.11280998608E+03  0.11280998608E+03  0.00000000000E+00 0.  1.
         13   -1    0    0    0    0 -0.00000000000E+00 -0.00000000000E+00 -0.10000000000E+04  0.10000000000E+04  0.00000000000E+00 0.  1.
    9000005    2    1    2  501    0  0.56503270935E+00  0.10420903486E+01 -0.89298981296E+03  0.11068902831E+04  0.65404425506E+03 0.  0.
         13    1    3    3    0    0 -0.31336471536E+03 -0.91317787793E+02 -0.42628421870E+03  0.53689348880E+03  0.00000000000E+00 0.  1.
          1    1    3    3  501    0  0.31392974807E+03  0.92359878142E+02 -0.46670559426E+03  0.56999679432E+03  0.00000000000E+00 0.  1.
         21    1    1    2  502  501 -0.56503270935E+00 -0.10420903486E+01  0.57997990425E+01  0.59197029648E+01  0.00000000000E+00 0. -1.
<mgrwt>
<rscale>  1 0.65404533E+03</rscale>
<asrwt>0</asrwt>
<pdfrwt beam="1">  1        1 0.41021900E+00 0.65404533E+03</pdfrwt>
<pdfrwt beam="2">0</pdfrwt>
<totfact> 0.12033605E+00</totfact>
</mgrwt>
</event>
<event>
 6    1  0.7694636E-003  0.6564985E+03  0.7818608E-02  0.9794661E-01
          1   -1    0    0  502    0  0.00000000000E+00  0.00000000000E+00  0.10774760117E+03  0.10774760117E+03  0.00000000000E+00 0.  1.
         13   -1    0    0    0    0 -0.00000000000E+00 -0.00000000000E+00 -0.10000000000E+04  0.10000000000E+04  0.00000000000E+00 0.  1.
    9000005    2    1    2  501    0  0.48799760748E-05 -0.24504833220E-05 -0.89225241321E+03  0.11077475858E+04  0.65649854908E+03 0.  0.
         13    1    3    3    0    0 -0.24739024212E+03 -0.21572764693E+03 -0.45066516940E+03  0.55752977002E+03  0.00000000000E+00 0.  1.
          3    1    3    3  501    0  0.24739024700E+03  0.21572764448E+03 -0.44158724380E+03  0.55021781577E+03  0.00000000000E+00 0.  1.
         21    1    1    2  502  501 -0.48799760743E-05  0.24504833238E-05  0.14376499609E-04  0.15378646755E-04  0.00000000000E+00 0. -1.
<mgrwt>
<rscale>  1 0.65649855E+03</rscale>
<asrwt>0</asrwt>
<pdfrwt beam="1">  1        1 0.39181029E+00 0.65649855E+03</pdfrwt>
<pdfrwt beam="2">0</pdfrwt>
<totfact> 0.14531578E+00</totfact>
</mgrwt>
</event>
<event>
 6    1  0.7694636E-003  0.6633959E+03  0.7818608E-02  0.9781962E-01
          1   -1    0    0  502    0  0.00000000000E+00  0.00000000000E+00  0.12786093353E+03  0.12786093353E+03  0.00000000000E+00 0.  1.
         13   -1    0    0    0    0 -0.00000000000E+00 -0.00000000000E+00 -0.10000000000E+04  0.10000000000E+04  0.00000000000E+00 0.  1.
    9000005    2    1    2  501    0  0.18627689104E+01 -0.59161037063E+01 -0.88937592404E+03  0.11095421058E+04  0.66336692716E+03 0.  0.
         13    1    3    3    0    0  0.14946176995E+03  0.27164754568E+03 -0.62931997140E+03  0.70155173448E+03  0.00000000000E+00 0.  1.
          3    1    3    3  501    0 -0.14759900104E+03 -0.27756364939E+03 -0.26005595265E+03  0.40799037130E+03  0.00000000000E+00 0.  1.
         21    1    1    2  502  501 -0.18627689104E+01  0.59161037063E+01  0.17236857570E+02  0.18318827745E+02  0.00000000000E+00 0.  1.
<mgrwt>
<rscale>  1 0.66339592E+03</rscale>
<asrwt>0</asrwt>
<pdfrwt beam="1">  1        1 0.46494983E+00 0.66339592E+03</pdfrwt>
<pdfrwt beam="2">0</pdfrwt>
<totfact> 0.67546374E-01</totfact>
</mgrwt>
</event>
<event>
 6    1  0.7694636E-003  0.6557041E+03  0.7818608E-02  0.9796134E-01
          1   -1    0    0  502    0  0.00000000000E+00  0.00000000000E+00  0.10750806504E+03  0.10750806504E+03  0.00000000000E+00 0.  1.
         13   -1    0    0    0    0 -0.00000000000E+00 -0.00000000000E+00 -0.10000000000E+04  0.10000000000E+04  0.00000000000E+00 0.  1.
    9000005    2    1    2  501    0 -0.18126815735E-02 -0.44071197089E-02 -0.89251274244E+03  0.11074867189E+04  0.65570407732E+03 0.  0.
         13    1    3    3    0    0  0.27929401640E+03  0.11736784437E+03 -0.65792341023E+03  0.72432283702E+03  0.00000000000E+00 0.  1.
          3    1    3    3  501    0 -0.27929582908E+03 -0.11737225149E+03 -0.23458933220E+03  0.38316388184E+03  0.00000000000E+00 0.  1.
         21    1    1    2  502  501  0.18126815735E-02  0.44071197089E-02  0.20807476624E-01  0.21346184719E-01  0.00000000000E+00 0. -1.
<mgrwt>
<rscale>  1 0.65570408E+03</rscale>
<asrwt>0</asrwt>
<pdfrwt beam="1">  1        1 0.39093924E+00 0.65570408E+03</pdfrwt>
<pdfrwt beam="2">0</pdfrwt>
<totfact> 0.14663666E+00</totfact>
</mgrwt>
</event>
<event>
 6    1  0.7694636E-003  0.7224082E+03  0.7818608E-02  0.9679660E-01
          1   -1    0    0  502    0  0.00000000000E+00  0.00000000000E+00  0.13046843428E+03  0.13046843428E+03  0.00000000000E+00 0.  1.
         13   -1    0    0    0    0 -0.00000000000E+00 -0.00000000000E+00 -0.10000000000E+04  0.10000000000E+04  0.00000000000E+00 0.  1.
    9000005    2    1    2  501    0  0.31926328461E-05  0.45646224294E-05 -0.86953158011E+03  0.11304684189E+04  0.72240824831E+03 0.  0.
         13    1    3    3    0    0 -0.34976302476E+03  0.67297753794E+02 -0.34080560158E+03  0.49296208701E+03  0.00000000000E+00 0.  1.
          3    1    3    3  501    0  0.34976302796E+03 -0.67297749229E+02 -0.52872597853E+03  0.63750633185E+03  0.00000000000E+00 0.  1.
         21    1    1    2  502  501 -0.31926328541E-05 -0.45646224274E-05  0.14390055635E-04  0.15430566536E-04  0.00000000000E+00 0. -1.
<mgrwt>
<rscale>  1 0.72240825E+03</rscale>
<asrwt>0</asrwt>
<pdfrwt beam="1">  1        1 0.47443167E+00 0.72240825E+03</pdfrwt>
<pdfrwt beam="2">0</pdfrwt>
<totfact> 0.60249545E-01</totfact>
</mgrwt>
</event>
<event>
 6    1  0.7694636E-003  0.6446602E+03  0.7818608E-02  0.9816851E-01
          1   -1    0    0  502    0  0.00000000000E+00  0.00000000000E+00  0.10439267706E+03  0.10439267706E+03  0.00000000000E+00 0.  1.
         13   -1    0    0    0    0 -0.00000000000E+00 -0.00000000000E+00 -0.10000000000E+04  0.10000000000E+04  0.00000000000E+00 0.  1.
    9000005    2    1    2  501    0  0.14501488255E+00 -0.62990730489E+00 -0.89585952402E+03  0.11036988342E+04  0.64465991967E+03 0.  0.
         13    1    3    3    0    0  0.75688962500E+02 -0.18193300703E+03 -0.11058119053E+02  0.19735936787E+03  0.00000000000E+00 0.  1.
          3    1    3    3  501    0 -0.75543947618E+02  0.18130309972E+03 -0.88480140497E+03  0.90633946633E+03  0.00000000000E+00 0.  1.
         21    1    1    2  502  501 -0.14501488255E+00  0.62990730489E+00  0.25220108233E+00  0.69384286034E+00  0.00000000000E+00 0.  1.
<mgrwt>
<rscale>  1 0.64466024E+03</rscale>
<asrwt>0</asrwt>
<pdfrwt beam="1">  1        1 0.37961054E+00 0.64466024E+03</pdfrwt>
<pdfrwt beam="2">0</pdfrwt>
<totfact> 0.16490955E+00</totfact>
</mgrwt>
</event>
<event>
 6    1  0.7694636E-003  0.5977834E+03  0.7818608E-02  0.9910015E-01
          1   -1    0    0  502    0  0.00000000000E+00  0.00000000000E+00  0.90125658190E+02  0.90125658190E+02  0.00000000000E+00 0.  1.
         13   -1    0    0    0    0 -0.00000000000E+00 -0.00000000000E+00 -0.10000000000E+04  0.10000000000E+04  0.00000000000E+00 0.  1.
    9000005    2    1    2  501    0  0.30646091437E-01 -0.39175588503E-01 -0.91066288534E+03  0.10893355476E+04  0.59778344068E+03 0.  0.
         13    1    3    3    0    0 -0.29839500672E+02  0.16886064159E+03 -0.90139939487E+03  0.91756481033E+03  0.00000000000E+00 0.  1.
          1    1    3    3  501    0  0.29870146763E+02 -0.16889981718E+03 -0.92634904724E+01  0.17177073723E+03  0.00000000000E+00 0.  1.
         21    1    1    2  502  501 -0.30646091437E-01  0.39175588503E-01  0.78854353461E+00  0.79011063505E+00  0.00000000000E+00 0. -1.
<mgrwt>
<rscale>  1 0.59778344E+03</rscale>
<asrwt>0</asrwt>
<pdfrwt beam="1">  1        1 0.32773036E+00 0.59778344E+03</pdfrwt>
<pdfrwt beam="2">0</pdfrwt>
<totfact> 0.28013929E+00</totfact>
</mgrwt>
</event>
<event>
 6    1  0.7694636E-003  0.6463023E+03  0.7818608E-02  0.9813743E-01
          1   -1    0    0  502    0  0.00000000000E+00  0.00000000000E+00  0.10442666187E+03  0.10442666187E+03  0.00000000000E+00 0.  1.
         13   -1    0    0    0    0 -0.00000000000E+00 -0.00000000000E+00 -0.10000000000E+04  0.10000000000E+04  0.00000000000E+00 0.  1.
    9000005    2    1    2  501    0  0.44756995976E-06  0.38046167106E-05 -0.89557333742E+03  0.11044266580E+04  0.64630228234E+03 0.  0.
         13    1    3    3    0    0 -0.23603686822E+03 -0.17263712905E+03 -0.68277335262E+03  0.74276270270E+03  0.00000000000E+00 0.  1.
          3    1    3    3  501    0  0.23603686867E+03  0.17263713285E+03 -0.21279998480E+03  0.36166395527E+03  0.00000000000E+00 0.  1.
         21    1    1    2  502  501 -0.44756997645E-06 -0.38046166947E-05 -0.70959842301E-06  0.38960180953E-05  0.00000000000E+00 0. -1.
<mgrwt>
<rscale>  1 0.64630228E+03</rscale>
<asrwt>0</asrwt>
<pdfrwt beam="1">  1        1 0.37973412E+00 0.64630228E+03</pdfrwt>
<pdfrwt beam="2">0</pdfrwt>
<totfact> 0.16465294E+00</totfact>
</mgrwt>
</event>
<event>
 6    1  0.7694636E-003  0.6464455E+03  0.7818608E-02  0.9813472E-01
          1   -1    0    0  502    0  0.00000000000E+00  0.00000000000E+00  0.10996052403E+03  0.10996052403E+03  0.00000000000E+00 0.  1.
         13   -1    0    0    0    0 -0.00000000000E+00 -0.00000000000E+00 -0.10000000000E+04  0.10000000000E+04  0.00000000000E+00 0.  1.
    9000005    2    1    2  501    0  0.22324233155E+00 -0.19909050598E+00 -0.89552255244E+03  0.11044692945E+04  0.64644542779E+03 0.  0.
         13    1    3    3    0    0 -0.28415324410E+03 -0.10532598786E+03 -0.25593566870E+03  0.39666068165E+03  0.00000000000E+00 0.  1.
          1    1    3    3  501    0  0.28437648643E+03  0.10512689736E+03 -0.63958688374E+03  0.70780861286E+03  0.00000000000E+00 0.  1.
         21    1    1    2  502  501 -0.22324233155E+00  0.19909050598E+00  0.54830764648E+01  0.54912295242E+01  0.00000000000E+00 0.  1.
<mgrwt>
<rscale>  1 0.64644550E+03</rscale>
<asrwt>0</asrwt>
<pdfrwt beam="1">  1        1 0.39985729E+00 0.64644550E+03</pdfrwt>
<pdfrwt beam="2">0</pdfrwt>
<totfact> 0.13407423E+00</totfact>
</mgrwt>
</event>
<event>
 6    1  0.7694636E-003  0.6622012E+03  0.7818608E-02  0.9784150E-01
          1   -1    0    0  502    0  0.00000000000E+00  0.00000000000E+00  0.10963303597E+03  0.10963303597E+03  0.00000000000E+00 0.  1.
         13   -1    0    0    0    0 -0.00000000000E+00 -0.00000000000E+00 -0.10000000000E+04  0.10000000000E+04  0.00000000000E+00 0.  1.
    9000005    2    1    2  501    0 -0.72203930145E-04  0.10703248017E-03 -0.89037237950E+03  0.11096276190E+04  0.66220123723E+03 0.  0.
         13    1    3    3    0    0 -0.83822880252E+02  0.32001332827E+03 -0.42191596667E+03  0.53614166827E+03  0.00000000000E+00 0.  1.
          1    1    3    3  501    0  0.83822808048E+02 -0.32001322124E+03 -0.46845641283E+03  0.57348595069E+03  0.00000000000E+00 0.  1.
         21    1    1    2  502  501  0.72203930156E-04 -0.10703248019E-03  0.54154667672E-02  0.54170055996E-02  0.00000000000E+00 0. -1.
<mgrwt>
<rscale>  1 0.66220124E+03</rscale>
<asrwt>0</asrwt>
<pdfrwt beam="1">  1        1 0.39866643E+00 0.66220124E+03</pdfrwt>
<pdfrwt beam="2">0</pdfrwt>
<totfact> 0.13531911E+00</totfact>
</mgrwt>
</event>
<event>
 6    1  0.7694636E-003  0.6530914E+03  0.7818608E-02  0.9800996E-01
          1   -1    0    0  502    0  0.00000000000E+00  0.00000000000E+00  0.10663224242E+03  0.10663224242E+03  0.00000000000E+00 0.  1.
         13   -1    0    0    0    0 -0.00000000000E+00 -0.00000000000E+00 -0.10000000000E+04  0.10000000000E+04  0.00000000000E+00 0.  1.
    9000005    2    1    2  501    0  0.27560191381E-04  0.34063222870E-03 -0.89336760024E+03  0.11066318662E+04  0.65309143167E+03 0.  0.
         13    1    3    3    0    0  0.21884668185E+02 -0.29783386922E+03 -0.67050552640E+03  0.73400382376E+03  0.00000000000E+00 0.  1.
          1    1    3    3  501    0 -0.21884640625E+02  0.29783420986E+03 -0.22286207384E+03  0.37262804244E+03  0.00000000000E+00 0.  1.
         21    1    1    2  502  501 -0.27560191381E-04 -0.34063222870E-03 -0.15733175350E-03  0.37622222162E-03  0.00000000000E+00 0. -1.
<mgrwt>
<rscale>  1 0.65309143E+03</rscale>
<asrwt>0</asrwt>
<pdfrwt beam="1">  1        1 0.38775443E+00 0.65309143E+03</pdfrwt>
<pdfrwt beam="2">0</pdfrwt>
<totfact> 0.15155559E+00</totfact>
</mgrwt>
</event>
<event>
 6    1  0.7694636E-003  0.6328116E+03  0.7818608E-02  0.9839577E-01
          1   -1    0    0  502    0  0.00000000000E+00  0.00000000000E+00  0.10011263751E+03  0.10011263751E+03  0.00000000000E+00 0.  1.
         13   -1    0    0    0    0 -0.00000000000E+00 -0.00000000000E+00 -0.10000000000E+04  0.10000000000E+04  0.00000000000E+00 0.  1.
    9000005    2    1    2  501    0 -0.28879772884E-05  0.26859998670E-05 -0.89988736783E+03  0.11001126309E+04  0.63281160374E+03 0.  0.
         13    1    3    3    0    0  0.97767113257E+02  0.27590302613E+02  0.70991815095E+02  0.12393333306E+03  0.00000000000E+00 0.  1.
          3    1    3    3  501    0 -0.97767116145E+02 -0.27590299927E+02 -0.97087918292E+03  0.97617929781E+03  0.00000000000E+00 0.  1.
         21    1    1    2  502  501  0.28879772892E-05 -0.26859998665E-05  0.53374035094E-05  0.66364813212E-05  0.00000000000E+00 0.  1.
<mgrwt>
<rscale>  1 0.63281160E+03</rscale>
<asrwt>0</asrwt>
<pdfrwt beam="1">  1        1 0.36404672E+00 0.63281160E+03</pdfrwt>
<pdfrwt beam="2">0</pdfrwt>
<totfact> 0.19346228E+00</totfact>
</mgrwt>
</event>
<event>
 6    1  0.7694636E-003  0.6622085E+03  0.7818608E-02  0.9784137E-01
          1   -1    0    0  502    0  0.00000000000E+00  0.00000000000E+00  0.10964663905E+03  0.10964663905E+03  0.00000000000E+00 0.  1.
         13   -1    0    0    0    0 -0.00000000000E+00 -0.00000000000E+00 -0.10000000000E+04  0.10000000000E+04  0.00000000000E+00 0.  1.
    9000005    2    1    2  501    0 -0.83529150061E-04 -0.22407059983E-03 -0.89036995897E+03  0.11096300393E+04  0.66220854744E+03 0.  0.
         13    1    3    3    0    0 -0.24098318954E+03 -0.45863530487E+02 -0.72550714312E+02  0.25581236721E+03  0.00000000000E+00 0.  1.
          1    1    3    3  501    0  0.24098310601E+03  0.45863306416E+02 -0.81781924466E+03  0.85381767210E+03  0.00000000000E+00 0.  1.
         21    1    1    2  502  501  0.83529150068E-04  0.22407059983E-03  0.16598017495E-01  0.16599740044E-01  0.00000000000E+00 0.  1.
<mgrwt>
<rscale>  1 0.66220855E+03</rscale>
<asrwt>0</asrwt>
<pdfrwt beam="1">  1        1 0.39871589E+00 0.66220855E+03</pdfrwt>
<pdfrwt beam="2">0</pdfrwt>
<totfact> 0.13525026E+00</totfact>
</mgrwt>
</event>
<event>
 6    1  0.7694636E-003  0.6440280E+03  0.7818608E-02  0.9818050E-01
          1   -1    0    0  502    0  0.00000000000E+00  0.00000000000E+00  0.10370106983E+03  0.10370106983E+03  0.00000000000E+00 0.  1.
         13   -1    0    0    0    0 -0.00000000000E+00 -0.00000000000E+00 -0.10000000000E+04  0.10000000000E+04  0.00000000000E+00 0.  1.
    9000005    2    1    2  501    0  0.12374597443E-02 -0.47131080432E-02 -0.89630617130E+03  0.11036923418E+04  0.64402797501E+03 0.  0.
         13    1    3    3    0    0 -0.20522903729E+03  0.24694483149E+03 -0.48980759413E+03  0.58567242278E+03  0.00000000000E+00 0.  1.
          1    1    3    3  501    0  0.20523027475E+03 -0.24694954459E+03 -0.40649857717E+03  0.51801991901E+03  0.00000000000E+00 0.  1.
         21    1    1    2  502  501 -0.12374597443E-02  0.47131080432E-02  0.72411315475E-02  0.87280398792E-02  0.00000000000E+00 0.  1.
<mgrwt>
<rscale>  1 0.64402798E+03</rscale>
<asrwt>0</asrwt>
<pdfrwt beam="1">  1        1 0.37709559E+00 0.64402798E+03</pdfrwt>
<pdfrwt beam="2">0</pdfrwt>
<totfact> 0.16919350E+00</totfact>
</mgrwt>
</event>
<event>
 6    1  0.7694636E-003  0.6495712E+03  0.7818608E-02  0.9807584E-01
          1   -1    0    0  502    0  0.00000000000E+00  0.00000000000E+00  0.10556227917E+03  0.10556227917E+03  0.00000000000E+00 0.  1.
         13   -1    0    0    0    0 -0.00000000000E+00 -0.00000000000E+00 -0.10000000000E+04  0.10000000000E+04  0.00000000000E+00 0.  1.
    9000005    2    1    2  501    0 -0.16214005809E+00  0.59658606318E-01 -0.89438615521E+03  0.11053819806E+04  0.64957116519E+03 0.  0.
         13    1    3    3    0    0  0.16595168067E+03 -0.27840152069E+03 -0.48091255902E+03  0.57993470017E+03  0.00000000000E+00 0.  1.
          3    1    3    3  501    0 -0.16611382073E+03  0.27846117929E+03 -0.41347359618E+03  0.52544728047E+03  0.00000000000E+00 0.  1.
         21    1    1    2  502  501  0.16214005809E+00 -0.59658606318E-01 -0.51565621837E-01  0.18029853327E+00  0.00000000000E+00 0.  1.
<mgrwt>
<rscale>  1 0.64957119E+03</rscale>
<asrwt>0</asrwt>
<pdfrwt beam="1">  1        1 0.38386364E+00 0.64957119E+03</pdfrwt>
<pdfrwt beam="2">0</pdfrwt>
<totfact> 0.15778711E+00</totfact>
</mgrwt>
</event>
<event>
 6    1  0.7694636E-003  0.6384261E+03  0.7818608E-02  0.9828742E-01
          1   -1    0    0  502    0  0.00000000000E+00  0.00000000000E+00  0.10191075735E+03  0.10191075735E+03  0.00000000000E+00 0.  1.
         13   -1    0    0    0    0 -0.00000000000E+00 -0.00000000000E+00 -0.10000000000E+04  0.10000000000E+04  0.00000000000E+00 0.  1.
    9000005    2    1    2  501    0  0.42294509228E-03  0.35647379894E-03 -0.89810301266E+03  0.11018969762E+04  0.63842613111E+03 0.  0.
         13    1    3    3    0    0 -0.44536659376E+02 -0.23536315556E+03 -0.81321440027E+03  0.84775998363E+03  0.00000000000E+00 0.  1.
          3    1    3    3  501    0  0.44537082321E+02  0.23536351204E+03 -0.84888612386E+02  0.25413699261E+03  0.00000000000E+00 0.  1.
         21    1    1    2  502  501 -0.42294509228E-03 -0.35647379895E-03  0.13770011348E-01  0.13781116379E-01  0.00000000000E+00 0. -1.
<mgrwt>
<rscale>  1 0.63842613E+03</rscale>
<asrwt>0</asrwt>
<pdfrwt beam="1">  1        1 0.37058535E+00 0.63842613E+03</pdfrwt>
<pdfrwt beam="2">0</pdfrwt>
<totfact> 0.18091311E+00</totfact>
</mgrwt>
</event>
<event>
 6    1  0.7694636E-003  0.6532550E+03  0.7818608E-02  0.9800691E-01
          1   -1    0    0  502    0  0.00000000000E+00  0.00000000000E+00  0.10730573073E+03  0.10730573073E+03  0.00000000000E+00 0.  1.
         13   -1    0    0    0    0 -0.00000000000E+00 -0.00000000000E+00 -0.10000000000E+04  0.10000000000E+04  0.00000000000E+00 0.  1.
    9000005    2    1    2  501    0 -0.36490072940E+00  0.25761607852E+00 -0.89322421176E+03  0.11066126524E+04  0.65325482805E+03 0.  0.
         13    1    3    3    0    0 -0.30550075937E+03  0.81682348939E+02 -0.30704198044E+03  0.44076921156E+03  0.00000000000E+00 0.  1.
          1    1    3    3  501    0  0.30513585864E+03 -0.81424732860E+02 -0.58618223131E+03  0.66584344080E+03  0.00000000000E+00 0.  1.
         21    1    1    2  502  501  0.36490072940E+00 -0.25761607852E+00  0.52994248698E+00  0.69307836912E+00  0.00000000000E+00 0.  1.
<mgrwt>
<rscale>  1 0.65325498E+03</rscale>
<asrwt>0</asrwt>
<pdfrwt beam="1">  1        1 0.39020348E+00 0.65325498E+03</pdfrwt>
<pdfrwt beam="2">0</pdfrwt>
<totfact> 0.14781004E+00</totfact>
</mgrwt>
</event>
<event>
 6    1  0.7694636E-003  0.6522512E+03  0.7818608E-02  0.9802564E-01
          1   -1    0    0  502    0  0.00000000000E+00  0.00000000000E+00  0.10770086368E+03  0.10770086368E+03  0.00000000000E+00 0.  1.
         13   -1    0    0    0    0 -0.00000000000E+00 -0.00000000000E+00 -0.10000000000E+04  0.10000000000E+04  0.00000000000E+00 0.  1.
    9000005    2    1    2  501    0 -0.90816220467E-01  0.45649220939E-01 -0.89363996121E+03  0.11063561917E+04  0.65225120332E+03 0.  0.
         13    1    3    3    0    0 -0.14261735132E+03  0.17965579387E+03 -0.84016301635E+03  0.87091320303E+03  0.00000000000E+00 0.  1.
          3    1    3    3  501    0  0.14252653510E+03 -0.17961014465E+03 -0.53476944858E+02  0.23544298864E+03  0.00000000000E+00 0.  1.
         21    1    1    2  502  501  0.90816220467E-01 -0.45649220939E-01  0.13408248867E+01  0.13446720099E+01  0.00000000000E+00 0.  1.
<mgrwt>
<rscale>  1 0.65225121E+03</rscale>
<asrwt>0</asrwt>
<pdfrwt beam="1">  1        1 0.39164033E+00 0.65225121E+03</pdfrwt>
<pdfrwt beam="2">0</pdfrwt>
<totfact> 0.14568355E+00</totfact>
</mgrwt>
</event>
<event>
 6    1  0.7694636E-003  0.5363996E+03  0.7818608E-02  0.1004692E+00
          1   -1    0    0  502    0  0.00000000000E+00  0.00000000000E+00  0.71945122580E+02  0.71945122580E+02  0.00000000000E+00 0.  1.
         13   -1    0    0    0    0 -0.00000000000E+00 -0.00000000000E+00 -0.10000000000E+04  0.10000000000E+04  0.00000000000E+00 0.  1.
    9000005    2    1    2  501    0 -0.15162506202E-01  0.42780019395E-01 -0.92801607571E+03  0.10718854099E+04  0.53639956480E+03 0.  0.
         13    1    3    3    0    0  0.13289115599E+03  0.18838058132E+03 -0.19010877888E+03  0.29881206563E+03  0.00000000000E+00 0.  1.
          1    1    3    3  501    0 -0.13290631850E+03 -0.18833780131E+03 -0.73790729683E+03  0.77307334426E+03  0.00000000000E+00 0.  1.
         21    1    1    2  502  501  0.15162506202E-01 -0.42780019395E-01 -0.38801714458E-01  0.59712684571E-01  0.00000000000E+00 0. -1.
<mgrwt>
<rscale>  1 0.53639957E+03</rscale>
<asrwt>0</asrwt>
<pdfrwt beam="1">  1        1 0.26161918E+00 0.53639957E+03</pdfrwt>
<pdfrwt beam="2">0</pdfrwt>
<totfact> 0.54650076E+00</totfact>
</mgrwt>
</event>
<event>
 6    1  0.7694636E-003  0.6685835E+03  0.7818608E-02  0.9772520E-01
          1   -1    0    0  502    0  0.00000000000E+00  0.00000000000E+00  0.11175096483E+03  0.11175096483E+03  0.00000000000E+00 0.  1.
         13   -1    0    0    0    0 -0.00000000000E+00 -0.00000000000E+00 -0.10000000000E+04  0.10000000000E+04  0.00000000000E+00 0.  1.
    9000005    2    1    2  501    0  0.25298431012E-05 -0.25449843406E-05 -0.88824903974E+03  0.11117509590E+04  0.66858345647E+03 0.  0.
         13    1    3    3    0    0 -0.81041480199E+02  0.32316840559E+03 -0.48952411673E+03  0.59214812399E+03  0.00000000000E+00 0.  1.
          1    1    3    3  501    0  0.81041482729E+02 -0.32316840813E+03 -0.39872492301E+03  0.51960283503E+03  0.00000000000E+00 0.  1.
         21    1    1    2  502  501 -0.25298430919E-05  0.25449843055E-05  0.45755731544E-05  0.58148878645E-05  0.00000000000E+00 0.  1.
<mgrwt>
<rscale>  1 0.66858346E+03</rscale>
<asrwt>0</asrwt>
<pdfrwt beam="1">  1        1 0.40636800E+00 0.66858346E+03</pdfrwt>
<pdfrwt beam="2">0</pdfrwt>
<totfact> 0.12486627E+00</totfact>
</mgrwt>
</event>
<event>
 6    1  0.7694636E-003  0.6499801E+03  0.7818608E-02  0.9806816E-01
          1   -1    0    0  502    0  0.00000000000E+00  0.00000000000E+00  0.10562074278E+03  0.10562074278E+03  0.00000000000E+00 0.  1.
         13   -1    0    0    0    0 -0.00000000000E+00 -0.00000000000E+00 -0.10000000000E+04  0.10000000000E+04  0.00000000000E+00 0.  1.
    9000005    2    1    2  501    0 -0.28036581966E-04  0.25571364645E-03 -0.89438144769E+03  0.11056185373E+04  0.64998013505E+03 0.  0.
         13    1    3    3    0    0  0.14030361552E+03 -0.16302338219E+03 -0.86161029718E+03  0.88805069218E+03  0.00000000000E+00 0.  1.
          3    1    3    3  501    0 -0.14030364355E+03  0.16302363790E+03 -0.32771150507E+02  0.21756784508E+03  0.00000000000E+00 0.  1.
         21    1    1    2  502  501  0.28036581959E-04 -0.25571364646E-03  0.21904692010E-02  0.22055228041E-02  0.00000000000E+00 0. -1.
<mgrwt>
<rscale>  1 0.64998014E+03</rscale>
<asrwt>0</asrwt>
<pdfrwt beam="1">  1        1 0.38407624E+00 0.64998014E+03</pdfrwt>
<pdfrwt beam="2">0</pdfrwt>
<totfact> 0.15743413E+00</totfact>
</mgrwt>
</event>
<event>
 6    1  0.7694636E-003  0.6315166E+03  0.7818608E-02  0.9842094E-01
          1   -1    0    0  502    0  0.00000000000E+00  0.00000000000E+00  0.99781265767E+02  0.99781265767E+02  0.00000000000E+00 0.  1.
         13   -1    0    0    0    0 -0.00000000000E+00 -0.00000000000E+00 -0.10000000000E+04  0.10000000000E+04  0.00000000000E+00 0.  1.
    9000005    2    1    2  501    0  0.14325632099E-02 -0.28794630893E-02 -0.90029666629E+03  0.10997032674E+04  0.63151657852E+03 0.  0.
         13    1    3    3    0    0 -0.17128931666E+03  0.16475463562E+03 -0.88132687940E+02  0.25347877750E+03  0.00000000000E+00 0.  1.
          1    1    3    3  501    0  0.17129074922E+03 -0.16475751508E+03 -0.81216397835E+03  0.84622448988E+03  0.00000000000E+00 0.  1.
         21    1    1    2  502  501 -0.14325632099E-02  0.28794630893E-02  0.77932054736E-01  0.77998389088E-01  0.00000000000E+00 0. -1.
<mgrwt>
<rscale>  1 0.63151658E+03</rscale>
<asrwt>0</asrwt>
<pdfrwt beam="1">  1        1 0.36284173E+00 0.63151658E+03</pdfrwt>
<pdfrwt beam="2">0</pdfrwt>
<totfact> 0.19587338E+00</totfact>
</mgrwt>
</event>
<event>
 6    1  0.7694636E-003  0.6533280E+03  0.7818608E-02  0.9800554E-01
          1   -1    0    0  502    0  0.00000000000E+00  0.00000000000E+00  0.10671006671E+03  0.10671006671E+03  0.00000000000E+00 0.  1.
         13   -1    0    0    0    0 -0.00000000000E+00 -0.00000000000E+00 -0.10000000000E+04  0.10000000000E+04  0.00000000000E+00 0.  1.
    9000005    2    1    2  501    0 -0.29839291022E-03 -0.49722570813E-03 -0.89329049442E+03  0.11067092598E+04  0.65332800204E+03 0.  0.
         13    1    3    3    0    0  0.24057265782E+03  0.10945763258E+03 -0.77183640827E+03  0.81583553376E+03  0.00000000000E+00 0.  1.
          1    1    3    3  501    0 -0.24057295621E+03 -0.10945812981E+03 -0.12145408616E+03  0.29087372601E+03  0.00000000000E+00 0.  1.
         21    1    1    2  502  501  0.29839291022E-03  0.49722570814E-03  0.56113407880E-03  0.80693443854E-03  0.00000000000E+00 0. -1.
<mgrwt>
<rscale>  1 0.65332800E+03</rscale>
<asrwt>0</asrwt>
<pdfrwt beam="1">  1        1 0.38803742E+00 0.65332800E+03</pdfrwt>
<pdfrwt beam="2">0</pdfrwt>
<totfact> 0.15111212E+00</totfact>
</mgrwt>
</event>
<event>
 6    1  0.7694636E-003  0.6520038E+03  0.7818608E-02  0.9803027E-01
          1   -1    0    0  502    0  0.00000000000E+00  0.00000000000E+00  0.10627722698E+03  0.10627722698E+03  0.00000000000E+00 0.  1.
         13   -1    0    0    0    0 -0.00000000000E+00 -0.00000000000E+00 -0.10000000000E+04  0.10000000000E+04  0.00000000000E+00 0.  1.
    9000005    2    1    2  501    0  0.37932412198E-05  0.10628533637E-04 -0.89372276627E+03  0.11062772138E+04  0.65200375068E+03 0.  0.
         13    1    3    3    0    0  0.65798184858E+02  0.60981396854E+02 -0.97864375770E+03  0.98274703580E+03  0.00000000000E+00 0.  1.
          3    1    3    3  501    0 -0.65798181065E+02 -0.60981386226E+02  0.84920991434E+02  0.12353017803E+03  0.00000000000E+00 0.  1.
         21    1    1    2  502  501 -0.37932412206E-05 -0.10628533633E-04 -0.67503617508E-05  0.13149973000E-04  0.00000000000E+00 0. -1.
<mgrwt>
<rscale>  1 0.65200375E+03</rscale>
<asrwt>0</asrwt>
<pdfrwt beam="1">  1        1 0.38646346E+00 0.65200375E+03</pdfrwt>
<pdfrwt beam="2">0</pdfrwt>
<totfact> 0.15359456E+00</totfact>
</mgrwt>
</event>
<event>
 6    1  0.7694636E-003  0.6480145E+03  0.7818608E-02  0.9810512E-01
          1   -1    0    0  502    0  0.00000000000E+00  0.00000000000E+00  0.10612882107E+03  0.10612882107E+03  0.00000000000E+00 0.  1.
         13   -1    0    0    0    0 -0.00000000000E+00 -0.00000000000E+00 -0.10000000000E+04  0.10000000000E+04  0.00000000000E+00 0.  1.
    9000005    2    1    2  501    0 -0.65026735202E-01  0.47059264869E-02 -0.89501826453E+03  0.11049798842E+04  0.64801454175E+03 0.  0.
         13    1    3    3    0    0  0.19210623157E+03  0.85327430910E+02 -0.86788155721E+03  0.89297478801E+03  0.00000000000E+00 0.  1.
          3    1    3    3  501    0 -0.19217125830E+03 -0.85322724984E+02 -0.27136707324E+02  0.21200509617E+03  0.00000000000E+00 0.  1.
         21    1    1    2  502  501  0.65026735202E-01 -0.47059264869E-02  0.11470855985E+01  0.11489368966E+01  0.00000000000E+00 0.  1.
<mgrwt>
<rscale>  1 0.64801455E+03</rscale>
<asrwt>0</asrwt>
<pdfrwt beam="1">  1        1 0.38592380E+00 0.64801455E+03</pdfrwt>
<pdfrwt beam="2">0</pdfrwt>
<totfact> 0.15455570E+00</totfact>
</mgrwt>
</event>
<event>
 6    1  0.7694636E-003  0.6695772E+03  0.7818608E-02  0.9770722E-01
          1   -1    0    0  502    0  0.00000000000E+00  0.00000000000E+00  0.11208392578E+03  0.11208392578E+03  0.00000000000E+00 0.  1.
         13   -1    0    0    0    0 -0.00000000000E+00 -0.00000000000E+00 -0.10000000000E+04  0.10000000000E+04  0.00000000000E+00 0.  1.
    9000005    2    1    2  501    0  0.37569315054E-05 -0.19831184417E-04 -0.88791659266E+03  0.11120834069E+04  0.66957720129E+03 0.  0.
         13    1    3    3    0    0  0.29917797499E+03  0.12354462659E+03 -0.30193005537E+03  0.44264262539E+03  0.00000000000E+00 0.  1.
          3    1    3    3  501    0 -0.29917797123E+03 -0.12354464642E+03 -0.58598653729E+03  0.66944078156E+03  0.00000000000E+00 0.  1.
         21    1    1    2  502  501 -0.37569315149E-05  0.19831184416E-04  0.51843618782E-03  0.51882894218E-03  0.00000000000E+00 0. -1.
<mgrwt>
<rscale>  1 0.66957720E+03</rscale>
<asrwt>0</asrwt>
<pdfrwt beam="1">  1        1 0.40757877E+00 0.66957720E+03</pdfrwt>
<pdfrwt beam="2">0</pdfrwt>
<totfact> 0.12329416E+00</totfact>
</mgrwt>
</event>
<event>
 6    1  0.7694636E-003  0.6423152E+03  0.7818608E-02  0.9821307E-01
          1   -1    0    0  502    0  0.00000000000E+00  0.00000000000E+00  0.10314233072E+03  0.10314233072E+03  0.00000000000E+00 0.  1.
         13   -1    0    0    0    0 -0.00000000000E+00 -0.00000000000E+00 -0.10000000000E+04  0.10000000000E+04  0.00000000000E+00 0.  1.
    9000005    2    1    2  501    0  0.15111964331E-04  0.77031003199E-04 -0.89685777831E+03  0.11031421964E+04  0.64231521148E+03 0.  0.
         13    1    3    3    0    0 -0.32075390979E+03 -0.57179619686E+01 -0.47427269720E+03  0.57258218366E+03  0.00000000000E+00 0.  1.
          1    1    3    3  501    0  0.32075392490E+03  0.57180389996E+01 -0.42258508111E+03  0.53056001271E+03  0.00000000000E+00 0.  1.
         21    1    1    2  502  501 -0.15111964313E-04 -0.77031003199E-04  0.10903433355E-03  0.13435264349E-03  0.00000000000E+00 0.  1.
<mgrwt>
<rscale>  1 0.64231521E+03</rscale>
<asrwt>0</asrwt>
<pdfrwt beam="1">  1        1 0.37506381E+00 0.64231521E+03</pdfrwt>
<pdfrwt beam="2">0</pdfrwt>
<totfact> 0.17276981E+00</totfact>
</mgrwt>
</event>
<event>
 6    1  0.7694636E-003  0.6594457E+03  0.7818608E-02  0.9789215E-01
          1   -1    0    0  502    0  0.00000000000E+00  0.00000000000E+00  0.10882523732E+03  0.10882523732E+03  0.00000000000E+00 0.  1.
         13   -1    0    0    0    0 -0.00000000000E+00 -0.00000000000E+00 -0.10000000000E+04  0.10000000000E+04  0.00000000000E+00 0.  1.
    9000005    2    1    2  501    0 -0.15586007933E-01  0.12394707099E-01 -0.89128181141E+03  0.11087163521E+04  0.65944573829E+03 0.  0.
         13    1    3    3    0    0 -0.12324435010E+03  0.24452828946E+03 -0.13683018559E+03  0.30611395569E+03  0.00000000000E+00 0.  1.
          3    1    3    3  501    0  0.12322876409E+03 -0.24451589475E+03 -0.75445162582E+03  0.80260239645E+03  0.00000000000E+00 0.  1.
         21    1    1    2  502  501  0.15586007933E-01 -0.12394707099E-01  0.10704872814E+00  0.10888518083E+00  0.00000000000E+00 0.  1.
<mgrwt>
<rscale>  1 0.65944574E+03</rscale>
<asrwt>0</asrwt>
<pdfrwt beam="1">  1        1 0.39572897E+00 0.65944574E+03</pdfrwt>
<pdfrwt beam="2">0</pdfrwt>
<totfact> 0.13952780E+00</totfact>
</mgrwt>
</event>
<event>
 6    1  0.7694636E-003  0.6480310E+03  0.7818608E-02  0.9810481E-01
          1   -1    0    0  502    0  0.00000000000E+00  0.00000000000E+00  0.10501301205E+03  0.10501301205E+03  0.00000000000E+00 0.  1.
         13   -1    0    0    0    0 -0.00000000000E+00 -0.00000000000E+00 -0.10000000000E+04  0.10000000000E+04  0.00000000000E+00 0.  1.
    9000005    2    1    2  501    0 -0.14264537821E-02 -0.13230005950E-02 -0.89501392371E+03  0.11049860061E+04  0.64803097927E+03 0.  0.
         13    1    3    3    0    0 -0.23144154046E+03  0.13045806554E+03 -0.76377218065E+03  0.80866089151E+03  0.00000000000E+00 0.  1.
          3    1    3    3  501    0  0.23144011401E+03 -0.13045938854E+03 -0.13124174305E+03  0.29632511461E+03  0.00000000000E+00 0.  1.
         21    1    1    2  502  501  0.14264537821E-02  0.13230005950E-02  0.26935758053E-01  0.27005928291E-01  0.00000000000E+00 0. -1.
<mgrwt>
<rscale>  1 0.64803098E+03</rscale>
<asrwt>0</asrwt>
<pdfrwt beam="1">  1        1 0.38186630E+00 0.64803098E+03</pdfrwt>
<pdfrwt beam="2">0</pdfrwt>
<totfact> 0.16107198E+00</totfact>
</mgrwt>
</event>
<event>
 6    1  0.7694636E-003  0.6535904E+03  0.7818608E-02  0.9800065E-01
          1   -1    0    0  502    0  0.00000000000E+00  0.00000000000E+00  0.10680515523E+03  0.10680515523E+03  0.00000000000E+00 0.  1.
         13   -1    0    0    0    0 -0.00000000000E+00 -0.00000000000E+00 -0.10000000000E+04  0.10000000000E+04  0.00000000000E+00 0.  1.
    9000005    2    1    2  501    0 -0.15797892307E-01 -0.77656536765E-02 -0.89319549383E+03  0.11067875399E+04  0.65359044359E+03 0.  0.
         13    1    3    3    0    0 -0.81249811267E+02 -0.20758021157E+03 -0.85127565469E+03  0.87997802037E+03  0.00000000000E+00 0.  1.
          3    1    3    3  501    0  0.81234013375E+02  0.20757244592E+03 -0.41919839143E+02  0.22680951953E+03  0.00000000000E+00 0.  1.
         21    1    1    2  502  501  0.15797892307E-01  0.77656536764E-02  0.64906180938E-03  0.17615335921E-01  0.00000000000E+00 0.  1.
<mgrwt>
<rscale>  1 0.65359044E+03</rscale>
<asrwt>0</asrwt>
<pdfrwt beam="1">  1        1 0.38838320E+00 0.65359044E+03</pdfrwt>
<pdfrwt beam="2">0</pdfrwt>
<totfact> 0.15057269E+00</totfact>
</mgrwt>
</event>
<event>
 6    1  0.7694636E-003  0.6464333E+03  0.7818608E-02  0.9813495E-01
          1   -1    0    0  502    0  0.00000000000E+00  0.00000000000E+00  0.10446900431E+03  0.10446900431E+03  0.00000000000E+00 0.  1.
         13   -1    0    0    0    0 -0.00000000000E+00 -0.00000000000E+00 -0.10000000000E+04  0.10000000000E+04  0.00000000000E+00 0.  1.
    9000005    2    1    2  501    0 -0.43881190948E-05  0.62162048664E-05 -0.89553099540E+03  0.11044689967E+04  0.64643329195E+03 0.  0.
         13    1    3    3    0    0 -0.12979192628E+03 -0.17809848812E+03 -0.43793561755E+02  0.22468398174E+03  0.00000000000E+00 0.  1.
          1    1    3    3  501    0  0.12979192190E+03  0.17809849433E+03 -0.85173743365E+03  0.87978501496E+03  0.00000000000E+00 0.  1.
         21    1    1    2  502  501  0.43881191003E-05 -0.62162048638E-05 -0.28921049106E-06  0.76144884828E-05  0.00000000000E+00 0.  1.
<mgrwt>
<rscale>  1 0.64643329E+03</rscale>
<asrwt>0</asrwt>
<pdfrwt beam="1">  1        1 0.37988809E+00 0.64643329E+03</pdfrwt>
<pdfrwt beam="2">0</pdfrwt>
<totfact> 0.16439164E+00</totfact>
</mgrwt>
</event>
<event>
 6    1  0.7694636E-003  0.6442458E+03  0.7818608E-02  0.9817637E-01
          3   -1    0    0  502    0  0.00000000000E+00  0.00000000000E+00  0.10524320622E+03  0.10524320622E+03  0.00000000000E+00 0.  1.
         13   -1    0    0    0    0 -0.00000000000E+00 -0.00000000000E+00 -0.10000000000E+04  0.10000000000E+04  0.00000000000E+00 0.  1.
    9000005    2    1    2  501    0 -0.34776489519E+00 -0.46099715004E+00 -0.89617441140E+03  0.11037124879E+04  0.64424556411E+03 0.  0.
         13    1    3    3    0    0 -0.13509205446E+03  0.28121565622E+03 -0.58440798399E+03  0.66246871642E+03  0.00000000000E+00 0.  1.
          3    1    3    3  501    0  0.13474428957E+03 -0.28167665337E+03 -0.31176642741E+03  0.44124377150E+03  0.00000000000E+00 0.  1.
         21    1    1    2  502  501  0.34776489519E+00  0.46099715004E+00  0.14176176192E+01  0.15307182983E+01  0.00000000000E+00 0. -1.
<mgrwt>
<rscale>  1 0.64424582E+03</rscale>
<asrwt>0</asrwt>
<pdfrwt beam="1">  1        3 0.38270338E+00 0.64424582E+03</pdfrwt>
<pdfrwt beam="2">0</pdfrwt>
<totfact> 0.73108790E-02</totfact>
</mgrwt>
</event>
<event>
 6    1  0.7694636E-003  0.5870509E+03  0.7818608E-02  0.9932642E-01
          1   -1    0    0  502    0  0.00000000000E+00  0.00000000000E+00  0.86168584482E+02  0.86168584482E+02  0.00000000000E+00 0.  1.
         13   -1    0    0    0    0 -0.00000000000E+00 -0.00000000000E+00 -0.10000000000E+04  0.10000000000E+04  0.00000000000E+00 0.  1.
    9000005    2    1    2  501    0  0.53611665075E-03  0.10386622705E-03 -0.91384280725E+03  0.10861571797E+04  0.58705088585E+03 0.  0.
         13    1    3    3    0    0 -0.29632937184E+02  0.27185195071E+03 -0.25958641786E+03  0.37704999988E+03  0.00000000000E+00 0.  1.
          3    1    3    3  501    0  0.29633473301E+02 -0.27185184684E+03 -0.65425638939E+03  0.70910717979E+03  0.00000000000E+00 0.  1.
         21    1    1    2  502  501 -0.53611665075E-03 -0.10386622706E-03  0.11391733946E-01  0.11404815280E-01  0.00000000000E+00 0. -1.
<mgrwt>
<rscale>  1 0.58705089E+03</rscale>
<asrwt>0</asrwt>
<pdfrwt beam="1">  1        1 0.31334097E+00 0.58705089E+03</pdfrwt>
<pdfrwt beam="2">0</pdfrwt>
<totfact> 0.32391047E+00</totfact>
</mgrwt>
</event>
<event>
 6    1  0.7694636E-003  0.6443483E+03  0.7818608E-02  0.9817442E-01
          1   -1    0    0  502    0  0.00000000000E+00  0.00000000000E+00  0.10381055915E+03  0.10381055915E+03  0.00000000000E+00 0.  1.
         13   -1    0    0    0    0 -0.00000000000E+00 -0.00000000000E+00 -0.10000000000E+04  0.10000000000E+04  0.00000000000E+00 0.  1.
    9000005    2    1    2  501    0 -0.24691846173E-03  0.18130015833E-02 -0.89620375339E+03  0.11037961301E+04  0.64434829813E+03 0.  0.
         13    1    3    3    0    0  0.11107113551E+03 -0.18044516110E+03 -0.32362297077E+02  0.21434684878E+03  0.00000000000E+00 0.  1.
          3    1    3    3  501    0 -0.11107138243E+03  0.18044697411E+03 -0.86384145631E+03  0.88944928135E+03  0.00000000000E+00 0.  1.
         21    1    1    2  502  501  0.24691846173E-03 -0.18130015833E-02  0.14312534002E-01  0.14429018436E-01  0.00000000000E+00 0.  1.
<mgrwt>
<rscale>  1 0.64434830E+03</rscale>
<asrwt>0</asrwt>
<pdfrwt beam="1">  1        1 0.37749374E+00 0.64434830E+03</pdfrwt>
<pdfrwt beam="2">0</pdfrwt>
<totfact> 0.16850149E+00</totfact>
</mgrwt>
</event>
<event>
 6    1  0.7694636E-003  0.6164977E+03  0.7818608E-02  0.9871758E-01
          1   -1    0    0  502    0  0.00000000000E+00  0.00000000000E+00  0.95017560413E+02  0.95017560413E+02  0.00000000000E+00 0.  1.
         13   -1    0    0    0    0 -0.00000000000E+00 -0.00000000000E+00 -0.10000000000E+04  0.10000000000E+04  0.00000000000E+00 0.  1.
    9000005    2    1    2  501    0  0.35022971569E-03 -0.53765852937E-03 -0.90498097622E+03  0.10950159625E+04  0.61649768119E+03 0.  0.
         13    1    3    3    0    0 -0.51682521205E+02 -0.26050773845E+03 -0.73040666941E+03  0.77719319832E+03  0.00000000000E+00 0.  1.
          1    1    3    3  501    0  0.51682871435E+02  0.26050720079E+03 -0.17457430681E+03  0.31782276423E+03  0.00000000000E+00 0.  1.
         21    1    1    2  502  501 -0.35022971569E-03  0.53765852937E-03 -0.14633637196E-02  0.15978644885E-02  0.00000000000E+00 0.  1.
<mgrwt>
<rscale>  1 0.61649768E+03</rscale>
<asrwt>0</asrwt>
<pdfrwt beam="1">  1        1 0.34551913E+00 0.61649768E+03</pdfrwt>
<pdfrwt beam="2">0</pdfrwt>
<totfact> 0.23374571E+00</totfact>
</mgrwt>
</event>
<event>
 6    1  0.7694636E-003  0.6557779E+03  0.7818608E-02  0.9795997E-01
          1   -1    0    0  502    0  0.00000000000E+00  0.00000000000E+00  0.10790850914E+03  0.10790850914E+03  0.00000000000E+00 0.  1.
         13   -1    0    0    0    0 -0.00000000000E+00 -0.00000000000E+00 -0.10000000000E+04  0.10000000000E+04  0.00000000000E+00 0.  1.
    9000005    2    1    2  501    0 -0.11629151067E-01  0.11466024882E-01 -0.89248865345E+03  0.11075110109E+04  0.65577789115E+03 0.  0.
         13    1    3    3    0    0 -0.19434843251E+03 -0.24858425817E+03 -0.29570667064E+03  0.43244407926E+03  0.00000000000E+00 0.  1.
          1    1    3    3  501    0  0.19433680336E+03  0.24859572419E+03 -0.59678198281E+03  0.67506693167E+03  0.00000000000E+00 0.  1.
         21    1    1    2  502  501  0.11629151067E-01 -0.11466024882E-01  0.39716258821E+00  0.39749821177E+00  0.00000000000E+00 0. -1.
<mgrwt>
<rscale>  1 0.65577789E+03</rscale>
<asrwt>0</asrwt>
<pdfrwt beam="1">  1        1 0.39239541E+00 0.65577789E+03</pdfrwt>
<pdfrwt beam="2">0</pdfrwt>
<totfact> 0.14446850E+00</totfact>
</mgrwt>
</event>
<event>
 6    1  0.7694636E-003  0.6412019E+03  0.7818608E-02  0.9823430E-01
          1   -1    0    0  502    0  0.00000000000E+00  0.00000000000E+00  0.10494322257E+03  0.10494322257E+03  0.00000000000E+00 0.  1.
         13   -1    0    0    0    0 -0.00000000000E+00 -0.00000000000E+00 -0.10000000000E+04  0.10000000000E+04  0.00000000000E+00 0.  1.
    9000005    2    1    2  501    0  0.17338320455E+00  0.10545830855E+00 -0.89720976788E+03  0.11027806891E+04  0.64120187107E+03 0.  0.
         13    1    3    3    0    0  0.24807983739E+02  0.19872641373E+03 -0.17997440278E+02  0.20107593448E+03  0.00000000000E+00 0.  1.
          3    1    3    3  501    0 -0.24634600534E+02 -0.19862095542E+03 -0.87921232760E+03  0.90170475461E+03  0.00000000000E+00 0.  1.
         21    1    1    2  502  501 -0.17338320455E+00 -0.10545830855E+00  0.21529904506E+01  0.21625334844E+01  0.00000000000E+00 0.  1.
<mgrwt>
<rscale>  1 0.64120190E+03</rscale>
<asrwt>0</asrwt>
<pdfrwt beam="1">  1        1 0.38161252E+00 0.64120190E+03</pdfrwt>
<pdfrwt beam="2">0</pdfrwt>
<totfact> 0.16169213E+00</totfact>
</mgrwt>
</event>
<event>
 6    1  0.7694636E-003  0.6553438E+03  0.7818608E-02  0.9796803E-01
          1   -1    0    0  502    0  0.00000000000E+00  0.00000000000E+00  0.10834301032E+03  0.10834301032E+03  0.00000000000E+00 0.  1.
         13   -1    0    0    0    0 -0.00000000000E+00 -0.00000000000E+00 -0.10000000000E+04  0.10000000000E+04  0.00000000000E+00 0.  1.
    9000005    2    1    2  501    0  0.10367707417E-01  0.18201819588E-01 -0.89263101436E+03  0.11073687604E+04  0.65534375964E+03 0.  0.
         13    1    3    3    0    0 -0.19363838100E+03  0.17959085084E+03 -0.11856961979E+03  0.28949516583E+03  0.00000000000E+00 0.  1.
          3    1    3    3  501    0  0.19364874870E+03 -0.17957264902E+03 -0.77406139457E+03  0.81787359459E+03  0.00000000000E+00 0.  1.
         21    1    1    2  502  501 -0.10367707417E-01 -0.18201819588E-01  0.97402467984E+00  0.97424990251E+00  0.00000000000E+00 0.  1.
<mgrwt>
<rscale>  1 0.65534376E+03</rscale>
<asrwt>0</asrwt>
<pdfrwt beam="1">  1        1 0.39397541E+00 0.65534376E+03</pdfrwt>
<pdfrwt beam="2">0</pdfrwt>
<totfact> 0.14216405E+00</totfact>
</mgrwt>
</event>
<event>
 6    1  0.7694636E-003  0.6468771E+03  0.7818608E-02  0.9812657E-01
          1   -1    0    0  502    0  0.00000000000E+00  0.00000000000E+00  0.10470745198E+03  0.10470745198E+03  0.00000000000E+00 0.  1.
         13   -1    0    0    0    0 -0.00000000000E+00 -0.00000000000E+00 -0.10000000000E+04  0.10000000000E+04  0.00000000000E+00 0.  1.
    9000005    2    1    2  501    0  0.39457897924E-03 -0.13214690850E-02 -0.89538748856E+03  0.11046125014E+04  0.64687713180E+03 0.  0.
         13    1    3    3    0    0  0.28600753570E+03 -0.13652615895E+03 -0.33738373903E+03  0.46289036490E+03  0.00000000000E+00 0.  1.
          1    1    3    3  501    0 -0.28600714112E+03  0.13652483748E+03 -0.55800374953E+03  0.64172213653E+03  0.00000000000E+00 0.  1.
         21    1    1    2  502  501 -0.39457897924E-03  0.13214690850E-02  0.94940537290E-01  0.94950553416E-01  0.00000000000E+00 0.  1.
<mgrwt>
<rscale>  1 0.64687713E+03</rscale>
<asrwt>0</asrwt>
<pdfrwt beam="1">  1        1 0.38075517E+00 0.64687713E+03</pdfrwt>
<pdfrwt beam="2">0</pdfrwt>
<totfact> 0.16293632E+00</totfact>
</mgrwt>
</event>
<event>
 6    1  0.7694636E-003  0.6446748E+03  0.7818608E-02  0.9816823E-01
          1   -1    0    0  502    0  0.00000000000E+00  0.00000000000E+00  0.10435580810E+03  0.10435580810E+03  0.00000000000E+00 0.  1.
         13   -1    0    0    0    0 -0.00000000000E+00 -0.00000000000E+00 -0.10000000000E+04  0.10000000000E+04  0.00000000000E+00 0.  1.
    9000005    2    1    2  501    0  0.38735160132E-01  0.59799778121E-02 -0.89609768324E+03  0.11039006262E+04  0.64467474982E+03 0.  0.
         13    1    3    3    0    0  0.18820487527E+03 -0.19510375992E+03 -0.74672113084E+03  0.79440480830E+03  0.00000000000E+00 0.  1.
          1    1    3    3  501    0 -0.18816614011E+03  0.19510973989E+03 -0.14937655240E+03  0.30949581789E+03  0.00000000000E+00 0.  1.
         21    1    1    2  502  501 -0.38735160132E-01 -0.59799778121E-02  0.45349134197E+00  0.45518190870E+00  0.00000000000E+00 0. -1.
<mgrwt>
<rscale>  1 0.64467475E+03</rscale>
<asrwt>0</asrwt>
<pdfrwt beam="1">  1        1 0.37947647E+00 0.64467475E+03</pdfrwt>
<pdfrwt beam="2">0</pdfrwt>
<totfact> 0.16513382E+00</totfact>
</mgrwt>
</event>
<event>
 6    1  0.7694636E-003  0.6461054E+03  0.7818608E-02  0.9814115E-01
          1   -1    0    0  502    0  0.00000000000E+00  0.00000000000E+00  0.10436415232E+03  0.10436415232E+03  0.00000000000E+00 0.  1.
         13   -1    0    0    0    0 -0.00000000000E+00 -0.00000000000E+00 -0.10000000000E+04  0.10000000000E+04  0.00000000000E+00 0.  1.
    9000005    2    1    2  501    0  0.85113619974E-04  0.21427763487E-02 -0.89563569214E+03  0.11043620022E+04  0.64610536207E+03 0.  0.
         13    1    3    3    0    0  0.19710107007E+03  0.18137186073E+03 -0.13911456016E+03  0.30182353212E+03  0.00000000000E+00 0.  1.
          3    1    3    3  501    0 -0.19710098496E+03 -0.18136971795E+03 -0.75652113198E+03  0.80253847010E+03  0.00000000000E+00 0.  1.
         21    1    1    2  502  501 -0.85113619989E-04 -0.21427763487E-02 -0.15554009483E-03  0.21500994233E-02  0.00000000000E+00 0. -1.
<mgrwt>
<rscale>  1 0.64610536E+03</rscale>
<asrwt>0</asrwt>
<pdfrwt beam="1">  1        1 0.37950681E+00 0.64610536E+03</pdfrwt>
<pdfrwt beam="2">0</pdfrwt>
<totfact> 0.16503953E+00</totfact>
</mgrwt>
</event>
<event>
 6    1  0.7694636E-003  0.6687294E+03  0.7818608E-02  0.9772256E-01
          1   -1    0    0  502    0  0.00000000000E+00  0.00000000000E+00  0.11462216214E+03  0.11462216214E+03  0.00000000000E+00 0.  1.
         13   -1    0    0    0    0 -0.00000000000E+00 -0.00000000000E+00 -0.10000000000E+04  0.10000000000E+04  0.00000000000E+00 0.  1.
    9000005    2    1    2  501    0 -0.30126094405E-01  0.68100391986E-01 -0.88819969343E+03  0.11117993242E+04  0.66872941936E+03 0.  0.
         13    1    3    3    0    0  0.80127843256E+02 -0.17228912769E+03 -0.90144536743E+03  0.92125336648E+03  0.00000000000E+00 0.  1.
          1    1    3    3  501    0 -0.80157969350E+02  0.17235722808E+03  0.13245674002E+02  0.19054595771E+03  0.00000000000E+00 0.  1.
         21    1    1    2  502  501  0.30126094405E-01 -0.68100391986E-01  0.28218555724E+01  0.28228379544E+01  0.00000000000E+00 0. -1.
<mgrwt>
<rscale>  1 0.66872942E+03</rscale>
<asrwt>0</asrwt>
<pdfrwt beam="1">  1        1 0.41680874E+00 0.66872942E+03</pdfrwt>
<pdfrwt beam="2">0</pdfrwt>
<totfact> 0.11208716E+00</totfact>
</mgrwt>
</event>
<event>
 6    1  0.7694636E-003  0.6324367E+03  0.7818608E-02  0.9840305E-01
          1   -1    0    0  502    0  0.00000000000E+00  0.00000000000E+00  0.10114768765E+03  0.10114768765E+03  0.00000000000E+00 0.  1.
         13   -1    0    0    0    0 -0.00000000000E+00 -0.00000000000E+00 -0.10000000000E+04  0.10000000000E+04  0.00000000000E+00 0.  1.
    9000005    2    1    2  501    0  0.57753348285E-01  0.54204862617E-01 -0.90000445197E+03  0.10999928286E+04  0.63243671876E+03 0.  0.
         13    1    3    3    0    0 -0.11364196194E+03  0.28039156057E+03 -0.28996167689E+03  0.41906049303E+03  0.00000000000E+00 0.  1.
          3    1    3    3  501    0  0.11369971529E+03 -0.28033735571E+03 -0.61004277508E+03  0.68093233562E+03  0.00000000000E+00 0.  1.
         21    1    1    2  502  501 -0.57753348285E-01 -0.54204862617E-01  0.11521396151E+01  0.11548589996E+01  0.00000000000E+00 0.  1.
<mgrwt>
<rscale>  1 0.63243672E+03</rscale>
<asrwt>0</asrwt>
<pdfrwt beam="1">  1        1 0.36781055E+00 0.63243672E+03</pdfrwt>
<pdfrwt beam="2">0</pdfrwt>
<totfact> 0.18626275E+00</totfact>
</mgrwt>
</event>
<event>
 6    1  0.7694636E-003  0.6518017E+03  0.7818608E-02  0.9803404E-01
          1   -1    0    0  502    0  0.00000000000E+00  0.00000000000E+00  0.10698957011E+03  0.10698957011E+03  0.00000000000E+00 0.  1.
         13   -1    0    0    0    0 -0.00000000000E+00 -0.00000000000E+00 -0.10000000000E+04  0.10000000000E+04  0.00000000000E+00 0.  1.
    9000005    2    1    2  501    0 -0.18273441534E-02 -0.65955536524E-01 -0.89378709740E+03  0.11062101050E+04  0.65180166963E+03 0.  0.
         13    1    3    3    0    0  0.21632909686E+03 -0.21074238428E+03 -0.65487900103E+03  0.72116373776E+03  0.00000000000E+00 0.  1.
          1    1    3    3  501    0 -0.21633092420E+03  0.21067642875E+03 -0.23890809637E+03  0.38504636722E+03  0.00000000000E+00 0.  1.
         21    1    1    2  502  501  0.18273441534E-02  0.65955536524E-01  0.77666751120E+00  0.77946513388E+00  0.00000000000E+00 0. -1.
<mgrwt>
<rscale>  1 0.65180167E+03</rscale>
<asrwt>0</asrwt>
<pdfrwt beam="1">  1        1 0.38905380E+00 0.65180167E+03</pdfrwt>
<pdfrwt beam="2">0</pdfrwt>
<totfact> 0.14959546E+00</totfact>
</mgrwt>
</event>
<event>
 6    1  0.7694636E-003  0.6512721E+03  0.7818608E-02  0.9804395E-01
          1   -1    0    0  502    0  0.00000000000E+00  0.00000000000E+00  0.10603885564E+03  0.10603885564E+03  0.00000000000E+00 0.  1.
         13   -1    0    0    0    0 -0.00000000000E+00 -0.00000000000E+00 -0.10000000000E+04  0.10000000000E+04  0.00000000000E+00 0.  1.
    9000005    2    1    2  501    0  0.11892954888E-05  0.35162969624E-04 -0.89396109134E+03  0.11060387920E+04  0.65127212178E+03 0.  0.
         13    1    3    3    0    0 -0.19479981090E+03 -0.25328222456E+03 -0.55358000184E+03  0.63917890300E+03  0.00000000000E+00 0.  1.
          3    1    3    3  501    0  0.19479981209E+03  0.25328225972E+03 -0.34038108950E+03  0.46685988901E+03  0.00000000000E+00 0.  1.
         21    1    1    2  502  501 -0.11892954796E-05 -0.35162969613E-04 -0.53018682277E-04  0.63630413531E-04  0.00000000000E+00 0. -1.
<mgrwt>
<rscale>  1 0.65127212E+03</rscale>
<asrwt>0</asrwt>
<pdfrwt beam="1">  1        1 0.38559665E+00 0.65127212E+03</pdfrwt>
<pdfrwt beam="2">0</pdfrwt>
<totfact> 0.15497822E+00</totfact>
</mgrwt>
</event>
<event>
 6    1  0.7694636E-003  0.6467964E+03  0.7818608E-02  0.9812809E-01
          1   -1    0    0  502    0  0.00000000000E+00  0.00000000000E+00  0.10477026811E+03  0.10477026811E+03  0.00000000000E+00 0.  1.
         13   -1    0    0    0    0 -0.00000000000E+00 -0.00000000000E+00 -0.10000000000E+04  0.10000000000E+04  0.00000000000E+00 0.  1.
    9000005    2    1    2  501    0  0.29580426075E-02 -0.73464415014E-02 -0.89541349416E+03  0.11045863353E+04  0.64679644903E+03 0.  0.
         13    1    3    3    0    0  0.28442808199E+03  0.65173025152E+02 -0.68581840518E+03  0.74531452549E+03  0.00000000000E+00 0.  1.
          1    1    3    3  501    0 -0.28442512395E+03 -0.65180371593E+02 -0.20959508898E+03  0.35927180977E+03  0.00000000000E+00 0.  1.
         21    1    1    2  502  501 -0.29580426074E-02  0.73464415014E-02  0.18376226422E+00  0.18393284093E+00  0.00000000000E+00 0. -1.
<mgrwt>
<rscale>  1 0.64679645E+03</rscale>
<asrwt>0</asrwt>
<pdfrwt beam="1">  1        1 0.38098360E+00 0.64679645E+03</pdfrwt>
<pdfrwt beam="2">0</pdfrwt>
<totfact> 0.16256090E+00</totfact>
</mgrwt>
</event>
<event>
 6    1  0.1271710E-002  0.5092977E+03  0.7818608E-02  0.1011380E+00
          1   -1    0    0  502    0  0.00000000000E+00  0.00000000000E+00  0.64846025709E+02  0.64846025709E+02  0.00000000000E+00 0.  1.
         13   -1    0    0    0    0 -0.00000000000E+00 -0.00000000000E+00 -0.10000000000E+04  0.10000000000E+04  0.00000000000E+00 0.  1.
    9000005    2    1    2  501    0  0.44093346077E-05 -0.30504066899E-05 -0.93515396850E+03  0.10648460178E+04  0.50929765055E+03 0.  0.
         13    1    3    3    0    0  0.95415889912E+02  0.16028126088E+03 -0.10512538630E+03  0.21411590665E+03  0.00000000000E+00 0.  1.
          1    1    3    3  501    0 -0.95415885502E+02 -0.16028126393E+03 -0.83002858220E+03  0.85073011116E+03  0.00000000000E+00 0.  1.
         21    1    1    2  502  501 -0.44093346024E-05  0.30504067004E-05 -0.57905385872E-05  0.78916126238E-05  0.00000000000E+00 0. -1.
<mgrwt>
<rscale>  1 0.50929765E+03</rscale>
<asrwt>0</asrwt>
<pdfrwt beam="1">  1        1 0.23580423E+00 0.50929765E+03</pdfrwt>
<pdfrwt beam="2">0</pdfrwt>
<totfact> 0.71121682E+00</totfact>
</mgrwt>
</event>
<event>
 6    1  0.7694636E-003  0.6418046E+03  0.7818608E-02  0.9822280E-01
          1   -1    0    0  502    0  0.00000000000E+00  0.00000000000E+00  0.10297832157E+03  0.10297832157E+03  0.00000000000E+00 0.  1.
         13   -1    0    0    0    0 -0.00000000000E+00 -0.00000000000E+00 -0.10000000000E+04  0.10000000000E+04  0.00000000000E+00 0.  1.
    9000005    2    1    2  501    0  0.13069713305E-04  0.83095547581E-05 -0.89702169916E+03  0.11029782957E+04  0.64180463695E+03 0.  0.
         13    1    3    3    0    0  0.10802184241E+03 -0.28336814714E+02  0.68505471057E+02  0.13101409493E+03  0.00000000000E+00 0.  1.
          1    1    3    3  501    0 -0.10802182934E+03  0.28336823023E+02 -0.96552717021E+03  0.97196420077E+03  0.00000000000E+00 0.  1.
         21    1    1    2  502  501 -0.13069713306E-04 -0.83095547605E-05  0.20724717845E-04  0.25872379790E-04  0.00000000000E+00 0. -1.
<mgrwt>
<rscale>  1 0.64180464E+03</rscale>
<asrwt>0</asrwt>
<pdfrwt beam="1">  1        1 0.37446741E+00 0.64180464E+03</pdfrwt>
<pdfrwt beam="2">0</pdfrwt>
<totfact> 0.17383347E+00</totfact>
</mgrwt>
</event>
<event>
 6    1  0.7694636E-003  0.6465646E+03  0.7818608E-02  0.9813247E-01
          1   -1    0    0  502    0  0.00000000000E+00  0.00000000000E+00  0.10451144849E+03  0.10451144849E+03  0.00000000000E+00 0.  1.
         13   -1    0    0    0    0 -0.00000000000E+00 -0.00000000000E+00 -0.10000000000E+04  0.10000000000E+04  0.00000000000E+00 0.  1.
    9000005    2    1    2  501    0  0.37195273705E-05 -0.24848172302E-05 -0.89548855012E+03  0.11045114438E+04  0.64656460319E+03 0.  0.
         13    1    3    3    0    0  0.43207566626E+02  0.14229573739E+03  0.42612988979E+02  0.15469595186E+03  0.00000000000E+00 0.  1.
          3    1    3    3  501    0 -0.43207562906E+02 -0.14229573987E+03 -0.93810153910E+03  0.94981549195E+03  0.00000000000E+00 0.  1.
         21    1    1    2  502  501 -0.37195273715E-05  0.24848172126E-05 -0.13874013862E-05  0.46833837184E-05  0.00000000000E+00 0. -1.
<mgrwt>
<rscale>  1 0.64656460E+03</rscale>
<asrwt>0</asrwt>
<pdfrwt beam="1">  1        1 0.38004243E+00 0.64656460E+03</pdfrwt>
<pdfrwt beam="2">0</pdfrwt>
<totfact> 0.16413011E+00</totfact>
</mgrwt>
</event>
<event>
 6    1  0.7694636E-003  0.6622668E+03  0.7818608E-02  0.9784030E-01
          1   -1    0    0  502    0  0.00000000000E+00  0.00000000000E+00  0.10964956946E+03  0.10964956946E+03  0.00000000000E+00 0.  1.
         13   -1    0    0    0    0 -0.00000000000E+00 -0.00000000000E+00 -0.10000000000E+04  0.10000000000E+04  0.00000000000E+00 0.  1.
    9000005    2    1    2  501    0  0.49939268399E-03  0.19554071359E-03 -0.89035023049E+03  0.11096489971E+04  0.66226683726E+03 0.  0.
         13    1    3    3    0    0 -0.31128405416E+03  0.11151554336E+03 -0.47494694664E+03  0.57871243369E+03  0.00000000000E+00 0.  1.
          1    1    3    3  501    0  0.31128455356E+03 -0.11151534782E+03 -0.41540328385E+03  0.53093656336E+03  0.00000000000E+00 0.  1.
         21    1    1    2  502  501 -0.49939268401E-03 -0.19554071358E-03 -0.20004666693E-03  0.57240535677E-03  0.00000000000E+00 0.  1.
<mgrwt>
<rscale>  1 0.66226684E+03</rscale>
<asrwt>0</asrwt>
<pdfrwt beam="1">  1        1 0.39872655E+00 0.66226684E+03</pdfrwt>
<pdfrwt beam="2">0</pdfrwt>
<totfact> 0.13523400E+00</totfact>
</mgrwt>
</event>
<event>
 6    1  0.7694636E-003  0.6300886E+03  0.7818608E-02  0.9844876E-01
          1   -1    0    0  502    0  0.00000000000E+00  0.00000000000E+00  0.10017042815E+03  0.10017042815E+03  0.00000000000E+00 0.  1.
         13   -1    0    0    0    0 -0.00000000000E+00 -0.00000000000E+00 -0.10000000000E+04  0.10000000000E+04  0.00000000000E+00 0.  1.
    9000005    2    1    2  501    0 -0.11974984358E+01 -0.82782393661E+00 -0.90006673095E+03  0.10986954572E+04  0.63008687348E+03 0.  0.
         13    1    3    3    0    0 -0.84716785861E+02  0.25999532540E+03 -0.17759919484E+03  0.32606130872E+03  0.00000000000E+00 0.  1.
          1    1    3    3  501    0  0.83519287425E+02 -0.26082314934E+03 -0.72246753611E+03  0.77263414844E+03  0.00000000000E+00 0.  1.
         21    1    1    2  502  501  0.11974984358E+01  0.82782393661E+00  0.23715909606E+00  0.14749709864E+01  0.00000000000E+00 0. -1.
<mgrwt>
<rscale>  1 0.63008856E+03</rscale>
<asrwt>0</asrwt>
<pdfrwt beam="1">  1        1 0.36425687E+00 0.63008856E+03</pdfrwt>
<pdfrwt beam="2">0</pdfrwt>
<totfact> 0.19314807E+00</totfact>
</mgrwt>
</event>
<event>
 6    1  0.7694636E-003  0.6493833E+03  0.7818608E-02  0.9807937E-01
          1   -1    0    0  502    0  0.00000000000E+00  0.00000000000E+00  0.10958494317E+03  0.10958494317E+03  0.00000000000E+00 0.  1.
         13   -1    0    0    0    0 -0.00000000000E+00 -0.00000000000E+00 -0.10000000000E+04  0.10000000000E+04  0.00000000000E+00 0.  1.
    9000005    2    1    2  501    0  0.19089224532E+01 -0.24535839972E+00 -0.89432787788E+03  0.11052243980E+04  0.64938040668E+03 0.  0.
         13    1    3    3    0    0  0.14926130385E+03 -0.16651627222E+03 -0.46021679852E+02  0.22830812679E+03  0.00000000000E+00 0.  1.
          1    1    3    3  501    0 -0.14735238139E+03  0.16627091382E+03 -0.84830619803E+03  0.87691627120E+03  0.00000000000E+00 0.  1.
         21    1    1    2  502  501 -0.19089224532E+01  0.24535839972E+00  0.39128210552E+01  0.43605451823E+01  0.00000000000E+00 0.  1.
<mgrwt>
<rscale>  1 0.64938326E+03</rscale>
<asrwt>0</asrwt>
<pdfrwt beam="1">  1        1 0.39849154E+00 0.64938326E+03</pdfrwt>
<pdfrwt beam="2">0</pdfrwt>
<totfact> 0.13588970E+00</totfact>
</mgrwt>
</event>
<event>
 6    1  0.7694636E-003  0.6609676E+03  0.7818608E-02  0.9786414E-01
          1   -1    0    0  502    0  0.00000000000E+00  0.00000000000E+00  0.10972953541E+03  0.10972953541E+03  0.00000000000E+00 0.  1.
         13   -1    0    0    0    0 -0.00000000000E+00 -0.00000000000E+00 -0.10000000000E+04  0.10000000000E+04  0.00000000000E+00 0.  1.
    9000005    2    1    2  501    0  0.13293417799E+01  0.39478840797E+00 -0.88932552757E+03  0.11080514670E+04  0.66096613879E+03 0.  0.
         13    1    3    3    0    0 -0.11233276179E+03 -0.26664787411E+03 -0.17778669873E+03  0.33959954120E+03  0.00000000000E+00 0.  1.
          3    1    3    3  501    0  0.11366210357E+03  0.26704266251E+03 -0.71153882884E+03  0.76845192585E+03  0.00000000000E+00 0.  1.
         21    1    1    2  502  501 -0.13293417799E+01 -0.39478840797E+00 -0.94493701875E+00  0.16780683610E+01  0.00000000000E+00 0.  1.
<mgrwt>
<rscale>  1 0.66096759E+03</rscale>
<asrwt>0</asrwt>
<pdfrwt beam="1">  1        1 0.39901733E+00 0.66096759E+03</pdfrwt>
<pdfrwt beam="2">0</pdfrwt>
<totfact> 0.13486385E+00</totfact>
</mgrwt>
</event>
<event>
 6    1  0.7694636E-003  0.6583660E+03  0.7818608E-02  0.9791206E-01
          1   -1    0    0  502    0  0.00000000000E+00  0.00000000000E+00  0.10890820734E+03  0.10890820734E+03  0.00000000000E+00 0.  1.
         13   -1    0    0    0    0 -0.00000000000E+00 -0.00000000000E+00 -0.10000000000E+04  0.10000000000E+04  0.00000000000E+00 0.  1.
    9000005    2    1    2  501    0  0.90092941831E+00  0.88070101955E+00 -0.89066411528E+03  0.11075777127E+04  0.65836481989E+03 0.  0.
         13    1    3    3    0    0  0.14891008083E+03  0.21302283078E+03 -0.10481070338E+03  0.28024671657E+03  0.00000000000E+00 0.  1.
          3    1    3    3  501    0 -0.14800915142E+03 -0.21214212976E+03 -0.78585341190E+03  0.82733099611E+03  0.00000000000E+00 0.  1.
         21    1    1    2  502  501 -0.90092941831E+00 -0.88070101955E+00 -0.42767737434E+00  0.13304946596E+01  0.00000000000E+00 0.  1.
<mgrwt>
<rscale>  1 0.65836603E+03</rscale>
<asrwt>0</asrwt>
<pdfrwt beam="1">  1        1 0.39603068E+00 0.65836603E+03</pdfrwt>
<pdfrwt beam="2">0</pdfrwt>
<totfact> 0.13912525E+00</totfact>
</mgrwt>
</event>
<event>
 6    1  0.7694636E-003  0.6488766E+03  0.7818608E-02  0.9808890E-01
          1   -1    0    0  502    0  0.00000000000E+00  0.00000000000E+00  0.10571662588E+03  0.10571662588E+03  0.00000000000E+00 0.  1.
         13   -1    0    0    0    0 -0.00000000000E+00 -0.00000000000E+00 -0.10000000000E+04  0.10000000000E+04  0.00000000000E+00 0.  1.
    9000005    2    1    2  501    0 -0.22536496775E-01 -0.53386384432E-01 -0.89473777109E+03  0.11052585488E+04  0.64887655014E+03 0.  0.
         13    1    3    3    0    0 -0.25291846892E+03 -0.19872238831E+03 -0.52003391268E+03  0.61146840464E+03  0.00000000000E+00 0.  1.
          3    1    3    3  501    0  0.25289593242E+03  0.19866900193E+03 -0.37470385842E+03  0.49379014417E+03  0.00000000000E+00 0.  1.
         21    1    1    2  502  501  0.22536496775E-01  0.53386384432E-01  0.45439697390E+00  0.45807707825E+00  0.00000000000E+00 0.  1.
<mgrwt>
<rscale>  1 0.64887655E+03</rscale>
<asrwt>0</asrwt>
<pdfrwt beam="1">  1        1 0.38442490E+00 0.64887655E+03</pdfrwt>
<pdfrwt beam="2">0</pdfrwt>
<totfact> 0.15690823E+00</totfact>
</mgrwt>
</event>
<event>
 6    1  0.7694636E-003  0.6384931E+03  0.7818608E-02  0.9828614E-01
          1   -1    0    0  502    0  0.00000000000E+00  0.00000000000E+00  0.10468413021E+03  0.10468413021E+03  0.00000000000E+00 0.  1.
         13   -1    0    0    0    0 -0.00000000000E+00 -0.00000000000E+00 -0.10000000000E+04  0.10000000000E+04  0.00000000000E+00 0.  1.
    9000005    2    1    2  501    0 -0.46601127937E+01  0.15047994025E+01 -0.89546261978E+03  0.10997848846E+04  0.63847435954E+03 0.  0.
         13    1    3    3    0    0  0.14289653296E+03  0.21053158644E+03 -0.77743073587E+03  0.81801070720E+03  0.00000000000E+00 0.  1.
          3    1    3    3  501    0 -0.14755664575E+03 -0.20902678704E+03 -0.11803188391E+03  0.28177417735E+03  0.00000000000E+00 0.  1.
         21    1    1    2  502  501  0.46601127937E+01 -0.15047994025E+01  0.14674999400E+00  0.48992456616E+01  0.00000000000E+00 0.  1.
<mgrwt>
<rscale>  1 0.63849314E+03</rscale>
<asrwt>0</asrwt>
<pdfrwt beam="1">  1        1 0.38067037E+00 0.63849314E+03</pdfrwt>
<pdfrwt beam="2">0</pdfrwt>
<totfact> 0.16332991E+00</totfact>
</mgrwt>
</event>
<event>
 6    1  0.7694636E-003  0.6438272E+03  0.7818608E-02  0.9818431E-01
          1   -1    0    0  502    0  0.00000000000E+00  0.00000000000E+00  0.10362844069E+03  0.10362844069E+03  0.00000000000E+00 0.  1.
         13   -1    0    0    0    0 -0.00000000000E+00 -0.00000000000E+00 -0.10000000000E+04  0.10000000000E+04  0.00000000000E+00 0.  1.
    9000005    2    1    2  501    0  0.11332815234E-04  0.24501688131E-04 -0.89637164078E+03  0.11036283549E+04  0.64382717188E+03 0.  0.
         13    1    3    3    0    0 -0.13427375725E+03 -0.10555909788E+03 -0.91592520292E+03  0.93171408832E+03  0.00000000000E+00 0.  1.
          1    1    3    3  501    0  0.13427376858E+03  0.10555912238E+03  0.19553562138E+02  0.17191426654E+03  0.00000000000E+00 0.  1.
         21    1    1    2  502  501 -0.11332815228E-04 -0.24501688134E-04  0.81467906850E-04  0.85824153179E-04  0.00000000000E+00 0. -1.
<mgrwt>
<rscale>  1 0.64382717E+03</rscale>
<asrwt>0</asrwt>
<pdfrwt beam="1">  1        1 0.37683149E+00 0.64382717E+03</pdfrwt>
<pdfrwt beam="2">0</pdfrwt>
<totfact> 0.16965367E+00</totfact>
</mgrwt>
</event>
<event>
 6    1  0.7694636E-003  0.6642914E+03  0.7818608E-02  0.9780326E-01
          1   -1    0    0  502    0  0.00000000000E+00  0.00000000000E+00  0.11033601929E+03  0.11033601929E+03  0.00000000000E+00 0.  1.
         13   -1    0    0    0    0 -0.00000000000E+00 -0.00000000000E+00 -0.10000000000E+04  0.10000000000E+04  0.00000000000E+00 0.  1.
    9000005    2    1    2  501    0 -0.48499443346E-03  0.64870233702E-02 -0.88967847035E+03  0.11103201364E+04  0.66429137029E+03 0.  0.
         13    1    3    3    0    0 -0.28823039973E+03 -0.16441781320E+03 -0.46905004186E+03  0.57455889376E+03  0.00000000000E+00 0.  1.
          3    1    3    3  501    0  0.28822991474E+03  0.16442430023E+03 -0.42062842849E+03  0.53576124264E+03  0.00000000000E+00 0.  1.
         21    1    1    2  502  501  0.48499443346E-03 -0.64870233702E-02  0.14489637404E-01  0.15882892806E-01  0.00000000000E+00 0.  1.
<mgrwt>
<rscale>  1 0.66429137E+03</rscale>
<asrwt>0</asrwt>
<pdfrwt beam="1">  1        1 0.40122273E+00 0.66429137E+03</pdfrwt>
<pdfrwt beam="2">0</pdfrwt>
<totfact> 0.13176202E+00</totfact>
</mgrwt>
</event>
<event>
 6    1  0.7694636E-003  0.6396981E+03  0.7818608E-02  0.9826304E-01
          1   -1    0    0  502    0  0.00000000000E+00  0.00000000000E+00  0.10386421163E+03  0.10386421163E+03  0.00000000000E+00 0.  1.
         13   -1    0    0    0    0 -0.00000000000E+00 -0.00000000000E+00 -0.10000000000E+04  0.10000000000E+04  0.00000000000E+00 0.  1.
    9000005    2    1    2  501    0  0.11289728677E+00 -0.11449943037E-02 -0.89769432687E+03  0.11023015890E+04  0.63969811315E+03 0.  0.
         13    1    3    3    0    0 -0.76745350554E+02 -0.21162023844E+03 -0.84033866869E+03  0.86996669606E+03  0.00000000000E+00 0.  1.
          3    1    3    3  501    0  0.76858247841E+02  0.21161909345E+03 -0.57355658178E+02  0.23233489298E+03  0.00000000000E+00 0.  1.
         21    1    1    2  502  501 -0.11289728677E+00  0.11449943037E-02  0.15585384984E+01  0.15626225902E+01  0.00000000000E+00 0. -1.
<mgrwt>
<rscale>  1 0.63969812E+03</rscale>
<asrwt>0</asrwt>
<pdfrwt beam="1">  1        1 0.37768884E+00 0.63969812E+03</pdfrwt>
<pdfrwt beam="2">0</pdfrwt>
<totfact> 0.16831217E+00</totfact>
</mgrwt>
</event>
<event>
 6    1  0.7694636E-003  0.6535439E+03  0.7818608E-02  0.9800152E-01
          1   -1    0    0  502    0  0.00000000000E+00  0.00000000000E+00  0.10677989574E+03  0.10677989574E+03  0.00000000000E+00 0.  1.
         13   -1    0    0    0    0 -0.00000000000E+00 -0.00000000000E+00 -0.10000000000E+04  0.10000000000E+04  0.00000000000E+00 0.  1.
    9000005    2    1    2  501    0 -0.32117279716E-05 -0.46616058000E-05 -0.89322010107E+03  0.11067798892E+04  0.65354385795E+03 0.  0.
         13    1    3    3    0    0  0.29517711113E+03 -0.12263011082E+03 -0.33159845336E+03  0.46057052151E+03  0.00000000000E+00 0.  1.
          1    1    3    3  501    0 -0.29517711434E+03  0.12263010616E+03 -0.56162164770E+03  0.64620936772E+03  0.00000000000E+00 0.  1.
         21    1    1    2  502  501  0.32117279209E-05  0.46616057881E-05 -0.31944380914E-05  0.65000153447E-05  0.00000000000E+00 0.  1.
<mgrwt>
<rscale>  1 0.65354386E+03</rscale>
<asrwt>0</asrwt>
<pdfrwt beam="1">  1        1 0.38829135E+00 0.65354386E+03</pdfrwt>
<pdfrwt beam="2">0</pdfrwt>
<totfact> 0.15071516E+00</totfact>
</mgrwt>
</event>
<event>
 6    1  0.7694636E-003  0.6230209E+03  0.7818608E-02  0.9858763E-01
          1   -1    0    0  502    0  0.00000000000E+00  0.00000000000E+00  0.97042669739E+02  0.97042669739E+02  0.00000000000E+00 0.  1.
         13   -1    0    0    0    0 -0.00000000000E+00 -0.00000000000E+00 -0.10000000000E+04  0.10000000000E+04  0.00000000000E+00 0.  1.
    9000005    2    1    2  501    0  0.65260481415E-02 -0.80772214943E-04 -0.90295800330E+03  0.10970361086E+04  0.62302092080E+03 0.  0.
         13    1    3    3    0    0 -0.13685811277E+03 -0.10863222148E+03 -0.90557668386E+03  0.92227991029E+03  0.00000000000E+00 0.  1.
          1    1    3    3  501    0  0.13686463882E+03  0.10863214070E+03  0.26186805564E+01  0.17475619829E+03  0.00000000000E+00 0.  1.
         21    1    1    2  502  501 -0.65260481415E-02  0.80772214945E-04  0.67304081416E-03  0.65611593818E-02  0.00000000000E+00 0.  1.
<mgrwt>
<rscale>  1 0.62302092E+03</rscale>
<asrwt>0</asrwt>
<pdfrwt beam="1">  1        1 0.35288318E+00 0.62302092E+03</pdfrwt>
<pdfrwt beam="2">0</pdfrwt>
<totfact> 0.21684937E+00</totfact>
</mgrwt>
</event>
<event>
 6    1  0.7694636E-003  0.6456692E+03  0.7818608E-02  0.9814940E-01
          1   -1    0    0  502    0  0.00000000000E+00  0.00000000000E+00  0.10422708427E+03  0.10422708427E+03  0.00000000000E+00 0.  1.
         13   -1    0    0    0    0 -0.00000000000E+00 -0.00000000000E+00 -0.10000000000E+04  0.10000000000E+04  0.00000000000E+00 0.  1.
    9000005    2    1    2  501    0  0.38429024200E-03 -0.69323012616E-03 -0.89577778957E+03  0.11042221464E+04  0.64566918800E+03 0.  0.
         13    1    3    3    0    0 -0.98679674628E+02  0.15655721193E+03 -0.90028101169E+03  0.91910485735E+03  0.00000000000E+00 0.  1.
          3    1    3    3  501    0  0.98680058918E+02 -0.15655790516E+03  0.45032221293E+01  0.18511728905E+03  0.00000000000E+00 0.  1.
         21    1    1    2  502  501 -0.38429024199E-03  0.69323012616E-03  0.48738316417E-02  0.49378620748E-02  0.00000000000E+00 0. -1.
<mgrwt>
<rscale>  1 0.64566919E+03</rscale>
<asrwt>0</asrwt>
<pdfrwt beam="1">  1        1 0.37900838E+00 0.64566919E+03</pdfrwt>
<pdfrwt beam="2">0</pdfrwt>
<totfact> 0.16589036E+00</totfact>
</mgrwt>
</event>
<event>
 6    1  0.7694636E-003  0.6365733E+03  0.7818608E-02  0.9832305E-01
          1   -1    0    0  502    0  0.00000000000E+00  0.00000000000E+00  0.10130961776E+03  0.10130961776E+03  0.00000000000E+00 0.  1.
         13   -1    0    0    0    0 -0.00000000000E+00 -0.00000000000E+00 -0.10000000000E+04  0.10000000000E+04  0.00000000000E+00 0.  1.
    9000005    2    1    2  501    0  0.12876375609E-03  0.92227446657E-04 -0.89869361704E+03  0.11013063791E+04  0.63657326625E+03 0.  0.
         13    1    3    3    0    0 -0.59113135670E+02 -0.27280578952E+03 -0.18476158916E+03  0.33474498717E+03  0.00000000000E+00 0.  1.
          3    1    3    3  501    0  0.59113264433E+02  0.27280588175E+03 -0.71393202788E+03  0.76656139192E+03  0.00000000000E+00 0.  1.
         21    1    1    2  502  501 -0.12876375609E-03 -0.92227446630E-04  0.32348001889E-02  0.32386753880E-02  0.00000000000E+00 0. -1.
<mgrwt>
<rscale>  1 0.63657327E+03</rscale>
<asrwt>0</asrwt>
<pdfrwt beam="1">  1        1 0.36839939E+00 0.63657327E+03</pdfrwt>
<pdfrwt beam="2">0</pdfrwt>
<totfact> 0.18501836E+00</totfact>
</mgrwt>
</event>
<event>
 6    1  0.7694636E-003  0.6440585E+03  0.7818608E-02  0.9817992E-01
          1   -1    0    0  502    0  0.00000000000E+00  0.00000000000E+00  0.10375362771E+03  0.10375362771E+03  0.00000000000E+00 0.  1.
         13   -1    0    0    0    0 -0.00000000000E+00 -0.00000000000E+00 -0.10000000000E+04  0.10000000000E+04  0.00000000000E+00 0.  1.
    9000005    2    1    2  501    0 -0.14245733390E-01  0.10716558949E-01 -0.89629541672E+03  0.11037014440E+04  0.64405854011E+03 0.  0.
         13    1    3    3    0    0 -0.27710101373E+03  0.37974526978E+02 -0.17461297608E+03  0.32972219811E+03  0.00000000000E+00 0.  1.
          3    1    3    3  501    0  0.27708676800E+03 -0.37963810419E+02 -0.72168244064E+03  0.77397924587E+03  0.00000000000E+00 0.  1.
         21    1    1    2  502  501  0.14245733390E-01 -0.10716558949E-01  0.49044428436E-01  0.52183728462E-01  0.00000000000E+00 0.  1.
<mgrwt>
<rscale>  1 0.64405854E+03</rscale>
<asrwt>0</asrwt>
<pdfrwt beam="1">  1        1 0.37728671E+00 0.64405854E+03</pdfrwt>
<pdfrwt beam="2">0</pdfrwt>
<totfact> 0.16886479E+00</totfact>
</mgrwt>
</event>
<event>
 6    1  0.7694636E-003  0.6498216E+03  0.7818608E-02  0.9807114E-01
          1   -1    0    0  502    0  0.00000000000E+00  0.00000000000E+00  0.10557441186E+03  0.10557441186E+03  0.00000000000E+00 0.  1.
         13   -1    0    0    0    0 -0.00000000000E+00 -0.00000000000E+00 -0.10000000000E+04  0.10000000000E+04  0.00000000000E+00 0.  1.
    9000005    2    1    2  501    0 -0.12277315870E-01  0.14509375623E-01 -0.89441553927E+03  0.11055529122E+04  0.64982157896E+03 0.  0.
         13    1    3    3    0    0 -0.21858436321E+02 -0.14460159306E+03 -0.94081410576E+03  0.95211270003E+03  0.00000000000E+00 0.  1.
          1    1    3    3  501    0  0.21846159005E+02  0.14461610243E+03  0.46398566491E+02  0.15344021220E+03  0.00000000000E+00 0.  1.
         21    1    1    2  502  501  0.12277315870E-01 -0.14509375623E-01 -0.10048871897E-01  0.21499634702E-01  0.00000000000E+00 0.  1.
<mgrwt>
<rscale>  1 0.64982158E+03</rscale>
<asrwt>0</asrwt>
<pdfrwt beam="1">  1        1 0.38390776E+00 0.64982158E+03</pdfrwt>
<pdfrwt beam="2">0</pdfrwt>
<totfact> 0.15770898E+00</totfact>
</mgrwt>
</event>
<event>
 6    1  0.7694636E-003  0.6467578E+03  0.7818608E-02  0.9812882E-01
          1   -1    0    0  502    0  0.00000000000E+00  0.00000000000E+00  0.10457895107E+03  0.10457895107E+03  0.00000000000E+00 0.  1.
         13   -1    0    0    0    0 -0.00000000000E+00 -0.00000000000E+00 -0.10000000000E+04  0.10000000000E+04  0.00000000000E+00 0.  1.
    9000005    2    1    2  501    0  0.11763033066E-03  0.12848947520E-03 -0.89542608060E+03  0.11045739164E+04  0.64675781476E+03 0.  0.
         13    1    3    3    0    0 -0.19285666722E+03  0.24332940885E+03 -0.60209323337E+03  0.67743572165E+03  0.00000000000E+00 0.  1.
          3    1    3    3  501    0  0.19285678485E+03 -0.24332928036E+03 -0.29333284723E+03  0.42713819474E+03  0.00000000000E+00 0.  1.
         21    1    1    2  502  501 -0.11763033065E-03 -0.12848947520E-03  0.50316668352E-02  0.50346814776E-02  0.00000000000E+00 0.  1.
<mgrwt>
<rscale>  1 0.64675781E+03</rscale>
<asrwt>0</asrwt>
<pdfrwt beam="1">  1        1 0.38028790E+00 0.64675781E+03</pdfrwt>
<pdfrwt beam="2">0</pdfrwt>
<totfact> 0.16371547E+00</totfact>
</mgrwt>
</event>
<event>
 6    1  0.7694636E-003  0.6507010E+03  0.7818608E-02  0.9805465E-01
          1   -1    0    0  502    0  0.00000000000E+00  0.00000000000E+00  0.10585381526E+03  0.10585381526E+03  0.00000000000E+00 0.  1.
         13   -1    0    0    0    0 -0.00000000000E+00 -0.00000000000E+00 -0.10000000000E+04  0.10000000000E+04  0.00000000000E+00 0.  1.
    9000005    2    1    2  501    0  0.13494217748E-02  0.82542373028E-03 -0.89414618605E+03  0.11058522334E+04  0.65070097596E+03 0.  0.
         13    1    3    3    0    0 -0.26379990620E+03  0.17619710067E+03 -0.32432229289E+03  0.45367472760E+03  0.00000000000E+00 0.  1.
          3    1    3    3  501    0  0.26380125562E+03 -0.17619627525E+03 -0.56982389316E+03  0.65217750581E+03  0.00000000000E+00 0.  1.
         21    1    1    2  502  501 -0.13494217748E-02 -0.82542373026E-03  0.13120082327E-05  0.15818549814E-02  0.00000000000E+00 0.  1.
<mgrwt>
<rscale>  1 0.65070098E+03</rscale>
<asrwt>0</asrwt>
<pdfrwt beam="1">  1        1 0.38492378E+00 0.65070098E+03</pdfrwt>
<pdfrwt beam="2">0</pdfrwt>
<totfact> 0.15606057E+00</totfact>
</mgrwt>
</event>
<event>
 6    1  0.7694636E-003  0.6439673E+03  0.7818608E-02  0.9818165E-01
          1   -1    0    0  502    0  0.00000000000E+00  0.00000000000E+00  0.10367348318E+03  0.10367348318E+03  0.00000000000E+00 0.  1.
         13   -1    0    0    0    0 -0.00000000000E+00 -0.00000000000E+00 -0.10000000000E+04  0.10000000000E+04  0.00000000000E+00 0.  1.
    9000005    2    1    2  501    0  0.10131139106E-04 -0.26374760012E-05 -0.89632652699E+03  0.11036734686E+04  0.64396729907E+03 0.  0.
         13    1    3    3    0    0  0.19132743278E+03  0.21243578360E+03 -0.19431248538E+03  0.34567685873E+03  0.00000000000E+00 0.  1.
          1    1    3    3  501    0 -0.19132742265E+03 -0.21243578624E+03 -0.70201404161E+03  0.75799660985E+03  0.00000000000E+00 0.  1.
         21    1    1    2  502  501 -0.10131139099E-04  0.26374760223E-05  0.10169966697E-04  0.14595358229E-04  0.00000000000E+00 0.  1.
<mgrwt>
<rscale>  1 0.64396730E+03</rscale>
<asrwt>0</asrwt>
<pdfrwt beam="1">  1        1 0.37699528E+00 0.64396730E+03</pdfrwt>
<pdfrwt beam="2">0</pdfrwt>
<totfact> 0.16936766E+00</totfact>
</mgrwt>
</event>
<event>
 6    1  0.7694636E-003  0.6493803E+03  0.7818608E-02  0.9807943E-01
          1   -1    0    0  502    0  0.00000000000E+00  0.00000000000E+00  0.10618771765E+03  0.10618771765E+03  0.00000000000E+00 0.  1.
         13   -1    0    0    0    0 -0.00000000000E+00 -0.00000000000E+00 -0.10000000000E+04  0.10000000000E+04  0.00000000000E+00 0.  1.
    9000005    2    1    2  501    0  0.18890550444E+00 -0.52872724004E-01 -0.89456234860E+03  0.11054124240E+04  0.64938031477E+03 0.  0.
         13    1    3    3    0    0  0.23992151082E+03  0.20210354841E+03 -0.59028496155E+03  0.66846429333E+03  0.00000000000E+00 0.  1.
          1    1    3    3  501    0 -0.23973260531E+03 -0.20215642113E+03 -0.30427738705E+03  0.43694813070E+03  0.00000000000E+00 0.  1.
         21    1    1    2  502  501 -0.18890550444E+00  0.52872724004E-01  0.75006624899E+00  0.77529361691E+00  0.00000000000E+00 0.  1.
<mgrwt>
<rscale>  1 0.64938034E+03</rscale>
<asrwt>0</asrwt>
<pdfrwt beam="1">  1        1 0.38613797E+00 0.64938034E+03</pdfrwt>
<pdfrwt beam="2">0</pdfrwt>
<totfact> 0.15417974E+00</totfact>
</mgrwt>
</event>
<event>
 6    1  0.7694636E-003  0.6656603E+03  0.7818608E-02  0.9777830E-01
          1   -1    0    0  502    0  0.00000000000E+00  0.00000000000E+00  0.11077590747E+03  0.11077590747E+03  0.00000000000E+00 0.  1.
         13   -1    0    0    0    0 -0.00000000000E+00 -0.00000000000E+00 -0.10000000000E+04  0.10000000000E+04  0.00000000000E+00 0.  1.
    9000005    2    1    2  501    0  0.61155725462E-06 -0.27096704542E-05 -0.88922409677E+03  0.11107759024E+04  0.66566028204E+03 0.  0.
         13    1    3    3    0    0  0.23761056633E+03 -0.84332219826E+02 -0.82061373021E+02  0.26515047327E+03  0.00000000000E+00 0.  1.
          1    1    3    3  501    0 -0.23761056572E+03  0.84332217117E+02 -0.80716272375E+03  0.84562542913E+03  0.00000000000E+00 0.  1.
         21    1    1    2  502  501 -0.61155725960E-06  0.27096704545E-05  0.42424231186E-05  0.50709437160E-05  0.00000000000E+00 0. -1.
<mgrwt>
<rscale>  1 0.66566028E+03</rscale>
<asrwt>0</asrwt>
<pdfrwt beam="1">  1        1 0.40282233E+00 0.66566028E+03</pdfrwt>
<pdfrwt beam="2">0</pdfrwt>
<totfact> 0.12957981E+00</totfact>
</mgrwt>
</event>
<event>
 6    1  0.7694636E-003  0.6489733E+03  0.7818608E-02  0.9808708E-01
          1   -1    0    0  502    0  0.00000000000E+00  0.00000000000E+00  0.10835801527E+03  0.10835801527E+03  0.00000000000E+00 0.  1.
         13   -1    0    0    0    0 -0.00000000000E+00 -0.00000000000E+00 -0.10000000000E+04  0.10000000000E+04  0.00000000000E+00 0.  1.
    9000005    2    1    2  501    0 -0.39631155327E+00 -0.11887669040E+00 -0.89469298488E+03  0.11052790875E+04  0.64897315261E+03 0.  0.
         13    1    3    3    0    0  0.13426271575E+03 -0.17220011915E+03 -0.38601166021E+02  0.22174175948E+03  0.00000000000E+00 0.  1.
          3    1    3    3  501    0 -0.13465902730E+03  0.17208124246E+03 -0.85609181886E+03  0.88353732799E+03  0.00000000000E+00 0.  1.
         21    1    1    2  502  501  0.39631155327E+00  0.11887669040E+00  0.30510001473E+01  0.30789278026E+01  0.00000000000E+00 0.  1.
<mgrwt>
<rscale>  1 0.64897328E+03</rscale>
<asrwt>0</asrwt>
<pdfrwt beam="1">  1        1 0.39402998E+00 0.64897328E+03</pdfrwt>
<pdfrwt beam="2">0</pdfrwt>
<totfact> 0.14225456E+00</totfact>
</mgrwt>
</event>
