<event>
 6    1  0.1171384E-002  0.6446428E+03  0.7818608E-02  0.9816884E-01
          1   -1    0    0  502    0  0.00000000000E+00  0.00000000000E+00  0.10397389915E+03  0.10397389915E+03  0.00000000000E+00 0.  1.
         13   -1    0    0    0    0 -0.00000000000E+00 -0.00000000000E+00 -0.10000000000E+04  0.10000000000E+04  0.00000000000E+00 0.  1.
    9000005    2    1    2  501    0  0.15418221737E-01 -0.14400589032E-01 -0.89610743439E+03  0.11038898739E+04  0.64464278424E+03 0.  0.
         13    1    3    3    0    0 -0.17667271117E+03  0.12322811075E+03 -0.85862218607E+03  0.88522905091E+03  0.00000000000E+00 0.  1.
          1    1    3    3  501    0  0.17668812939E+03 -0.12324251134E+03 -0.37485248320E+02  0.21866082299E+03  0.00000000000E+00 0.  1.
         21    1    1    2  502  501 -0.15418221737E-01  0.14400589032E-01  0.81333546540E-01  0.84025260004E-01  0.00000000000E+00 0.  1.
<mgrwt>
<rscale>  1 0.64464278E+03</rscale>
<asrwt>0</asrwt>
<pdfrwt beam="1">  1        1 0.37808770E+00 0.64464278E+03</pdfrwt>
<pdfrwt beam="2">0</pdfrwt>
<totfact> 0.16747977E+00</totfact>
</mgrwt>
</event>
<event>
 6    1  0.1171384E-002  0.6861435E+03  0.7818608E-02  0.9741227E-01
          1   -1    0    0  502    0  0.00000000000E+00  0.00000000000E+00  0.11769829838E+03  0.11769829838E+03  0.00000000000E+00 0.  1.
         13   -1    0    0    0    0 -0.00000000000E+00 -0.00000000000E+00 -0.10000000000E+04  0.10000000000E+04  0.00000000000E+00 0.  1.
    9000005    2    1    2  501    0 -0.67288681578E-05  0.12940335807E-05 -0.88230177960E+03  0.11176982201E+04  0.68614348420E+03 0.  0.
         13    1    3    3    0    0  0.25183922069E+03  0.16859341956E+03 -0.17924071860E+03  0.35209937432E+03  0.00000000000E+00 0.  1.
          1    1    3    3  501    0 -0.25183922742E+03 -0.16859341826E+03 -0.70306106101E+03  0.76559884577E+03  0.00000000000E+00 0.  1.
         21    1    1    2  502  501  0.67288681464E-05 -0.12940335854E-05  0.77983959854E-04  0.78284418526E-04  0.00000000000E+00 0. -1.
<mgrwt>
<rscale>  1 0.68614348E+03</rscale>
<asrwt>0</asrwt>
<pdfrwt beam="1">  1        1 0.42799471E+00 0.68614348E+03</pdfrwt>
<pdfrwt beam="2">0</pdfrwt>
<totfact> 0.99433464E-01</totfact>
</mgrwt>
</event>
<event>
 6    1  0.1171384E-002  0.6491361E+03  0.7818608E-02  0.9808402E-01
          1   -1    0    0  502    0  0.00000000000E+00  0.00000000000E+00  0.10568265436E+03  0.10568265436E+03  0.00000000000E+00 0.  1.
         13   -1    0    0    0    0 -0.00000000000E+00 -0.00000000000E+00 -0.10000000000E+04  0.10000000000E+04  0.00000000000E+00 0.  1.
    9000005    2    1    2  501    0 -0.31690343928E+00 -0.93783753953E-01 -0.89456397015E+03  0.11052702870E+04  0.64913604231E+03 0.  0.
         13    1    3    3    0    0  0.17839471741E+03 -0.23104762621E+03 -0.20580048927E+03  0.35715755929E+03  0.00000000000E+00 0.  1.
          3    1    3    3  501    0 -0.17871162085E+03  0.23095384246E+03 -0.68876348088E+03  0.74811272772E+03  0.00000000000E+00 0.  1.
         21    1    1    2  502  501  0.31690343928E+00  0.93783753953E-01  0.24662451753E+00  0.41236735441E+00  0.00000000000E+00 0. -1.
<mgrwt>
<rscale>  1 0.64913613E+03</rscale>
<asrwt>0</asrwt>
<pdfrwt beam="1">  1        1 0.38430137E+00 0.64913613E+03</pdfrwt>
<pdfrwt beam="2">0</pdfrwt>
<totfact> 0.15709817E+00</totfact>
</mgrwt>
</event>
<event>
 6    1  0.1171384E-002  0.6477511E+03  0.7818608E-02  0.9811008E-01
          1   -1    0    0  502    0  0.00000000000E+00  0.00000000000E+00  0.10489560857E+03  0.10489560857E+03  0.00000000000E+00 0.  1.
         13   -1    0    0    0    0 -0.00000000000E+00 -0.00000000000E+00 -0.10000000000E+04  0.10000000000E+04  0.00000000000E+00 0.  1.
    9000005    2    1    2  501    0 -0.84581388478E-04 -0.35856833364E-04 -0.89510460265E+03  0.11048953782E+04  0.64775114601E+03 0.  0.
         13    1    3    3    0    0  0.20874459548E+03 -0.15375597952E+03 -0.77866004967E+03  0.82068671266E+03  0.00000000000E+00 0.  1.
          1    1    3    3  501    0 -0.20874468007E+03  0.15375594366E+03 -0.11644455298E+03  0.28420866557E+03  0.00000000000E+00 0.  1.
         21    1    1    2  502  501  0.84581388499E-04  0.35856833374E-04  0.21122636414E-03  0.23033953349E-03  0.00000000000E+00 0. -1.
<mgrwt>
<rscale>  1 0.64775115E+03</rscale>
<asrwt>0</asrwt>
<pdfrwt beam="1">  1        1 0.38143938E+00 0.64775115E+03</pdfrwt>
<pdfrwt beam="2">0</pdfrwt>
<totfact> 0.16178102E+00</totfact>
</mgrwt>
</event>
<event>
 6    1  0.1171384E-002  0.6544214E+03  0.7818608E-02  0.9798518E-01
          1   -1    0    0  502    0  0.00000000000E+00  0.00000000000E+00  0.10706699644E+03  0.10706699644E+03  0.00000000000E+00 0.  1.
         13   -1    0    0    0    0 -0.00000000000E+00 -0.00000000000E+00 -0.10000000000E+04  0.10000000000E+04  0.00000000000E+00 0.  1.
    9000005    2    1    2  501    0 -0.15496814894E-03  0.42976926281E-03 -0.89293247361E+03  0.11070662967E+04  0.65442141084E+03 0.  0.
         13    1    3    3    0    0  0.44715957139E+02  0.19348086734E+03 -0.65257985262E+01  0.19868806934E+03  0.00000000000E+00 0.  1.
          3    1    3    3  501    0 -0.44716112107E+02 -0.19348043757E+03 -0.88640667508E+03  0.90837822741E+03  0.00000000000E+00 0.  1.
         21    1    1    2  502  501  0.15496814894E-03 -0.42976926281E-03 -0.52995208309E-03  0.69968990047E-03  0.00000000000E+00 0.  1.
<mgrwt>
<rscale>  1 0.65442141E+03</rscale>
<asrwt>0</asrwt>
<pdfrwt beam="1">  1        1 0.38933535E+00 0.65442141E+03</pdfrwt>
<pdfrwt beam="2">0</pdfrwt>
<totfact> 0.14909370E+00</totfact>
</mgrwt>
</event>
<event>
 6    1  0.1171384E-002  0.6638925E+03  0.7818608E-02  0.9781055E-01
          1   -1    0    0  502    0  0.00000000000E+00  0.00000000000E+00  0.11020119415E+03  0.11020119415E+03  0.00000000000E+00 0.  1.
         13   -1    0    0    0    0 -0.00000000000E+00 -0.00000000000E+00 -0.10000000000E+04  0.10000000000E+04  0.00000000000E+00 0.  1.
    9000005    2    1    2  501    0 -0.50133574469E-03 -0.22325214515E-03 -0.88981167996E+03  0.11101883083E+04  0.66389250198E+03 0.  0.
         13    1    3    3    0    0  0.62840759885E+02  0.45172926482E+02  0.94890754257E+02  0.12244921246E+03  0.00000000000E+00 0.  1.
          1    1    3    3  501    0 -0.62841261221E+02 -0.45173149734E+02 -0.98470243422E+03  0.98773909588E+03  0.00000000000E+00 0.  1.
         21    1    1    2  502  501  0.50133574469E-03  0.22325214516E-03  0.12874111824E-01  0.12885803596E-01  0.00000000000E+00 0.  1.
<mgrwt>
<rscale>  1 0.66389250E+03</rscale>
<asrwt>0</asrwt>
<pdfrwt beam="1">  1        1 0.40073246E+00 0.66389250E+03</pdfrwt>
<pdfrwt beam="2">0</pdfrwt>
<totfact> 0.13243726E+00</totfact>
</mgrwt>
</event>
<event>
 6    1  0.1171384E-002  0.6558733E+03  0.7818608E-02  0.9795820E-01
          1   -1    0    0  502    0  0.00000000000E+00  0.00000000000E+00  0.10754682315E+03  0.10754682315E+03  0.00000000000E+00 0.  1.
         13   -1    0    0    0    0 -0.00000000000E+00 -0.00000000000E+00 -0.10000000000E+04  0.10000000000E+04  0.00000000000E+00 0.  1.
    9000005    2    1    2  501    0 -0.15013386036E-02  0.15721074737E-02 -0.89245726233E+03  0.11075421953E+04  0.65587327233E+03 0.  0.
         13    1    3    3    0    0 -0.67270706768E+02  0.31604301428E+03 -0.35168793200E+03  0.47759076245E+03  0.00000000000E+00 0.  1.
          1    1    3    3  501    0  0.67269205430E+02 -0.31604144217E+03 -0.54076933033E+03  0.62995143289E+03  0.00000000000E+00 0.  1.
         21    1    1    2  502  501  0.15013386036E-02 -0.15721074737E-02  0.40854734376E-02  0.46278107914E-02  0.00000000000E+00 0.  1.
<mgrwt>
<rscale>  1 0.65587327E+03</rscale>
<asrwt>0</asrwt>
<pdfrwt beam="1">  1        1 0.39108018E+00 0.65587327E+03</pdfrwt>
<pdfrwt beam="2">0</pdfrwt>
<totfact> 0.14642106E+00</totfact>
</mgrwt>
</event>
<event>
 6    1  0.1171384E-002  0.6522553E+03  0.7818608E-02  0.9802556E-01
          1   -1    0    0  502    0  0.00000000000E+00  0.00000000000E+00  0.10636447882E+03  0.10636447882E+03  0.00000000000E+00 0.  1.
         13   -1    0    0    0    0 -0.00000000000E+00 -0.00000000000E+00 -0.10000000000E+04  0.10000000000E+04  0.00000000000E+00 0.  1.
    9000005    2    1    2  501    0  0.20484587708E-02 -0.57324356684E-02 -0.89363872292E+03  0.11063576007E+04  0.65225529784E+03 0.  0.
         13    1    3    3    0    0  0.26259445967E+03  0.99149567302E+02 -0.72847448915E+03  0.78068019591E+03  0.00000000000E+00 0.  1.
          1    1    3    3  501    0 -0.26259241121E+03 -0.99155299738E+02 -0.16516423376E+03  0.32567740481E+03  0.00000000000E+00 0.  1.
         21    1    1    2  502  501 -0.20484587708E-02  0.57324356684E-02  0.32017307777E-02  0.68780870888E-02  0.00000000000E+00 0.  1.
<mgrwt>
<rscale>  1 0.65225530E+03</rscale>
<asrwt>0</asrwt>
<pdfrwt beam="1">  1        1 0.38678074E+00 0.65225530E+03</pdfrwt>
<pdfrwt beam="2">0</pdfrwt>
<totfact> 0.15309149E+00</totfact>
</mgrwt>
</event>
<event>
 6    1  0.1171384E-002  0.6586514E+03  0.7818608E-02  0.9790679E-01
          1   -1    0    0  502    0  0.00000000000E+00  0.00000000000E+00  0.10852829486E+03  0.10852829486E+03  0.00000000000E+00 0.  1.
         13   -1    0    0    0    0 -0.00000000000E+00 -0.00000000000E+00 -0.10000000000E+04  0.10000000000E+04  0.00000000000E+00 0.  1.
    9000005    2    1    2  501    0  0.16777841522E-02  0.46944258963E-03 -0.89154455630E+03  0.11084554229E+04  0.65865144698E+03 0.  0.
         13    1    3    3    0    0  0.15389630339E+03 -0.17901022450E+03 -0.83220953900E+03  0.86504418932E+03  0.00000000000E+00 0.  1.
          1    1    3    3  501    0 -0.15389462561E+03  0.17901069394E+03 -0.59335017298E+02  0.24341123354E+03  0.00000000000E+00 0.  1.
         21    1    1    2  502  501 -0.16777841522E-02 -0.46944258963E-03  0.72851163214E-01  0.72871992684E-01  0.00000000000E+00 0. -1.
<mgrwt>
<rscale>  1 0.65865145E+03</rscale>
<asrwt>0</asrwt>
<pdfrwt beam="1">  1        1 0.39464918E+00 0.65865145E+03</pdfrwt>
<pdfrwt beam="2">0</pdfrwt>
<totfact> 0.14110004E+00</totfact>
</mgrwt>
</event>
<event>
 6    1  0.1171384E-002  0.6497691E+03  0.7818608E-02  0.9807212E-01
          1   -1    0    0  502    0  0.00000000000E+00  0.00000000000E+00  0.10555021125E+03  0.10555021125E+03  0.00000000000E+00 0.  1.
         13   -1    0    0    0    0 -0.00000000000E+00 -0.00000000000E+00 -0.10000000000E+04  0.10000000000E+04  0.00000000000E+00 0.  1.
    9000005    2    1    2  501    0  0.66564492101E-04  0.11740241445E-03 -0.89444999437E+03  0.11055499653E+04  0.64976913850E+03 0.  0.
         13    1    3    3    0    0 -0.28653950835E+03 -0.14602354533E+03 -0.52560587628E+03  0.61618934007E+03  0.00000000000E+00 0.  1.
          3    1    3    3  501    0  0.28653957492E+03  0.14602366273E+03 -0.36884411809E+03  0.48936062523E+03  0.00000000000E+00 0.  1.
         21    1    1    2  502  501 -0.66564492123E-04 -0.11740241443E-03  0.20561567934E-03  0.24595114579E-03  0.00000000000E+00 0.  1.
<mgrwt>
<rscale>  1 0.64976914E+03</rscale>
<asrwt>0</asrwt>
<pdfrwt beam="1">  1        1 0.38381976E+00 0.64976914E+03</pdfrwt>
<pdfrwt beam="2">0</pdfrwt>
<totfact> 0.15785184E+00</totfact>
</mgrwt>
</event>
<event>
 6    1  0.1171384E-002  0.6507528E+03  0.7818608E-02  0.9805368E-01
          1   -1    0    0  502    0  0.00000000000E+00  0.00000000000E+00  0.10593223985E+03  0.10593223985E+03  0.00000000000E+00 0.  1.
         13   -1    0    0    0    0 -0.00000000000E+00 -0.00000000000E+00 -0.10000000000E+04  0.10000000000E+04  0.00000000000E+00 0.  1.
    9000005    2    1    2  501    0 -0.17951934151E-02 -0.94734044637E-03 -0.89413018608E+03  0.11058697809E+04  0.65075278157E+03 0.  0.
         13    1    3    3    0    0  0.29138638799E+01 -0.31469453516E+03 -0.58749731168E+03  0.66647898113E+03  0.00000000000E+00 0.  1.
          3    1    3    3  501    0 -0.29156590733E+01  0.31469358782E+03 -0.30663287440E+03  0.43939079980E+03  0.00000000000E+00 0.  1.
         21    1    1    2  502  501  0.17951934151E-02  0.94734044636E-03  0.62425923895E-01  0.62458915676E-01  0.00000000000E+00 0.  1.
<mgrwt>
<rscale>  1 0.65075278E+03</rscale>
<asrwt>0</asrwt>
<pdfrwt beam="1">  1        1 0.38520896E+00 0.65075278E+03</pdfrwt>
<pdfrwt beam="2">0</pdfrwt>
<totfact> 0.15560644E+00</totfact>
</mgrwt>
</event>
<event>
 6    1  0.1171384E-002  0.6498927E+03  0.7818608E-02  0.9806981E-01
          1   -1    0    0  502    0  0.00000000000E+00  0.00000000000E+00  0.10559171784E+03  0.10559171784E+03  0.00000000000E+00 0.  1.
         13   -1    0    0    0    0 -0.00000000000E+00 -0.00000000000E+00 -0.10000000000E+04  0.10000000000E+04  0.00000000000E+00 0.  1.
    9000005    2    1    2  501    0  0.21846448126E-03 -0.64172157749E-04 -0.89440986145E+03  0.11055901222E+04  0.64989269736E+03 0.  0.
         13    1    3    3    0    0  0.21356782801E+03  0.24132538929E+03 -0.51818759301E+03  0.61021925750E+03  0.00000000000E+00 0.  1.
          3    1    3    3  501    0 -0.21356760955E+03 -0.24132545346E+03 -0.37622226845E+03  0.49537086472E+03  0.00000000000E+00 0.  1.
         21    1    1    2  502  501 -0.21846448126E-03  0.64172157754E-04  0.15792933117E-02  0.15956228125E-02  0.00000000000E+00 0.  1.
<mgrwt>
<rscale>  1 0.64989270E+03</rscale>
<asrwt>0</asrwt>
<pdfrwt beam="1">  1        1 0.38397069E+00 0.64989270E+03</pdfrwt>
<pdfrwt beam="2">0</pdfrwt>
<totfact> 0.15760591E+00</totfact>
</mgrwt>
</event>
<event>
 6    1  0.1171384E-002  0.6472792E+03  0.7818608E-02  0.9811898E-01
          1   -1    0    0  502    0  0.00000000000E+00  0.00000000000E+00  0.10474888940E+03  0.10474888940E+03  0.00000000000E+00 0.  1.
         13   -1    0    0    0    0 -0.00000000000E+00 -0.00000000000E+00 -0.10000000000E+04  0.10000000000E+04  0.00000000000E+00 0.  1.
    9000005    2    1    2  501    0  0.20509091394E-03 -0.10434551900E-03 -0.89525740605E+03  0.11047425897E+04  0.64727920291E+03 0.  0.
         13    1    3    3    0    0 -0.30343618045E+03 -0.22750305596E+02 -0.25948763364E+03  0.39990614401E+03  0.00000000000E+00 0.  1.
          1    1    3    3  501    0  0.30343638554E+03  0.22750201251E+02 -0.63576977241E+03  0.70483644573E+03  0.00000000000E+00 0.  1.
         21    1    1    2  502  501 -0.20509091391E-03  0.10434551900E-03  0.62954469613E-02  0.62996509993E-02  0.00000000000E+00 0. -1.
<mgrwt>
<rscale>  1 0.64727920E+03</rscale>
<asrwt>0</asrwt>
<pdfrwt beam="1">  1        1 0.38090586E+00 0.64727920E+03</pdfrwt>
<pdfrwt beam="2">0</pdfrwt>
<totfact> 0.16267495E+00</totfact>
</mgrwt>
</event>
<event>
 6    1  0.1171384E-002  0.6305799E+03  0.7818608E-02  0.9843918E-01
          1   -1    0    0  502    0  0.00000000000E+00  0.00000000000E+00  0.10044724860E+03  0.10044724860E+03  0.00000000000E+00 0.  1.
         13   -1    0    0    0    0 -0.00000000000E+00 -0.00000000000E+00 -0.10000000000E+04  0.10000000000E+04  0.00000000000E+00 0.  1.
    9000005    2    1    2  501    0  0.48174209167E-01  0.11695655182E+00 -0.90058800638E+03  0.10994042949E+04  0.63057991593E+03 0.  0.
         13    1    3    3    0    0  0.28778929324E+03 -0.69168856742E+02 -0.63974992153E+03  0.70490209969E+03  0.00000000000E+00 0.  1.
          3    1    3    3  501    0 -0.28774111903E+03  0.69285813294E+02 -0.26083808485E+03  0.39450219519E+03  0.00000000000E+00 0.  1.
         21    1    1    2  502  501 -0.48174209167E-01 -0.11695655182E+00  0.10352549833E+01  0.10429537237E+01  0.00000000000E+00 0.  1.
<mgrwt>
<rscale>  1 0.63057993E+03</rscale>
<asrwt>0</asrwt>
<pdfrwt beam="1">  1        1 0.36526349E+00 0.63057993E+03</pdfrwt>
<pdfrwt beam="2">0</pdfrwt>
<totfact> 0.19117940E+00</totfact>
</mgrwt>
</event>
<event>
 6    1  0.1171384E-002  0.6580597E+03  0.7818608E-02  0.9791772E-01
          1   -1    0    0  502    0  0.00000000000E+00  0.00000000000E+00  0.10962735826E+03  0.10962735826E+03  0.00000000000E+00 0.  1.
         13   -1    0    0    0    0 -0.00000000000E+00 -0.00000000000E+00 -0.10000000000E+04  0.10000000000E+04  0.00000000000E+00 0.  1.
    9000005    2    1    2  501    0  0.12544756883E+01 -0.35195092230E-01 -0.89141243159E+03  0.11079976003E+04  0.65805849603E+03 0.  0.
         13    1    3    3    0    0 -0.20201343370E+03 -0.22490653902E+03 -0.22812083915E+03  0.37872350857E+03  0.00000000000E+00 0.  1.
          3    1    3    3  501    0  0.20326790939E+03  0.22487134393E+03 -0.66329159245E+03  0.72927409177E+03  0.00000000000E+00 0.  1.
         21    1    1    2  502  501 -0.12544756883E+01  0.35195092230E-01  0.10397898509E+01  0.16297579210E+01  0.00000000000E+00 0.  1.
<mgrwt>
<rscale>  1 0.65805969E+03</rscale>
<asrwt>0</asrwt>
<pdfrwt beam="1">  1        1 0.39864578E+00 0.65805969E+03</pdfrwt>
<pdfrwt beam="2">0</pdfrwt>
<totfact> 0.13545279E+00</totfact>
</mgrwt>
</event>
<event>
 6    1  0.1171384E-002  0.6495624E+03  0.7818608E-02  0.9807601E-01
          1   -1    0    0  502    0  0.00000000000E+00  0.00000000000E+00  0.10576641299E+03  0.10576641299E+03  0.00000000000E+00 0.  1.
         13   -1    0    0    0    0 -0.00000000000E+00 -0.00000000000E+00 -0.10000000000E+04  0.10000000000E+04  0.00000000000E+00 0.  1.
    9000005    2    1    2  501    0 -0.36682663124E-01  0.18677363686E-01 -0.89451552087E+03  0.11054814899E+04  0.64956239558E+03 0.  0.
         13    1    3    3    0    0 -0.30604790997E+02 -0.29095341598E+03 -0.68725668438E+03  0.74693526743E+03  0.00000000000E+00 0.  1.
          1    1    3    3  501    0  0.30568108333E+02  0.29097209334E+03 -0.20725883649E+03  0.35854622248E+03  0.00000000000E+00 0.  1.
         21    1    1    2  502  501  0.36682663124E-01 -0.18677363686E-01  0.28193386426E+00  0.28492308700E+00  0.00000000000E+00 0.  1.
<mgrwt>
<rscale>  1 0.64956240E+03</rscale>
<asrwt>0</asrwt>
<pdfrwt beam="1">  1        1 0.38460595E+00 0.64956240E+03</pdfrwt>
<pdfrwt beam="2">0</pdfrwt>
<totfact> 0.15659941E+00</totfact>
</mgrwt>
</event>
<event>
 6    1  0.1171384E-002  0.6724667E+03  0.7818608E-02  0.9765512E-01
          1   -1    0    0  502    0  0.00000000000E+00  0.00000000000E+00  0.11305577675E+03  0.11305577675E+03  0.00000000000E+00 0.  1.
         13   -1    0    0    0    0 -0.00000000000E+00 -0.00000000000E+00 -0.10000000000E+04  0.10000000000E+04  0.00000000000E+00 0.  1.
    9000005    2    1    2  501    0 -0.25089726648E-04 -0.10287018492E-03 -0.88694713051E+03  0.11130528676E+04  0.67246670821E+03 0.  0.
         13    1    3    3    0    0  0.30317807199E+03 -0.14104282140E+03 -0.38512165877E+03  0.51002814908E+03  0.00000000000E+00 0.  1.
          3    1    3    3  501    0 -0.30317809708E+03  0.14104271853E+03 -0.50182547174E+03  0.60302471848E+03  0.00000000000E+00 0.  1.
         21    1    1    2  502  501  0.25089726627E-04  0.10287018493E-03  0.29072634256E-02  0.29091910208E-02  0.00000000000E+00 0.  1.
<mgrwt>
<rscale>  1 0.67246671E+03</rscale>
<asrwt>0</asrwt>
<pdfrwt beam="1">  1        1 0.41111278E+00 0.67246671E+03</pdfrwt>
<pdfrwt beam="2">0</pdfrwt>
<totfact> 0.11881163E+00</totfact>
</mgrwt>
</event>
<event>
 6    1  0.1171384E-002  0.6428908E+03  0.7818608E-02  0.9820211E-01
          1   -1    0    0  502    0  0.00000000000E+00  0.00000000000E+00  0.10332876744E+03  0.10332876744E+03  0.00000000000E+00 0.  1.
         13   -1    0    0    0    0 -0.00000000000E+00 -0.00000000000E+00 -0.10000000000E+04  0.10000000000E+04  0.00000000000E+00 0.  1.
    9000005    2    1    2  501    0  0.13650769853E-03  0.10103318090E-04 -0.89667285235E+03  0.11033271419E+04  0.64289079777E+03 0.  0.
         13    1    3    3    0    0  0.22226831155E+03  0.15514308959E+03 -0.74486926266E+03  0.79265553617E+03  0.00000000000E+00 0.  1.
          1    1    3    3  501    0 -0.22226817504E+03 -0.15514307948E+03 -0.15180358969E+03  0.31067160570E+03  0.00000000000E+00 0.  1.
         21    1    1    2  502  501 -0.13650769853E-03 -0.10103318097E-04  0.16197932203E-02  0.16255665183E-02  0.00000000000E+00 0. -1.
<mgrwt>
<rscale>  1 0.64289080E+03</rscale>
<asrwt>0</asrwt>
<pdfrwt beam="1">  1        1 0.37574176E+00 0.64289080E+03</pdfrwt>
<pdfrwt beam="2">0</pdfrwt>
<totfact> 0.17156841E+00</totfact>
</mgrwt>
</event>
<event>
 6    1  0.1171384E-002  0.6432605E+03  0.7818608E-02  0.9819508E-01
          1   -1    0    0  502    0  0.00000000000E+00  0.00000000000E+00  0.10344606072E+03  0.10344606072E+03  0.00000000000E+00 0.  1.
         13   -1    0    0    0    0 -0.00000000000E+00 -0.00000000000E+00 -0.10000000000E+04  0.10000000000E+04  0.00000000000E+00 0.  1.
    9000005    2    1    2  501    0 -0.10827838764E-04 -0.60863159490E-05 -0.89655397242E+03  0.11034460253E+04  0.64326052681E+03 0.  0.
         13    1    3    3    0    0  0.25655848346E+03 -0.80108091027E+02 -0.14524639781E+03  0.30550953792E+03  0.00000000000E+00 0.  1.
          3    1    3    3  501    0 -0.25655849429E+03  0.80108084941E+02 -0.75130757461E+03  0.79793648740E+03  0.00000000000E+00 0.  1.
         21    1    1    2  502  501  0.10827838783E-04  0.60863159522E-05  0.33143267132E-04  0.35394370891E-04  0.00000000000E+00 0.  1.
<mgrwt>
<rscale>  1 0.64326053E+03</rscale>
<asrwt>0</asrwt>
<pdfrwt beam="1">  1        1 0.37616829E+00 0.64326053E+03</pdfrwt>
<pdfrwt beam="2">0</pdfrwt>
<totfact> 0.17081643E+00</totfact>
</mgrwt>
</event>
<event>
 6    1  0.1171384E-002  0.6590246E+03  0.7818608E-02  0.9789991E-01
          1   -1    0    0  502    0  0.00000000000E+00  0.00000000000E+00  0.11906177875E+03  0.11906177875E+03  0.00000000000E+00 0.  1.
         13   -1    0    0    0    0 -0.00000000000E+00 -0.00000000000E+00 -0.10000000000E+04  0.10000000000E+04  0.00000000000E+00 0.  1.
    9000005    2    1    2  501    0  0.45127867068E+00 -0.46509774047E+00 -0.89141053057E+03  0.11085694372E+04  0.65902431150E+03 0.  0.
         13    1    3    3    0    0 -0.21854125933E+03 -0.18089231675E+02 -0.32109292535E+02  0.22162695910E+03  0.00000000000E+00 0.  1.
          3    1    3    3  501    0  0.21899253800E+03  0.17624133934E+02 -0.85930123804E+03  0.88694247812E+03  0.00000000000E+00 0.  1.
         21    1    1    2  502  501 -0.45127867068E+00  0.46509774047E+00  0.10472309324E+02  0.10492341536E+02  0.00000000000E+00 0. -1.
<mgrwt>
<rscale>  1 0.65902463E+03</rscale>
<asrwt>0</asrwt>
<pdfrwt beam="1">  1        1 0.43295284E+00 0.65902463E+03</pdfrwt>
<pdfrwt beam="2">0</pdfrwt>
<totfact> 0.94908399E-01</totfact>
</mgrwt>
</event>
<event>
 6    1  0.1171384E-002  0.6082881E+03  0.7818608E-02  0.9888358E-01
          1   -1    0    0  502    0  0.00000000000E+00  0.00000000000E+00  0.92504281260E+02  0.92504281260E+02  0.00000000000E+00 0.  1.
         13   -1    0    0    0    0 -0.00000000000E+00 -0.00000000000E+00 -0.10000000000E+04  0.10000000000E+04  0.00000000000E+00 0.  1.
    9000005    2    1    2  501    0 -0.16462576915E-03  0.69576095427E-04 -0.90749637147E+03  0.10925036045E+04  0.60828814030E+03 0.  0.
         13    1    3    3    0    0 -0.30500976435E+02  0.12823396087E+03  0.38538823830E+02  0.13732989196E+03  0.00000000000E+00 0.  1.
          1    1    3    3  501    0  0.30500811810E+02 -0.12823389129E+03 -0.94603519530E+03  0.95517371255E+03  0.00000000000E+00 0.  1.
         21    1    1    2  502  501  0.16462576915E-03 -0.69576095430E-04  0.65272726788E-03  0.67675354684E-03  0.00000000000E+00 0.  1.
<mgrwt>
<rscale>  1 0.60828814E+03</rscale>
<asrwt>0</asrwt>
<pdfrwt beam="1">  1        1 0.33637991E+00 0.60828814E+03</pdfrwt>
<pdfrwt beam="2">0</pdfrwt>
<totfact> 0.25649758E+00</totfact>
</mgrwt>
</event>
<event>
 6    1  0.1171384E-002  0.6620713E+03  0.7818608E-02  0.9784388E-01
          3   -1    0    0  502    0  0.00000000000E+00  0.00000000000E+00  0.11184632291E+03  0.11184632291E+03  0.00000000000E+00 0.  1.
         13   -1    0    0    0    0 -0.00000000000E+00 -0.00000000000E+00 -0.10000000000E+04  0.10000000000E+04  0.00000000000E+00 0.  1.
    9000005    2    1    2  501    0 -0.44294892596E-01  0.22646253056E-01 -0.89041509340E+03  0.11095843595E+04  0.66207130261E+03 0.  0.
         13    1    3    3    0    0  0.53572130919E+01  0.29722464320E+03 -0.68935419352E+03  0.75071991606E+03  0.00000000000E+00 0.  1.
          1    1    3    3  501    0 -0.54015079845E+01 -0.29720199694E+03 -0.20106089988E+03  0.35886444340E+03  0.00000000000E+00 0.  1.
         21    1    1    2  502  501  0.44294892596E-01 -0.22646253056E-01  0.22614163112E+01  0.22619634442E+01  0.00000000000E+00 0. -1.
<mgrwt>
<rscale>  1 0.66207130E+03</rscale>
<asrwt>0</asrwt>
<pdfrwt beam="1">  1        3 0.40671476E+00 0.66207130E+03</pdfrwt>
<pdfrwt beam="2">0</pdfrwt>
<totfact> 0.54523783E-02</totfact>
</mgrwt>
</event>
<event>
 6    1  0.1171384E-002  0.6440600E+03  0.7818608E-02  0.9817990E-01
          1   -1    0    0  502    0  0.00000000000E+00  0.00000000000E+00  0.10707826455E+03  0.10707826455E+03  0.00000000000E+00 0.  1.
         13   -1    0    0    0    0 -0.00000000000E+00 -0.00000000000E+00 -0.10000000000E+04  0.10000000000E+04  0.00000000000E+00 0.  1.
    9000005    2    1    2  501    0 -0.16391445360E+01  0.89781245605E+01 -0.87040772090E+03  0.10827847599E+04  0.64399529673E+03 0.  0.
         13    1    3    3    0    0 -0.17112512430E+03 -0.24952565743E+03 -0.26150696614E+03  0.39991593520E+03  0.00000000000E+00 0.  1.
          3    1    3    3  501    0  0.16948597977E+03  0.25850378199E+03 -0.60890075476E+03  0.68286882473E+03  0.00000000000E+00 0.  1.
         21    1    1    2  502  501  0.16391445360E+01 -0.89781245605E+01 -0.22514014552E+02  0.24293504619E+02  0.00000000000E+00 0.  1.
<mgrwt>
<rscale>  1 0.64405996E+03</rscale>
<asrwt>0</asrwt>
<pdfrwt beam="1">  1        1 0.38937633E+00 0.64405996E+03</pdfrwt>
<pdfrwt beam="2">0</pdfrwt>
<totfact> 0.14931973E+00</totfact>
</mgrwt>
</event>
<event>
 6    1  0.1171384E-002  0.6683857E+03  0.7818608E-02  0.9772879E-01
          1   -1    0    0  502    0  0.00000000000E+00  0.00000000000E+00  0.11168552040E+03  0.11168552040E+03  0.00000000000E+00 0.  1.
         13   -1    0    0    0    0 -0.00000000000E+00 -0.00000000000E+00 -0.10000000000E+04  0.10000000000E+04  0.00000000000E+00 0.  1.
    9000005    2    1    2  501    0  0.29249275951E-03 -0.80018004354E-04 -0.88831511408E+03  0.11116848172E+04  0.66838566026E+03 0.  0.
         13    1    3    3    0    0 -0.20277483514E+03 -0.15847712382E+03 -0.89563078972E+02  0.27249619750E+03  0.00000000000E+00 0.  1.
          3    1    3    3  501    0  0.20277512763E+03  0.15847704380E+03 -0.79875203511E+03  0.83918861967E+03  0.00000000000E+00 0.  1.
         21    1    1    2  502  501 -0.29249275952E-03  0.80018004352E-04  0.63447869250E-03  0.70321981388E-03  0.00000000000E+00 0.  1.
<mgrwt>
<rscale>  1 0.66838566E+03</rscale>
<asrwt>0</asrwt>
<pdfrwt beam="1">  1        1 0.40613002E+00 0.66838566E+03</pdfrwt>
<pdfrwt beam="2">0</pdfrwt>
<totfact> 0.12517754E+00</totfact>
</mgrwt>
</event>
<event>
 6    1  0.1171384E-002  0.6631481E+03  0.7818608E-02  0.9782416E-01
          1   -1    0    0  502    0  0.00000000000E+00  0.00000000000E+00  0.11254274739E+03  0.11254274739E+03  0.00000000000E+00 0.  1.
         13   -1    0    0    0    0 -0.00000000000E+00 -0.00000000000E+00 -0.10000000000E+04  0.10000000000E+04  0.00000000000E+00 0.  1.
    9000005    2    1    2  501    0  0.13644985729E+01  0.13115274939E+01 -0.88967083288E+03  0.11096303775E+04  0.66314538515E+03 0.  0.
         13    1    3    3    0    0  0.13138546724E+03  0.82304292286E+02  0.45832355515E+02  0.16166861892E+03  0.00000000000E+00 0.  1.
          1    1    3    3  501    0 -0.13002096867E+03 -0.80992764792E+02 -0.93550318840E+03  0.94796175859E+03  0.00000000000E+00 0.  1.
         21    1    1    2  502  501 -0.13644985729E+01 -0.13115274939E+01  0.22135802778E+01  0.29123698888E+01  0.00000000000E+00 0.  1.
<mgrwt>
<rscale>  1 0.66314809E+03</rscale>
<asrwt>0</asrwt>
<pdfrwt beam="1">  1        1 0.40924722E+00 0.66314809E+03</pdfrwt>
<pdfrwt beam="2">0</pdfrwt>
<totfact> 0.12133739E+00</totfact>
</mgrwt>
</event>
<event>
 6    1  0.1171384E-002  0.6565252E+03  0.7818608E-02  0.9794612E-01
          1   -1    0    0  502    0  0.00000000000E+00  0.00000000000E+00  0.10776609794E+03  0.10776609794E+03  0.00000000000E+00 0.  1.
         13   -1    0    0    0    0 -0.00000000000E+00 -0.00000000000E+00 -0.10000000000E+04  0.10000000000E+04  0.00000000000E+00 0.  1.
    9000005    2    1    2  501    0  0.70039378236E-02 -0.64733952707E-02 -0.89224103219E+03  0.11077541900E+04  0.65652516012E+03 0.  0.
         13    1    3    3    0    0  0.96264547296E+02 -0.30936831972E+03 -0.53514411730E+03  0.62558360480E+03  0.00000000000E+00 0.  1.
          3    1    3    3  501    0 -0.96257543358E+02  0.30936184633E+03 -0.35709691489E+03  0.48217058521E+03  0.00000000000E+00 0.  1.
         21    1    1    2  502  501 -0.70039378236E-02  0.64733952707E-02  0.71301345246E-02  0.11907930538E-01  0.00000000000E+00 0.  1.
<mgrwt>
<rscale>  1 0.65652516E+03</rscale>
<asrwt>0</asrwt>
<pdfrwt beam="1">  1        1 0.39187755E+00 0.65652516E+03</pdfrwt>
<pdfrwt beam="2">0</pdfrwt>
<totfact> 0.14521519E+00</totfact>
</mgrwt>
</event>
<event>
 6    1  0.1171384E-002  0.6502483E+03  0.7818608E-02  0.9806313E-01
          1   -1    0    0  502    0  0.00000000000E+00  0.00000000000E+00  0.10736881707E+03  0.10736881707E+03  0.00000000000E+00 0.  1.
         13   -1    0    0    0    0 -0.00000000000E+00 -0.00000000000E+00 -0.10000000000E+04  0.10000000000E+04  0.00000000000E+00 0.  1.
    9000005    2    1    2  501    0  0.22561528659E+01 -0.26191045755E+01 -0.89200619582E+03  0.11038559061E+04  0.65023907768E+03 0.  0.
         13    1    3    3    0    0 -0.18840045766E+03  0.63182153224E+02 -0.87961746752E+03  0.90178356943E+03  0.00000000000E+00 0.  1.
          1    1    3    3  501    0  0.19065661052E+03 -0.65801257800E+02 -0.12388728304E+02  0.20207233668E+03  0.00000000000E+00 0.  1.
         21    1    1    2  502  501 -0.22561528659E+01  0.26191045755E+01 -0.62498710415E+00  0.35129109599E+01  0.00000000000E+00 0.  1.
<mgrwt>
<rscale>  1 0.65024827E+03</rscale>
<asrwt>0</asrwt>
<pdfrwt beam="1">  1        1 0.39043289E+00 0.65024827E+03</pdfrwt>
<pdfrwt beam="2">0</pdfrwt>
<totfact> 0.14754679E+00</totfact>
</mgrwt>
</event>
<event>
 6    1  0.1171384E-002  0.6548522E+03  0.7818608E-02  0.9797717E-01
          1   -1    0    0  502    0  0.00000000000E+00  0.00000000000E+00  0.10721029426E+03  0.10721029426E+03  0.00000000000E+00 0.  1.
         13   -1    0    0    0    0 -0.00000000000E+00 -0.00000000000E+00 -0.10000000000E+04  0.10000000000E+04  0.00000000000E+00 0.  1.
    9000005    2    1    2  501    0 -0.84538604453E-03  0.21233718375E-02 -0.89279153776E+03  0.11072073652E+04  0.65485221199E+03 0.  0.
         13    1    3    3    0    0 -0.40676526019E+02 -0.32335785876E+03 -0.49965563197E+03  0.59654893776E+03  0.00000000000E+00 0.  1.
          3    1    3    3  501    0  0.40675680633E+02  0.32335998213E+03 -0.39313590579E+03  0.51065842739E+03  0.00000000000E+00 0.  1.
         21    1    1    2  502  501  0.84538604453E-03 -0.21233718375E-02  0.18320193486E-02  0.29291091509E-02  0.00000000000E+00 0. -1.
<mgrwt>
<rscale>  1 0.65485221E+03</rscale>
<asrwt>0</asrwt>
<pdfrwt beam="1">  1        1 0.38985644E+00 0.65485221E+03</pdfrwt>
<pdfrwt beam="2">0</pdfrwt>
<totfact> 0.14829080E+00</totfact>
</mgrwt>
</event>
<event>
 6    1  0.1171384E-002  0.5929290E+03  0.7818608E-02  0.9920186E-01
          1   -1    0    0  502    0  0.00000000000E+00  0.00000000000E+00  0.87910244716E+02  0.87910244716E+02  0.00000000000E+00 0.  1.
         13   -1    0    0    0    0 -0.00000000000E+00 -0.00000000000E+00 -0.10000000000E+04  0.10000000000E+04  0.00000000000E+00 0.  1.
    9000005    2    1    2  501    0 -0.20219323464E-02 -0.96215721828E-03 -0.91210872977E+03  0.10878911386E+04  0.59292899612E+03 0.  0.
         13    1    3    3    0    0  0.20029823939E+03 -0.15804624101E+03 -0.73305576132E+03  0.77618860350E+03  0.00000000000E+00 0.  1.
          3    1    3    3  501    0 -0.20030026133E+03  0.15804527885E+03 -0.17905296845E+03  0.31170253506E+03  0.00000000000E+00 0.  1.
         21    1    1    2  502  501  0.20219323464E-02  0.96215721828E-03  0.18974485658E-01  0.19106152488E-01  0.00000000000E+00 0.  1.
<mgrwt>
<rscale>  1 0.59292900E+03</rscale>
<asrwt>0</asrwt>
<pdfrwt beam="1">  1        1 0.31967429E+00 0.59292900E+03</pdfrwt>
<pdfrwt beam="2">0</pdfrwt>
<totfact> 0.30380985E+00</totfact>
</mgrwt>
</event>
<event>
 6    1  0.1171384E-002  0.6636461E+03  0.7818608E-02  0.9781505E-01
          1   -1    0    0  502    0  0.00000000000E+00  0.00000000000E+00  0.11097938059E+03  0.11097938059E+03  0.00000000000E+00 0.  1.
         13   -1    0    0    0    0 -0.00000000000E+00 -0.00000000000E+00 -0.10000000000E+04  0.10000000000E+04  0.00000000000E+00 0.  1.
    9000005    2    1    2  501    0  0.16954624775E-01  0.18077592334E-02 -0.88989335516E+03  0.11101064783E+04  0.66364614767E+03 0.  0.
         13    1    3    3    0    0  0.32278521253E+03 -0.23184207208E+02 -0.32221713732E+03  0.45667459364E+03  0.00000000000E+00 0.  1.
          3    1    3    3  501    0 -0.32276825790E+03  0.23186014967E+02 -0.56767621784E+03  0.65343188466E+03  0.00000000000E+00 0.  1.
         21    1    1    2  502  501 -0.16954624775E-01 -0.18077592334E-02  0.87273574183E+00  0.87290228683E+00  0.00000000000E+00 0. -1.
<mgrwt>
<rscale>  1 0.66364615E+03</rscale>
<asrwt>0</asrwt>
<pdfrwt beam="1">  1        1 0.40356223E+00 0.66364615E+03</pdfrwt>
<pdfrwt beam="2">0</pdfrwt>
<totfact> 0.12864596E+00</totfact>
</mgrwt>
</event>
<event>
 6    1  0.1171384E-002  0.6771661E+03  0.7818608E-02  0.9757098E-01
          1   -1    0    0  502    0  0.00000000000E+00  0.00000000000E+00  0.11709386658E+03  0.11709386658E+03  0.00000000000E+00 0.  1.
         13   -1    0    0    0    0 -0.00000000000E+00 -0.00000000000E+00 -0.10000000000E+04  0.10000000000E+04  0.00000000000E+00 0.  1.
    9000005    2    1    2  501    0 -0.35150408661E+00 -0.59279778319E-01 -0.88534709917E+03  0.11146270097E+04  0.67716597495E+03 0.  0.
         13    1    3    3    0    0 -0.94973898160E+01  0.78668270171E+02 -0.98450359922E+03  0.98768731592E+03  0.00000000000E+00 0.  1.
          3    1    3    3  501    0  0.91458857294E+01 -0.78727549949E+02  0.99156500059E+02  0.12693969375E+03  0.00000000000E+00 0.  1.
         21    1    1    2  502  501  0.35150408661E+00  0.59279778319E-01  0.24409657418E+01  0.24668569005E+01  0.00000000000E+00 0.  1.
<mgrwt>
<rscale>  1 0.67716607E+03</rscale>
<asrwt>0</asrwt>
<pdfrwt beam="1">  1        1 0.42579678E+00 0.67716607E+03</pdfrwt>
<pdfrwt beam="2">0</pdfrwt>
<totfact> 0.10191758E+00</totfact>
</mgrwt>
</event>
<event>
 6    1  0.1171384E-002  0.6485840E+03  0.7818608E-02  0.9809440E-01
          1   -1    0    0  502    0  0.00000000000E+00  0.00000000000E+00  0.10536190815E+03  0.10536190815E+03  0.00000000000E+00 0.  1.
         13   -1    0    0    0    0 -0.00000000000E+00 -0.00000000000E+00 -0.10000000000E+04  0.10000000000E+04  0.00000000000E+00 0.  1.
    9000005    2    1    2  501    0 -0.51184271900E-01  0.61659893521E-01 -0.89482563302E+03  0.11051579634E+04  0.64858399928E+03 0.  0.
         13    1    3    3    0    0 -0.20402436475E+03  0.23985954209E+03 -0.57980568484E+03  0.65979782776E+03  0.00000000000E+00 0.  1.
          3    1    3    3  501    0  0.20397318048E+03 -0.23979788219E+03 -0.31501994818E+03  0.44536013564E+03  0.00000000000E+00 0.  1.
         21    1    1    2  502  501  0.51184271900E-01 -0.61659893521E-01  0.18754117137E+00  0.20394475507E+00  0.00000000000E+00 0. -1.
<mgrwt>
<rscale>  1 0.64858400E+03</rscale>
<asrwt>0</asrwt>
<pdfrwt beam="1">  1        1 0.38313502E+00 0.64858400E+03</pdfrwt>
<pdfrwt beam="2">0</pdfrwt>
<totfact> 0.15899043E+00</totfact>
</mgrwt>
</event>
<event>
 6    1  0.1171384E-002  0.5177868E+03  0.7818608E-02  0.1009238E+00
          1   -1    0    0  502    0  0.00000000000E+00  0.00000000000E+00  0.67026936406E+02  0.67026936406E+02  0.00000000000E+00 0.  1.
         13   -1    0    0    0    0 -0.00000000000E+00 -0.00000000000E+00 -0.10000000000E+04  0.10000000000E+04  0.00000000000E+00 0.  1.
    9000005    2    1    2  501    0  0.50523096053E-03 -0.10326185024E-02 -0.93297390074E+03  0.10670255143E+04  0.51778677919E+03 0.  0.
         13    1    3    3    0    0 -0.67499103081E+02 -0.19764026394E+02 -0.97993470648E+03  0.98245548226E+03  0.00000000000E+00 0.  1.
          3    1    3    3  501    0  0.67499608312E+02  0.19762993775E+02  0.46960805735E+02  0.84570032047E+02  0.00000000000E+00 0.  1.
         21    1    1    2  502  501 -0.50523096053E-03  0.10326185024E-02  0.83714770587E-03  0.14221025197E-02  0.00000000000E+00 0.  1.
<mgrwt>
<rscale>  1 0.51778678E+03</rscale>
<asrwt>0</asrwt>
<pdfrwt beam="1">  1        1 0.24373483E+00 0.51778678E+03</pdfrwt>
<pdfrwt beam="2">0</pdfrwt>
<totfact> 0.65569616E+00</totfact>
</mgrwt>
</event>
<event>
 6    1  0.1171384E-002  0.6502543E+03  0.7818608E-02  0.9806302E-01
          1   -1    0    0  502    0  0.00000000000E+00  0.00000000000E+00  0.10574454214E+03  0.10574454214E+03  0.00000000000E+00 0.  1.
         13   -1    0    0    0    0 -0.00000000000E+00 -0.00000000000E+00 -0.10000000000E+04  0.10000000000E+04  0.00000000000E+00 0.  1.
    9000005    2    1    2  501    0 -0.70150572282E-03 -0.41601224041E-04 -0.89429233976E+03  0.11057076535E+04  0.65025427807E+03 0.  0.
         13    1    3    3    0    0  0.22507932641E+03  0.13605253704E+03 -0.77217365561E+03  0.81573473043E+03  0.00000000000E+00 0.  1.
          1    1    3    3  501    0 -0.22508002791E+03 -0.13605257864E+03 -0.12211868415E+03  0.28997292311E+03  0.00000000000E+00 0.  1.
         21    1    1    2  502  501  0.70150572281E-03  0.41601224044E-04  0.36881900032E-01  0.36888594320E-01  0.00000000000E+00 0.  1.
<mgrwt>
<rscale>  1 0.65025428E+03</rscale>
<asrwt>0</asrwt>
<pdfrwt beam="1">  1        1 0.38452642E+00 0.65025428E+03</pdfrwt>
<pdfrwt beam="2">0</pdfrwt>
<totfact> 0.15670626E+00</totfact>
</mgrwt>
</event>
<event>
 6    1  0.1171384E-002  0.6462657E+03  0.7818608E-02  0.9813812E-01
          1   -1    0    0  502    0  0.00000000000E+00  0.00000000000E+00  0.10441491495E+03  0.10441491495E+03  0.00000000000E+00 0.  1.
         13   -1    0    0    0    0 -0.00000000000E+00 -0.00000000000E+00 -0.10000000000E+04  0.10000000000E+04  0.00000000000E+00 0.  1.
    9000005    2    1    2  501    0  0.50002743720E-04  0.54284698024E-04 -0.89558515977E+03  0.11044148099E+04  0.64626565279E+03 0.  0.
         13    1    3    3    0    0  0.86373281092E+02 -0.14160634791E+03  0.26111345317E+02  0.16791219077E+03  0.00000000000E+00 0.  1.
          1    1    3    3  501    0 -0.86373231089E+02  0.14160640220E+03 -0.92169650509E+03  0.93650261915E+03  0.00000000000E+00 0.  1.
         21    1    1    2  502  501 -0.50002743714E-04 -0.54284698021E-04  0.74716171320E-04  0.10502194568E-03  0.00000000000E+00 0.  1.
<mgrwt>
<rscale>  1 0.64626565E+03</rscale>
<asrwt>0</asrwt>
<pdfrwt beam="1">  1        1 0.37969140E+00 0.64626565E+03</pdfrwt>
<pdfrwt beam="2">0</pdfrwt>
<totfact> 0.16472551E+00</totfact>
</mgrwt>
</event>
<event>
 6    1  0.1626662E-002  0.6561778E+03  0.7818608E-02  0.9795256E-01
          1   -1    0    0  502    0  0.00000000000E+00  0.00000000000E+00  0.10764239884E+03  0.10764239884E+03  0.00000000000E+00 0.  1.
         13   -1    0    0    0    0 -0.00000000000E+00 -0.00000000000E+00 -0.10000000000E+04  0.10000000000E+04  0.00000000000E+00 0.  1.
    9000005    2    1    2  501    0 -0.15904785255E-03 -0.54056338257E-04 -0.89235753693E+03  0.11076422190E+04  0.65617780486E+03 0.  0.
         13    1    3    3    0    0  0.10579433167E+03  0.12842795560E+03 -0.92349234290E+03  0.93836255668E+03  0.00000000000E+00 0.  1.
          1    1    3    3  501    0 -0.10579449072E+03 -0.12842800966E+03  0.31134805965E+02  0.16927966232E+03  0.00000000000E+00 0.  1.
         21    1    1    2  502  501  0.15904785255E-03  0.54056338261E-04 -0.64229421173E-04  0.17984361443E-03  0.00000000000E+00 0.  1.
<mgrwt>
<rscale>  1 0.65617780E+03</rscale>
<asrwt>0</asrwt>
<pdfrwt beam="1">  1        1 0.39142773E+00 0.65617780E+03</pdfrwt>
<pdfrwt beam="2">0</pdfrwt>
<totfact> 0.14589374E+00</totfact>
</mgrwt>
</event>
<event>
 6    1  0.1171384E-002  0.6518666E+03  0.7818608E-02  0.9803283E-01
          1   -1    0    0  502    0  0.00000000000E+00  0.00000000000E+00  0.10625619165E+03  0.10625619165E+03  0.00000000000E+00 0.  1.
         13   -1    0    0    0    0 -0.00000000000E+00 -0.00000000000E+00 -0.10000000000E+04  0.10000000000E+04  0.00000000000E+00 0.  1.
    9000005    2    1    2  501    0 -0.10998391271E-01  0.13377152878E-01 -0.89376391306E+03  0.11062296565E+04  0.65186664313E+03 0.  0.
         13    1    3    3    0    0 -0.18250920969E+03  0.20703753011E+03 -0.74113343682E+03  0.79085581598E+03  0.00000000000E+00 0.  1.
          3    1    3    3  501    0  0.18249821130E+03 -0.20702415295E+03 -0.15263047624E+03  0.31537384056E+03  0.00000000000E+00 0.  1.
         21    1    1    2  502  501  0.10998391271E-01 -0.13377152878E-01  0.20104711354E-01  0.26535113497E-01  0.00000000000E+00 0.  1.
<mgrwt>
<rscale>  1 0.65186664E+03</rscale>
<asrwt>0</asrwt>
<pdfrwt beam="1">  1        1 0.38638697E+00 0.65186664E+03</pdfrwt>
<pdfrwt beam="2">0</pdfrwt>
<totfact> 0.15371825E+00</totfact>
</mgrwt>
</event>
<event>
 6    1  0.1171384E-002  0.6457175E+03  0.7818608E-02  0.9814848E-01
          3   -1    0    0  502    0  0.00000000000E+00  0.00000000000E+00  0.10440047103E+03  0.10440047103E+03  0.00000000000E+00 0.  1.
         13   -1    0    0    0    0 -0.00000000000E+00 -0.00000000000E+00 -0.10000000000E+04  0.10000000000E+04  0.00000000000E+00 0.  1.
    9000005    2    1    2  501    0 -0.72097598327E-01 -0.64133535488E-01 -0.89574627671E+03  0.11042248405E+04  0.64571750547E+03 0.  0.
         13    1    3    3    0    0  0.23898545149E+03  0.20503552001E+03 -0.56937698217E+03  0.65064872113E+03  0.00000000000E+00 0.  1.
          1    1    3    3  501    0 -0.23905754909E+03 -0.20509965355E+03 -0.32636929454E+03  0.45357611939E+03  0.00000000000E+00 0.  1.
         21    1    1    2  502  501  0.72097598327E-01  0.64133535488E-01  0.14674773924E+00  0.17563050142E+00  0.00000000000E+00 0. -1.
<mgrwt>
<rscale>  1 0.64571751E+03</rscale>
<asrwt>0</asrwt>
<pdfrwt beam="1">  1        3 0.37963888E+00 0.64571751E+03</pdfrwt>
<pdfrwt beam="2">0</pdfrwt>
<totfact> 0.75865138E-02</totfact>
</mgrwt>
</event>
<event>
 6    1  0.1171384E-002  0.5804012E+03  0.7818608E-02  0.9946923E-01
          1   -1    0    0  502    0  0.00000000000E+00  0.00000000000E+00  0.84234457444E+02  0.84234457444E+02  0.00000000000E+00 0.  1.
         13   -1    0    0    0    0 -0.00000000000E+00 -0.00000000000E+00 -0.10000000000E+04  0.10000000000E+04  0.00000000000E+00 0.  1.
    9000005    2    1    2  501    0  0.24452715498E-01  0.52273948310E-01 -0.91571104831E+03  0.10841550841E+04  0.58040117083E+03 0.  0.
         13    1    3    3    0    0  0.21494058168E+03 -0.19251922628E+03 -0.40031517747E+03  0.49347274237E+03  0.00000000000E+00 0.  1.
          1    1    3    3  501    0 -0.21491612897E+03  0.19257150023E+03 -0.51539587084E+03  0.59068234176E+03  0.00000000000E+00 0.  1.
         21    1    1    2  502  501 -0.24452715498E-01 -0.52273948310E-01 -0.54494241909E-01  0.79373316476E-01  0.00000000000E+00 0. -1.
<mgrwt>
<rscale>  1 0.58040117E+03</rscale>
<asrwt>0</asrwt>
<pdfrwt beam="1">  1        1 0.30630776E+00 0.58040117E+03</pdfrwt>
<pdfrwt beam="2">0</pdfrwt>
<totfact> 0.34777720E+00</totfact>
</mgrwt>
</event>
<event>
 6    1  0.1171384E-002  0.6673386E+03  0.7818608E-02  0.9774778E-01
          1   -1    0    0  502    0  0.00000000000E+00  0.00000000000E+00  0.12410171835E+03  0.12410171835E+03  0.00000000000E+00 0.  1.
         13   -1    0    0    0    0 -0.00000000000E+00 -0.00000000000E+00 -0.10000000000E+04  0.10000000000E+04  0.00000000000E+00 0.  1.
    9000005    2    1    2  501    0 -0.70885122073E+01 -0.63657196780E+01 -0.88665737659E+03  0.11097306531E+04  0.66727059697E+03 0.  0.
         13    1    3    3    0    0  0.29174908633E+03  0.67172103925E+01 -0.18127360245E+03  0.34354442105E+03  0.00000000000E+00 0.  1.
          1    1    3    3  501    0 -0.29883759854E+03 -0.13082930071E+02 -0.70538377414E+03  0.76618623205E+03  0.00000000000E+00 0.  1.
         21    1    1    2  502  501  0.70885122073E+01  0.63657196780E+01  0.10759094946E+02  0.14371065249E+02  0.00000000000E+00 0. -1.
<mgrwt>
<rscale>  1 0.66733861E+03</rscale>
<asrwt>0</asrwt>
<pdfrwt beam="1">  1        1 0.45127993E+00 0.66733861E+03</pdfrwt>
<pdfrwt beam="2">0</pdfrwt>
<totfact> 0.78095895E-01</totfact>
</mgrwt>
</event>
<event>
 6    1  0.1171384E-002  0.6560692E+03  0.7818608E-02  0.9795457E-01
          1   -1    0    0  502    0  0.00000000000E+00  0.00000000000E+00  0.10763263852E+03  0.10763263852E+03  0.00000000000E+00 0.  1.
         13   -1    0    0    0    0 -0.00000000000E+00 -0.00000000000E+00 -0.10000000000E+04  0.10000000000E+04  0.00000000000E+00 0.  1.
    9000005    2    1    2  501    0  0.32053852585E-01 -0.24427670230E-02 -0.89238175983E+03  0.11075974145E+04  0.65606922377E+03 0.  0.
         13    1    3    3    0    0  0.29740895100E+03 -0.11039047989E+03 -0.30518195949E+03  0.44019787662E+03  0.00000000000E+00 0.  1.
          1    1    3    3  501    0 -0.29737689714E+03  0.11038803712E+03 -0.58719980034E+03  0.66739953792E+03  0.00000000000E+00 0.  1.
         21    1    1    2  502  501 -0.32053852585E-01  0.24427670229E-02  0.14398349478E-01  0.35223983931E-01  0.00000000000E+00 0.  1.
<mgrwt>
<rscale>  1 0.65606922E+03</rscale>
<asrwt>0</asrwt>
<pdfrwt beam="1">  1        1 0.39139224E+00 0.65606922E+03</pdfrwt>
<pdfrwt beam="2">0</pdfrwt>
<totfact> 0.14594961E+00</totfact>
</mgrwt>
</event>
<event>
 6    1  0.1171384E-002  0.6383922E+03  0.7818608E-02  0.9828808E-01
          3   -1    0    0  502    0  0.00000000000E+00  0.00000000000E+00  0.10188616391E+03  0.10188616391E+03  0.00000000000E+00 0.  1.
         13   -1    0    0    0    0 -0.00000000000E+00 -0.00000000000E+00 -0.10000000000E+04  0.10000000000E+04  0.00000000000E+00 0.  1.
    9000005    2    1    2  501    0  0.18936549395E-06 -0.28552216691E-04 -0.89811382119E+03  0.11018861317E+04  0.63839220814E+03 0.  0.
         13    1    3    3    0    0 -0.23198494609E+03  0.60463009057E+02 -0.85304432102E+02  0.25445949935E+03  0.00000000000E+00 0.  1.
          1    1    3    3  501    0  0.23198494628E+03 -0.60463037609E+02 -0.81280938909E+03  0.84742663235E+03  0.00000000000E+00 0.  1.
         21    1    1    2  502  501 -0.18936547427E-06  0.28552216692E-04 -0.14899994096E-04  0.32206750245E-04  0.00000000000E+00 0. -1.
<mgrwt>
<rscale>  1 0.63839221E+03</rscale>
<asrwt>0</asrwt>
<pdfrwt beam="1">  1        3 0.37049592E+00 0.63839221E+03</pdfrwt>
<pdfrwt beam="2">0</pdfrwt>
<totfact> 0.84904154E-02</totfact>
</mgrwt>
</event>
<event>
 6    1  0.1427575E-002  0.6340533E+03  0.7818608E-02  0.9837171E-01
          1   -1    0    0  502    0  0.00000000000E+00  0.00000000000E+00  0.10050599195E+03  0.10050599195E+03  0.00000000000E+00 0.  1.
         13   -1    0    0    0    0 -0.00000000000E+00 -0.00000000000E+00 -0.10000000000E+04  0.10000000000E+04  0.00000000000E+00 0.  1.
    9000005    2    1    2  501    0 -0.13860709413E-03  0.88904699354E-04 -0.89949398824E+03  0.11005058261E+04  0.63405334033E+03 0.  0.
         13    1    3    3    0    0  0.28763650306E+03  0.46744990935E+02 -0.66643457989E+03  0.72736160288E+03  0.00000000000E+00 0.  1.
          1    1    3    3  501    0 -0.28763664167E+03 -0.46744902031E+02 -0.23305940835E+03  0.37314422321E+03  0.00000000000E+00 0.  1.
         21    1    1    2  502  501  0.13860709411E-03 -0.88904699354E-04 -0.19807016573E-04  0.16585623295E-03  0.00000000000E+00 0. -1.
<mgrwt>
<rscale>  1 0.63405334E+03</rscale>
<asrwt>0</asrwt>
<pdfrwt beam="1">  1        1 0.36547711E+00 0.63405334E+03</pdfrwt>
<pdfrwt beam="2">0</pdfrwt>
<totfact> 0.19064731E+00</totfact>
</mgrwt>
</event>
<event>
 6    1  0.1171384E-002  0.6435446E+03  0.7818608E-02  0.9818968E-01
          1   -1    0    0  502    0  0.00000000000E+00  0.00000000000E+00  0.10834007256E+03  0.10834007256E+03  0.00000000000E+00 0.  1.
         13   -1    0    0    0    0 -0.00000000000E+00 -0.00000000000E+00 -0.10000000000E+04  0.10000000000E+04  0.00000000000E+00 0.  1.
    9000005    2    1    2  501    0 -0.23589344973E+01  0.45767417644E+00 -0.89612869971E+03  0.11032662216E+04  0.64354015827E+03 0.  0.
         13    1    3    3    0    0  0.21743344207E+03  0.10674561300E+03 -0.80828800312E+03  0.84380176797E+03  0.00000000000E+00 0.  1.
          1    1    3    3  501    0 -0.21979237657E+03 -0.10628793883E+03 -0.87840696590E+02  0.25946445367E+03  0.00000000000E+00 0.  1.
         21    1    1    2  502  501  0.23589344973E+01 -0.45767417644E+00  0.44687722751E+01  0.50738509301E+01  0.00000000000E+00 0. -1.
<mgrwt>
<rscale>  1 0.64354464E+03</rscale>
<asrwt>0</asrwt>
<pdfrwt beam="1">  1        1 0.39396473E+00 0.64354464E+03</pdfrwt>
<pdfrwt beam="2">0</pdfrwt>
<totfact> 0.14249570E+00</totfact>
</mgrwt>
</event>
<event>
 6    1  0.1171384E-002  0.6463981E+03  0.7818608E-02  0.9813561E-01
          1   -1    0    0  502    0  0.00000000000E+00  0.00000000000E+00  0.10697404890E+03  0.10697404890E+03  0.00000000000E+00 0.  1.
         13   -1    0    0    0    0 -0.00000000000E+00 -0.00000000000E+00 -0.10000000000E+04  0.10000000000E+04  0.00000000000E+00 0.  1.
    9000005    2    1    2  501    0 -0.52504075969E+01  0.34295874907E+01 -0.89011149917E+03  0.11000586400E+04  0.64636769847E+03 0.  0.
         13    1    3    3    0    0 -0.23806539244E+03  0.78156661315E+02 -0.80187484919E+03  0.84011122391E+03  0.00000000000E+00 0.  1.
          3    1    3    3  501    0  0.23281498484E+03 -0.74727073824E+02 -0.88236649985E+02  0.25994741608E+03  0.00000000000E+00 0.  1.
         21    1    1    2  502  501  0.52504075969E+01 -0.34295874907E+01 -0.29144519228E+01  0.69154089034E+01  0.00000000000E+00 0.  1.
<mgrwt>
<rscale>  1 0.64639812E+03</rscale>
<asrwt>0</asrwt>
<pdfrwt beam="1">  1        1 0.38899736E+00 0.64639812E+03</pdfrwt>
<pdfrwt beam="2">0</pdfrwt>
<totfact> 0.14983254E+00</totfact>
</mgrwt>
</event>
<event>
 6    1  0.1171384E-002  0.6460179E+03  0.7818608E-02  0.9814280E-01
          1   -1    0    0  502    0  0.00000000000E+00  0.00000000000E+00  0.10445375106E+03  0.10445375106E+03  0.00000000000E+00 0.  1.
         13   -1    0    0    0    0 -0.00000000000E+00 -0.00000000000E+00 -0.10000000000E+04  0.10000000000E+04  0.00000000000E+00 0.  1.
    9000005    2    1    2  501    0 -0.98234171331E-02  0.13329848118E-01 -0.89566459575E+03  0.11043342515E+04  0.64601785626E+03 0.  0.
         13    1    3    3    0    0 -0.43138099373E+02 -0.27371870006E+03 -0.16409441159E+03  0.32204005698E+03  0.00000000000E+00 0.  1.
          1    1    3    3  501    0  0.43128275956E+02  0.27373202991E+03 -0.73157018416E+03  0.78229419449E+03  0.00000000000E+00 0.  1.
         21    1    1    2  502  501  0.98234171331E-02 -0.13329848118E-01  0.11834681335E+00  0.11949959249E+00  0.00000000000E+00 0.  1.
<mgrwt>
<rscale>  1 0.64601786E+03</rscale>
<asrwt>0</asrwt>
<pdfrwt beam="1">  1        1 0.37983262E+00 0.64601786E+03</pdfrwt>
<pdfrwt beam="2">0</pdfrwt>
<totfact> 0.16449686E+00</totfact>
</mgrwt>
</event>
<event>
 6    1  0.1171384E-002  0.6519934E+03  0.7818608E-02  0.9803046E-01
          1   -1    0    0  502    0  0.00000000000E+00  0.00000000000E+00  0.10627499359E+03  0.10627499359E+03  0.00000000000E+00 0.  1.
         13   -1    0    0    0    0 -0.00000000000E+00 -0.00000000000E+00 -0.10000000000E+04  0.10000000000E+04  0.00000000000E+00 0.  1.
    9000005    2    1    2  501    0  0.32969402554E-03  0.11135688671E-02 -0.89372582561E+03  0.11062735724E+04  0.65199337848E+03 0.  0.
         13    1    3    3    0    0 -0.60346346912E+02  0.10321517876E+03  0.67729343425E+02  0.13741294943E+03  0.00000000000E+00 0.  1.
          3    1    3    3  501    0  0.60346676606E+02 -0.10321406519E+03 -0.96145516904E+03  0.96886062295E+03  0.00000000000E+00 0.  1.
         21    1    1    2  502  501 -0.32969402554E-03 -0.11135688671E-02  0.81920765791E-03  0.14212089779E-02  0.00000000000E+00 0.  1.
<mgrwt>
<rscale>  1 0.65199338E+03</rscale>
<asrwt>0</asrwt>
<pdfrwt beam="1">  1        1 0.38645534E+00 0.65199338E+03</pdfrwt>
<pdfrwt beam="2">0</pdfrwt>
<totfact> 0.15360757E+00</totfact>
</mgrwt>
</event>
<event>
 6    1  0.1171384E-002  0.6428630E+03  0.7818608E-02  0.9820264E-01
          1   -1    0    0  502    0  0.00000000000E+00  0.00000000000E+00  0.10333148564E+03  0.10333148564E+03  0.00000000000E+00 0.  1.
         13   -1    0    0    0    0 -0.00000000000E+00 -0.00000000000E+00 -0.10000000000E+04  0.10000000000E+04  0.00000000000E+00 0.  1.
    9000005    2    1    2  501    0 -0.35526323980E-03  0.28826446050E-02 -0.89668160639E+03  0.11033180753E+04  0.64286302743E+03 0.  0.
         13    1    3    3    0    0 -0.10447262608E+03 -0.26282040193E+01  0.73347044733E+02  0.12767625476E+03  0.00000000000E+00 0.  1.
          3    1    3    3  501    0  0.10447227082E+03  0.26310866639E+01 -0.97002865113E+03  0.97564182054E+03  0.00000000000E+00 0.  1.
         21    1    1    2  502  501  0.35526323979E-03 -0.28826446050E-02  0.13092035243E-01  0.13410340738E-01  0.00000000000E+00 0.  1.
<mgrwt>
<rscale>  1 0.64286303E+03</rscale>
<asrwt>0</asrwt>
<pdfrwt beam="1">  1        1 0.37575165E+00 0.64286303E+03</pdfrwt>
<pdfrwt beam="2">0</pdfrwt>
<totfact> 0.17155209E+00</totfact>
</mgrwt>
</event>
<event>
 6    1  0.1171384E-002  0.6677824E+03  0.7818608E-02  0.9773972E-01
          1   -1    0    0  502    0  0.00000000000E+00  0.00000000000E+00  0.12429263243E+03  0.12429263243E+03  0.00000000000E+00 0.  1.
         13   -1    0    0    0    0 -0.00000000000E+00 -0.00000000000E+00 -0.10000000000E+04  0.10000000000E+04  0.00000000000E+00 0.  1.
    9000005    2    1    2  501    0  0.28021779259E+00 -0.27826551011E+00 -0.88851329144E+03  0.11114806209E+04  0.66778225910E+03 0.  0.
         13    1    3    3    0    0 -0.25378713680E+03 -0.59167324314E+02 -0.96922600312E+02  0.27803358345E+03  0.00000000000E+00 0.  1.
          3    1    3    3  501    0  0.25406735460E+03  0.58889058803E+02 -0.79159069113E+03  0.83344703743E+03  0.00000000000E+00 0.  1.
         21    1    1    2  502  501 -0.28021779259E+00  0.27826551011E+00  0.12805923876E+02  0.12812011553E+02  0.00000000000E+00 0. -1.
<mgrwt>
<rscale>  1 0.66778238E+03</rscale>
<asrwt>0</asrwt>
<pdfrwt beam="1">  1        1 0.45197416E+00 0.66778238E+03</pdfrwt>
<pdfrwt beam="2">0</pdfrwt>
<totfact> 0.77515036E-01</totfact>
</mgrwt>
</event>
<event>
 6    1  0.1171384E-002  0.6385926E+03  0.7818608E-02  0.9828423E-01
          1   -1    0    0  502    0  0.00000000000E+00  0.00000000000E+00  0.10198280130E+03  0.10198280130E+03  0.00000000000E+00 0.  1.
         13   -1    0    0    0    0 -0.00000000000E+00 -0.00000000000E+00 -0.10000000000E+04  0.10000000000E+04  0.00000000000E+00 0.  1.
    9000005    2    1    2  501    0 -0.12104322943E-01 -0.11513967420E-02 -0.89804861912E+03  0.11019491103E+04  0.63859260820E+03 0.  0.
         13    1    3    3    0    0  0.19290079555E+03  0.25347556486E+03 -0.41094103702E+03  0.51993568335E+03  0.00000000000E+00 0.  1.
          3    1    3    3  501    0 -0.19291289988E+03 -0.25347671626E+03 -0.48710758210E+03  0.58201342696E+03  0.00000000000E+00 0.  1.
         21    1    1    2  502  501  0.12104322943E-01  0.11513967420E-02  0.31420418251E-01  0.33690993328E-01  0.00000000000E+00 0. -1.
<mgrwt>
<rscale>  1 0.63859261E+03</rscale>
<asrwt>0</asrwt>
<pdfrwt beam="1">  1        1 0.37084733E+00 0.63859261E+03</pdfrwt>
<pdfrwt beam="2">0</pdfrwt>
<totfact> 0.18042883E+00</totfact>
</mgrwt>
</event>
<event>
 6    1  0.1171384E-002  0.6469135E+03  0.7818608E-02  0.9812588E-01
          1   -1    0    0  502    0  0.00000000000E+00  0.00000000000E+00  0.10462425663E+03  0.10462425663E+03  0.00000000000E+00 0.  1.
         13   -1    0    0    0    0 -0.00000000000E+00 -0.00000000000E+00 -0.10000000000E+04  0.10000000000E+04  0.00000000000E+00 0.  1.
    9000005    2    1    2  501    0 -0.35713239868E-05 -0.18297968722E-05 -0.89537573939E+03  0.11046242510E+04  0.64691345724E+03 0.  0.
         13    1    3    3    0    0 -0.69680050072E+02 -0.21011416422E+03 -0.85039352210E+03  0.87873341453E+03  0.00000000000E+00 0.  1.
          1    1    3    3  501    0  0.69680046501E+02  0.21011416239E+03 -0.44982217295E+02  0.22589083645E+03  0.00000000000E+00 0.  1.
         21    1    1    2  502  501  0.35713239957E-05  0.18297968810E-05 -0.39802187977E-05  0.56519601366E-05  0.00000000000E+00 0. -1.
<mgrwt>
<rscale>  1 0.64691346E+03</rscale>
<asrwt>0</asrwt>
<pdfrwt beam="1">  1        1 0.38045264E+00 0.64691346E+03</pdfrwt>
<pdfrwt beam="2">0</pdfrwt>
<totfact> 0.16343695E+00</totfact>
</mgrwt>
</event>
