<event>
 6    1  0.5237124E-003  0.6404520E+03  0.7818608E-02  0.9824862E-01
          1   -1    0    0  502    0  0.00000000000E+00  0.00000000000E+00  0.10256414557E+03  0.10256414557E+03  0.00000000000E+00 0.  1.
         13   -1    0    0    0    0 -0.00000000000E+00 -0.00000000000E+00 -0.10000000000E+04  0.10000000000E+04  0.00000000000E+00 0.  1.
    9000005    2    1    2  501    0 -0.26961592783E-03  0.19464215120E-03 -0.89745529841E+03  0.11025446987E+04  0.64045202793E+03 0.  0.
         13    1    3    3    0    0  0.13310321528E+03  0.29115976797E+03 -0.43604863465E+03  0.54095183536E+03  0.00000000000E+00 0.  1.
          1    1    3    3  501    0 -0.13310348489E+03 -0.29115957333E+03 -0.46140666376E+03  0.56159286338E+03  0.00000000000E+00 0.  1.
         21    1    1    2  502  501  0.26961592785E-03 -0.19464215120E-03  0.19443980028E-01  0.19446823330E-01  0.00000000000E+00 0.  1.
<mgrwt>
<rscale>  1 0.64045203E+03</rscale>
<asrwt>0</asrwt>
<pdfrwt beam="1">  1        1 0.37296132E+00 0.64045203E+03</pdfrwt>
<pdfrwt beam="2">0</pdfrwt>
<totfact> 0.17654946E+00</totfact>
</mgrwt>
</event>
<event>
 6    1  0.5237124E-003  0.6479178E+03  0.7818608E-02  0.9810694E-01
          1   -1    0    0  502    0  0.00000000000E+00  0.00000000000E+00  0.10494944998E+03  0.10494944998E+03  0.00000000000E+00 0.  1.
         13   -1    0    0    0    0 -0.00000000000E+00 -0.00000000000E+00 -0.10000000000E+04  0.10000000000E+04  0.00000000000E+00 0.  1.
    9000005    2    1    2  501    0  0.28657739279E-04 -0.15160087457E-04 -0.89505061715E+03  0.11049493754E+04  0.64791783043E+03 0.  0.
         13    1    3    3    0    0 -0.30800634626E+03 -0.34508467432E+02 -0.60832625149E+03  0.68272950127E+03  0.00000000000E+00 0.  1.
          1    1    3    3  501    0  0.30800637491E+03  0.34508452271E+02 -0.28672436566E+03  0.42221987416E+03  0.00000000000E+00 0.  1.
         21    1    1    2  502  501 -0.28657739267E-04  0.15160087453E-04  0.67130930182E-04  0.74549688521E-04  0.00000000000E+00 0.  1.
<mgrwt>
<rscale>  1 0.64791783E+03</rscale>
<asrwt>0</asrwt>
<pdfrwt beam="1">  1        1 0.38163517E+00 0.64791783E+03</pdfrwt>
<pdfrwt beam="2">0</pdfrwt>
<totfact> 0.16145435E+00</totfact>
</mgrwt>
</event>
<event>
 6    1  0.5237124E-003  0.5987407E+03  0.7818608E-02  0.9908022E-01
          1   -1    0    0  502    0  0.00000000000E+00  0.00000000000E+00  0.89622636042E+02  0.89622636042E+02  0.00000000000E+00 0.  1.
         13   -1    0    0    0    0 -0.00000000000E+00 -0.00000000000E+00 -0.10000000000E+04  0.10000000000E+04  0.00000000000E+00 0.  1.
    9000005    2    1    2  501    0 -0.15242961993E-04  0.68042862722E-06 -0.91037740499E+03  0.10896225923E+04  0.59874065677E+03 0.  0.
         13    1    3    3    0    0  0.77377279968E+02  0.26561038183E+03 -0.66337333590E+03  0.71874912256E+03  0.00000000000E+00 0.  1.
          1    1    3    3  501    0 -0.77377295211E+02 -0.26561038115E+03 -0.24700406908E+03  0.37087346971E+03  0.00000000000E+00 0.  1.
         21    1    1    2  502  501  0.15242962002E-04 -0.68042864228E-06  0.41028214834E-04  0.43773568352E-04  0.00000000000E+00 0.  1.
<mgrwt>
<rscale>  1 0.59874066E+03</rscale>
<asrwt>0</asrwt>
<pdfrwt beam="1">  1        1 0.32590118E+00 0.59874066E+03</pdfrwt>
<pdfrwt beam="2">0</pdfrwt>
<totfact> 0.28524571E+00</totfact>
</mgrwt>
</event>
<event>
 6    1  0.5237124E-003  0.6432329E+03  0.7818608E-02  0.9819561E-01
          1   -1    0    0  502    0  0.00000000000E+00  0.00000000000E+00  0.10416490848E+03  0.10416490848E+03  0.00000000000E+00 0.  1.
         13   -1    0    0    0    0 -0.00000000000E+00 -0.00000000000E+00 -0.10000000000E+04  0.10000000000E+04  0.00000000000E+00 0.  1.
    9000005    2    1    2  501    0 -0.14498922096E-02  0.31794525986E-01 -0.89656246793E+03  0.11034368361E+04  0.64323292148E+03 0.  0.
         13    1    3    3    0    0 -0.16811870319E+03 -0.93380596885E+02 -0.89048539718E+03  0.91101486093E+03  0.00000000000E+00 0.  1.
          3    1    3    3  501    0  0.16811725330E+03  0.93412391411E+02 -0.60770707468E+01  0.19242197514E+03  0.00000000000E+00 0.  1.
         21    1    1    2  502  501  0.14498922096E-02 -0.31794525986E-01  0.72737641091E+00  0.72807241207E+00  0.00000000000E+00 0. -1.
<mgrwt>
<rscale>  1 0.64323292E+03</rscale>
<asrwt>0</asrwt>
<pdfrwt beam="1">  1        1 0.37878228E+00 0.64323292E+03</pdfrwt>
<pdfrwt beam="2">0</pdfrwt>
<totfact> 0.16634613E+00</totfact>
</mgrwt>
</event>
<event>
 6    1  0.5237124E-003  0.6524026E+03  0.7818608E-02  0.9802281E-01
          1   -1    0    0  502    0  0.00000000000E+00  0.00000000000E+00  0.10746097588E+03  0.10746097588E+03  0.00000000000E+00 0.  1.
         13   -1    0    0    0    0 -0.00000000000E+00 -0.00000000000E+00 -0.10000000000E+04  0.10000000000E+04  0.00000000000E+00 0.  1.
    9000005    2    1    2  501    0  0.26791134398E+00  0.21735490627E+00 -0.89356138842E+03  0.11063819725E+04  0.65240247937E+03 0.  0.
         13    1    3    3    0    0  0.86407708068E+02 -0.79026072393E+02 -0.96313036594E+03  0.97022240436E+03  0.00000000000E+00 0.  1.
          1    1    3    3  501    0 -0.86139796724E+02  0.79243427300E+02  0.69568977522E+02  0.13615956809E+03  0.00000000000E+00 0.  1.
         21    1    1    2  502  501 -0.26791134398E+00 -0.21735490627E+00  0.10223642975E+01  0.10790034293E+01  0.00000000000E+00 0. -1.
<mgrwt>
<rscale>  1 0.65240257E+03</rscale>
<asrwt>0</asrwt>
<pdfrwt beam="1">  1        1 0.39076801E+00 0.65240257E+03</pdfrwt>
<pdfrwt beam="2">0</pdfrwt>
<totfact> 0.14698358E+00</totfact>
</mgrwt>
</event>
<event>
 6    1  0.5237124E-003  0.6452673E+03  0.7818608E-02  0.9815701E-01
          3   -1    0    0  502    0  0.00000000000E+00  0.00000000000E+00  0.10851803286E+03  0.10851803286E+03  0.00000000000E+00 0.  1.
         13   -1    0    0    0    0 -0.00000000000E+00 -0.00000000000E+00 -0.10000000000E+04  0.10000000000E+04  0.00000000000E+00 0.  1.
    9000005    2    1    2  501    0 -0.38991992854E-02 -0.84641691948E-01 -0.89590709515E+03  0.11040920937E+04  0.64526724779E+03 0.  0.
         13    1    3    3    0    0  0.28840620871E+03  0.13607971016E+03 -0.36438196251E+03  0.48422106867E+03  0.00000000000E+00 0.  1.
          3    1    3    3  501    0 -0.28841010791E+03 -0.13616435185E+03 -0.53152513265E+03  0.61987102505E+03  0.00000000000E+00 0.  1.
         21    1    1    2  502  501  0.38991992854E-02  0.84641691948E-01  0.44251280154E+01  0.44259391514E+01  0.00000000000E+00 0.  1.
<mgrwt>
<rscale>  1 0.64526725E+03</rscale>
<asrwt>0</asrwt>
<pdfrwt beam="1">  1        3 0.39461186E+00 0.64526725E+03</pdfrwt>
<pdfrwt beam="2">0</pdfrwt>
<totfact> 0.63273197E-02</totfact>
</mgrwt>
</event>
<event>
 6    1  0.5237124E-003  0.6558234E+03  0.7818608E-02  0.9795913E-01
          1   -1    0    0  502    0  0.00000000000E+00  0.00000000000E+00  0.10752629722E+03  0.10752629722E+03  0.00000000000E+00 0.  1.
         13   -1    0    0    0    0 -0.00000000000E+00 -0.00000000000E+00 -0.10000000000E+04  0.10000000000E+04  0.00000000000E+00 0.  1.
    9000005    2    1    2  501    0 -0.21430455774E-04  0.55953387971E-04 -0.89247391314E+03  0.11075260785E+04  0.65582339764E+03 0.  0.
         13    1    3    3    0    0 -0.16778650592E+03  0.19268264094E+03 -0.99127932262E+02  0.27405338648E+03  0.00000000000E+00 0.  1.
          1    1    3    3  501    0  0.16778648449E+03 -0.19268258499E+03 -0.79334598088E+03  0.83347269200E+03  0.00000000000E+00 0.  1.
         21    1    1    2  502  501  0.21430455757E-04 -0.55953387968E-04  0.21036611963E-03  0.21873260010E-03  0.00000000000E+00 0. -1.
<mgrwt>
<rscale>  1 0.65582340E+03</rscale>
<asrwt>0</asrwt>
<pdfrwt beam="1">  1        1 0.39100554E+00 0.65582340E+03</pdfrwt>
<pdfrwt beam="2">0</pdfrwt>
<totfact> 0.14653412E+00</totfact>
</mgrwt>
</event>
<event>
 6    1  0.5237124E-003  0.6420648E+03  0.7818608E-02  0.9821784E-01
          1   -1    0    0  502    0  0.00000000000E+00  0.00000000000E+00  0.10306191514E+03  0.10306191514E+03  0.00000000000E+00 0.  1.
         13   -1    0    0    0    0 -0.00000000000E+00 -0.00000000000E+00 -0.10000000000E+04  0.10000000000E+04  0.00000000000E+00 0.  1.
    9000005    2    1    2  501    0 -0.23334942512E-05  0.82210897432E-05 -0.89693820879E+03  0.11030617909E+04  0.64206476636E+03 0.  0.
         13    1    3    3    0    0  0.25867474654E+03  0.12232652720E+03 -0.19841199336E+03  0.34820069337E+03  0.00000000000E+00 0.  1.
          3    1    3    3  501    0 -0.25867474887E+03 -0.12232651898E+03 -0.69852621542E+03  0.75486109755E+03  0.00000000000E+00 0.  1.
         21    1    1    2  502  501  0.23334942506E-05 -0.82210897477E-05  0.12392439217E-03  0.12421870425E-03  0.00000000000E+00 0.  1.
<mgrwt>
<rscale>  1 0.64206477E+03</rscale>
<asrwt>0</asrwt>
<pdfrwt beam="1">  1        1 0.37477139E+00 0.64206477E+03</pdfrwt>
<pdfrwt beam="2">0</pdfrwt>
<totfact> 0.17329056E+00</totfact>
</mgrwt>
</event>
<event>
 6    1  0.5237124E-003  0.6540528E+03  0.7818608E-02  0.9799204E-01
          1   -1    0    0  502    0  0.00000000000E+00  0.00000000000E+00  0.10694848453E+03  0.10694848453E+03  0.00000000000E+00 0.  1.
         13   -1    0    0    0    0 -0.00000000000E+00 -0.00000000000E+00 -0.10000000000E+04  0.10000000000E+04  0.00000000000E+00 0.  1.
    9000005    2    1    2  501    0  0.48816916581E-03  0.13391574227E-03 -0.89305370179E+03  0.11069462404E+04  0.65405279969E+03 0.  0.
         13    1    3    3    0    0 -0.29933960891E+03  0.70980793250E+02 -0.63425531844E+03  0.70492714762E+03  0.00000000000E+00 0.  1.
          1    1    3    3  501    0  0.29934009708E+03 -0.70980659334E+02 -0.25879838335E+03  0.40201909276E+03  0.00000000000E+00 0.  1.
         21    1    1    2  502  501 -0.48816916585E-03 -0.13391574226E-03  0.21863215235E-02  0.22441578297E-02  0.00000000000E+00 0.  1.
<mgrwt>
<rscale>  1 0.65405280E+03</rscale>
<asrwt>0</asrwt>
<pdfrwt beam="1">  1        1 0.38890440E+00 0.65405280E+03</pdfrwt>
<pdfrwt beam="2">0</pdfrwt>
<totfact> 0.14976118E+00</totfact>
</mgrwt>
</event>
<event>
 6    1  0.5237124E-003  0.6181653E+03  0.7818608E-02  0.9868419E-01
          1   -1    0    0  502    0  0.00000000000E+00  0.00000000000E+00  0.95536360742E+02  0.95536360742E+02  0.00000000000E+00 0.  1.
         13   -1    0    0    0    0 -0.00000000000E+00 -0.00000000000E+00 -0.10000000000E+04  0.10000000000E+04  0.00000000000E+00 0.  1.
    9000005    2    1    2  501    0  0.10999582659E-03  0.82758590338E-04 -0.90446790006E+03  0.10955320977E+04  0.61816534590E+03 0.  0.
         13    1    3    3    0    0 -0.19870580554E+03  0.13881748728E+03 -0.11236355608E+03  0.26717009688E+03  0.00000000000E+00 0.  1.
          3    1    3    3  501    0  0.19870591553E+03 -0.13881740453E+03 -0.79210434399E+03  0.82836200084E+03  0.00000000000E+00 0.  1.
         21    1    1    2  502  501 -0.10999582659E-03 -0.82758590329E-04  0.42608064879E-02  0.42630294385E-02  0.00000000000E+00 0. -1.
<mgrwt>
<rscale>  1 0.61816535E+03</rscale>
<asrwt>0</asrwt>
<pdfrwt beam="1">  1        1 0.34740568E+00 0.61816535E+03</pdfrwt>
<pdfrwt beam="2">0</pdfrwt>
<totfact> 0.22929999E+00</totfact>
</mgrwt>
</event>
<event>
 6    1  0.5237124E-003  0.6450549E+03  0.7818608E-02  0.9816103E-01
          1   -1    0    0  502    0  0.00000000000E+00  0.00000000000E+00  0.10406496042E+03  0.10406496042E+03  0.00000000000E+00 0.  1.
         13   -1    0    0    0    0 -0.00000000000E+00 -0.00000000000E+00 -0.10000000000E+04  0.10000000000E+04  0.00000000000E+00 0.  1.
    9000005    2    1    2  501    0 -0.76714405066E-03  0.14796739266E-03 -0.89597605064E+03  0.11040239419E+04  0.64505486667E+03 0.  0.
         13    1    3    3    0    0 -0.31359068132E+03 -0.68978667890E+02 -0.39587834510E+03  0.50972231278E+03  0.00000000000E+00 0.  1.
          3    1    3    3  501    0  0.31358991417E+03  0.68978815857E+02 -0.50009770554E+03  0.59430162914E+03  0.00000000000E+00 0.  1.
         21    1    1    2  502  501  0.76714405065E-03 -0.14796739267E-03  0.41011060540E-01  0.41018501813E-01  0.00000000000E+00 0.  1.
<mgrwt>
<rscale>  1 0.64505487E+03</rscale>
<asrwt>0</asrwt>
<pdfrwt beam="1">  1        1 0.37841884E+00 0.64505487E+03</pdfrwt>
<pdfrwt beam="2">0</pdfrwt>
<totfact> 0.16690514E+00</totfact>
</mgrwt>
</event>
<event>
 6    1  0.5237124E-003  0.6355024E+03  0.7818608E-02  0.9834370E-01
          1   -1    0    0  502    0  0.00000000000E+00  0.00000000000E+00  0.10134269191E+03  0.10134269191E+03  0.00000000000E+00 0.  1.
         13   -1    0    0    0    0 -0.00000000000E+00 -0.00000000000E+00 -0.10000000000E+04  0.10000000000E+04  0.00000000000E+00 0.  1.
    9000005    2    1    2  501    0 -0.18980905850E+00  0.49014009524E-01 -0.89900592229E+03  0.11009427398E+04  0.63550234423E+03 0.  0.
         13    1    3    3    0    0 -0.61492038282E+02  0.89880575109E+02  0.67639515030E+02  0.12819864487E+03  0.00000000000E+00 0.  1.
          3    1    3    3  501    0  0.61302229224E+02 -0.89831561099E+02 -0.96664543732E+03  0.97274409490E+03  0.00000000000E+00 0.  1.
         21    1    1    2  502  501  0.18980905850E+00 -0.49014009524E-01  0.34861419941E+00  0.39995213695E+00  0.00000000000E+00 0. -1.
<mgrwt>
<rscale>  1 0.63550237E+03</rscale>
<asrwt>0</asrwt>
<pdfrwt beam="1">  1        1 0.36851966E+00 0.63550237E+03</pdfrwt>
<pdfrwt beam="2">0</pdfrwt>
<totfact> 0.18482964E+00</totfact>
</mgrwt>
</event>
<event>
 6    1  0.5237124E-003  0.6211539E+03  0.7818608E-02  0.9862465E-01
          3   -1    0    0  502    0  0.00000000000E+00  0.00000000000E+00  0.99181927812E+02  0.99181927812E+02  0.00000000000E+00 0.  1.
         13   -1    0    0    0    0 -0.00000000000E+00 -0.00000000000E+00 -0.10000000000E+04  0.10000000000E+04  0.00000000000E+00 0.  1.
    9000005    2    1    2  501    0 -0.70274378974E+00  0.85377060927E+01 -0.89108686500E+03  0.10862172578E+04  0.62109479468E+03 0.  0.
         13    1    3    3    0    0 -0.29310300726E+03 -0.95322981514E+02 -0.39401884374E+03  0.50024663207E+03  0.00000000000E+00 0.  1.
          1    1    3    3  501    0  0.29240026347E+03  0.10386068761E+03 -0.49706802126E+03  0.58597062577E+03  0.00000000000E+00 0.  1.
         21    1    1    2  502  501  0.70274378974E+00 -0.85377060927E+01 -0.97312071888E+01  0.12964669973E+02  0.00000000000E+00 0.  1.
<mgrwt>
<rscale>  1 0.62115387E+03</rscale>
<asrwt>0</asrwt>
<pdfrwt beam="1">  1        3 0.36066232E+00 0.62115387E+03</pdfrwt>
<pdfrwt beam="2">0</pdfrwt>
<totfact> 0.96008044E-02</totfact>
</mgrwt>
</event>
<event>
 6    1  0.5237124E-003  0.6655034E+03  0.7818608E-02  0.9778115E-01
          1   -1    0    0  502    0  0.00000000000E+00  0.00000000000E+00  0.11589635522E+03  0.11589635522E+03  0.00000000000E+00 0.  1.
         13   -1    0    0    0    0 -0.00000000000E+00 -0.00000000000E+00 -0.10000000000E+04  0.10000000000E+04  0.00000000000E+00 0.  1.
    9000005    2    1    2  501    0 -0.65739758102E-01 -0.62718978745E-01 -0.88927586994E+03  0.11107233321E+04  0.66550337286E+03 0.  0.
         13    1    3    3    0    0 -0.27716209332E+03  0.11566776036E+03 -0.68383833331E+03  0.74688200063E+03  0.00000000000E+00 0.  1.
          1    1    3    3  501    0  0.27709635356E+03 -0.11573047934E+03 -0.20543753663E+03  0.36384133144E+03  0.00000000000E+00 0.  1.
         21    1    1    2  502  501  0.65739758102E-01  0.62718978745E-01  0.51722251638E+01  0.51730231520E+01  0.00000000000E+00 0. -1.
<mgrwt>
<rscale>  1 0.66550338E+03</rscale>
<asrwt>0</asrwt>
<pdfrwt beam="1">  1        1 0.42144218E+00 0.66550338E+03</pdfrwt>
<pdfrwt beam="2">0</pdfrwt>
<totfact> 0.10688783E+00</totfact>
</mgrwt>
</event>
<event>
 6    1  0.5237124E-003  0.6353687E+03  0.7818608E-02  0.9834628E-01
          1   -1    0    0  502    0  0.00000000000E+00  0.00000000000E+00  0.10094258727E+03  0.10094258727E+03  0.00000000000E+00 0.  1.
         13   -1    0    0    0    0 -0.00000000000E+00 -0.00000000000E+00 -0.10000000000E+04  0.10000000000E+04  0.00000000000E+00 0.  1.
    9000005    2    1    2  501    0 -0.63732425354E-02 -0.14249527346E-01 -0.89907310205E+03  0.11009204553E+04  0.63536871651E+03 0.  0.
         13    1    3    3    0    0  0.21354529954E+03  0.23503604118E+03 -0.46454248967E+03  0.56271063640E+03  0.00000000000E+00 0.  1.
          1    1    3    3  501    0 -0.21355167278E+03 -0.23505029071E+03 -0.43453061238E+03  0.53820981895E+03  0.00000000000E+00 0.  1.
         21    1    1    2  502  501  0.63732425354E-02  0.14249527346E-01  0.15689327936E-01  0.22131928544E-01  0.00000000000E+00 0. -1.
<mgrwt>
<rscale>  1 0.63536872E+03</rscale>
<asrwt>0</asrwt>
<pdfrwt beam="1">  1        1 0.36706473E+00 0.63536872E+03</pdfrwt>
<pdfrwt beam="2">0</pdfrwt>
<totfact> 0.18757100E+00</totfact>
</mgrwt>
</event>
<event>
 6    1  0.5237124E-003  0.6428247E+03  0.7818608E-02  0.9820337E-01
          1   -1    0    0  502    0  0.00000000000E+00  0.00000000000E+00  0.10331021815E+03  0.10331021815E+03  0.00000000000E+00 0.  1.
         13   -1    0    0    0    0 -0.00000000000E+00 -0.00000000000E+00 -0.10000000000E+04  0.10000000000E+04  0.00000000000E+00 0.  1.
    9000005    2    1    2  501    0 -0.55943392442E-02  0.64730306968E-02 -0.89668879510E+03  0.11033016059E+04  0.64282473374E+03 0.  0.
         13    1    3    3    0    0  0.59096794595E+02  0.28214372142E+03 -0.20435108730E+03  0.35335092692E+03  0.00000000000E+00 0.  1.
          1    1    3    3  501    0 -0.59102388934E+02 -0.28213724839E+03 -0.69233770779E+03  0.74995067901E+03  0.00000000000E+00 0.  1.
         21    1    1    2  502  501  0.55943392442E-02 -0.64730306968E-02 -0.98675429772E-03  0.86122263106E-02  0.00000000000E+00 0. -1.
<mgrwt>
<rscale>  1 0.64282473E+03</rscale>
<asrwt>0</asrwt>
<pdfrwt beam="1">  1        1 0.37567431E+00 0.64282473E+03</pdfrwt>
<pdfrwt beam="2">0</pdfrwt>
<totfact> 0.17168786E+00</totfact>
</mgrwt>
</event>
<event>
 6    1  0.5237124E-003  0.6593026E+03  0.7818608E-02  0.9789478E-01
          1   -1    0    0  502    0  0.00000000000E+00  0.00000000000E+00  0.12345107428E+03  0.12345107428E+03  0.00000000000E+00 0.  1.
         13   -1    0    0    0    0 -0.00000000000E+00 -0.00000000000E+00 -0.10000000000E+04  0.10000000000E+04  0.00000000000E+00 0.  1.
    9000005    2    1    2  501    0  0.20354969223E+00  0.58245382154E-01 -0.89132918039E+03  0.11086693033E+04  0.65930256442E+03 0.  0.
         13    1    3    3    0    0  0.26423195336E+03 -0.19603012875E+03 -0.48205135503E+03  0.58362646054E+03  0.00000000000E+00 0.  1.
          1    1    3    3  501    0 -0.26402840367E+03  0.19608837413E+03 -0.40927782536E+03  0.52504284277E+03  0.00000000000E+00 0.  1.
         21    1    1    2  502  501 -0.20354969223E+00 -0.58245382154E-01  0.14780254670E+02  0.14781770974E+02  0.00000000000E+00 0. -1.
<mgrwt>
<rscale>  1 0.65930260E+03</rscale>
<asrwt>0</asrwt>
<pdfrwt beam="1">  1        1 0.44891394E+00 0.65930260E+03</pdfrwt>
<pdfrwt beam="2">0</pdfrwt>
<totfact> 0.80213049E-01</totfact>
</mgrwt>
</event>
<event>
 6    1  0.5237124E-003  0.6448821E+03  0.7818608E-02  0.9816430E-01
          1   -1    0    0  502    0  0.00000000000E+00  0.00000000000E+00  0.10396826073E+03  0.10396826073E+03  0.00000000000E+00 0.  1.
         13   -1    0    0    0    0 -0.00000000000E+00 -0.00000000000E+00 -0.10000000000E+04  0.10000000000E+04  0.00000000000E+00 0.  1.
    9000005    2    1    2  501    0 -0.65543529999E-05  0.71926720011E-05 -0.89603176699E+03  0.11039682314E+04  0.64488210425E+03 0.  0.
         13    1    3    3    0    0 -0.49939772349E+02  0.20502941211E+03 -0.30661102433E+02  0.21323963960E+03  0.00000000000E+00 0.  1.
          3    1    3    3  501    0  0.49939765795E+02 -0.20502940492E+03 -0.86537066456E+03  0.89072859175E+03  0.00000000000E+00 0.  1.
         21    1    1    2  502  501  0.65543529996E-05 -0.71926720238E-05  0.27721420825E-04  0.29379776151E-04  0.00000000000E+00 0. -1.
<mgrwt>
<rscale>  1 0.64488210E+03</rscale>
<asrwt>0</asrwt>
<pdfrwt beam="1">  1        1 0.37806720E+00 0.64488210E+03</pdfrwt>
<pdfrwt beam="2">0</pdfrwt>
<totfact> 0.16750728E+00</totfact>
</mgrwt>
</event>
<event>
 6    1  0.5237124E-003  0.6589888E+03  0.7818608E-02  0.9790057E-01
          3   -1    0    0  502    0  0.00000000000E+00  0.00000000000E+00  0.10875245205E+03  0.10875245205E+03  0.00000000000E+00 0.  1.
         13   -1    0    0    0    0 -0.00000000000E+00 -0.00000000000E+00 -0.10000000000E+04  0.10000000000E+04  0.00000000000E+00 0.  1.
    9000005    2    1    2  501    0  0.13344030338E-01  0.46334003563E-02 -0.89143314443E+03  0.11085663188E+04  0.65898879506E+03 0.  0.
         13    1    3    3    0    0  0.74211452592E+02 -0.31489279992E+03 -0.55078758098E+03  0.63877364887E+03  0.00000000000E+00 0.  1.
          1    1    3    3  501    0 -0.74198108562E+02  0.31489743332E+03 -0.34064556345E+03  0.46979266993E+03  0.00000000000E+00 0.  1.
         21    1    1    2  502  501 -0.13344030338E-01 -0.46334003563E-02  0.18559647669E+00  0.18613324181E+00  0.00000000000E+00 0. -1.
<mgrwt>
<rscale>  1 0.65898880E+03</rscale>
<asrwt>0</asrwt>
<pdfrwt beam="1">  1        3 0.39546430E+00 0.65898880E+03</pdfrwt>
<pdfrwt beam="2">0</pdfrwt>
<totfact> 0.62478717E-02</totfact>
</mgrwt>
</event>
<event>
 6    1  0.5237124E-003  0.6467201E+03  0.7818608E-02  0.9812953E-01
          1   -1    0    0  502    0  0.00000000000E+00  0.00000000000E+00  0.10884615228E+03  0.10884615228E+03  0.00000000000E+00 0.  1.
         13   -1    0    0    0    0 -0.00000000000E+00 -0.00000000000E+00 -0.10000000000E+04  0.10000000000E+04  0.00000000000E+00 0.  1.
    9000005    2    1    2  501    0 -0.64025598328E+01 -0.82871094879E+01 -0.88664288033E+03  0.10974436182E+04  0.64663531376E+03 0.  0.
         13    1    3    3    0    0  0.27367666407E+03 -0.71769880540E+02 -0.69979501146E+03  0.75482639744E+03  0.00000000000E+00 0.  1.
          3    1    3    3  501    0 -0.28007922390E+03  0.63482771052E+02 -0.18684786887E+03  0.34261722079E+03  0.00000000000E+00 0.  1.
         21    1    1    2  502  501  0.64025598328E+01  0.82871094879E+01 -0.45109673848E+01  0.11402534053E+02  0.00000000000E+00 0. -1.
<mgrwt>
<rscale>  1 0.64672011E+03</rscale>
<asrwt>0</asrwt>
<pdfrwt beam="1">  1        1 0.39580502E+00 0.64672011E+03</pdfrwt>
<pdfrwt beam="2">0</pdfrwt>
<totfact> 0.13975306E+00</totfact>
</mgrwt>
</event>
<event>
 6    1  0.5237124E-003  0.6495643E+03  0.7818608E-02  0.9807597E-01
          1   -1    0    0  502    0  0.00000000000E+00  0.00000000000E+00  0.10548888805E+03  0.10548888805E+03  0.00000000000E+00 0.  1.
         13   -1    0    0    0    0 -0.00000000000E+00 -0.00000000000E+00 -0.10000000000E+04  0.10000000000E+04  0.00000000000E+00 0.  1.
    9000005    2    1    2  501    0 -0.28263689918E-03 -0.12019806048E-02 -0.89451648378E+03  0.11054833761E+04  0.64956428102E+03 0.  0.
         13    1    3    3    0    0 -0.24180396223E+02 -0.26278352376E+03 -0.76946791048E+03  0.81346219161E+03  0.00000000000E+00 0.  1.
          1    1    3    3  501    0  0.24180113586E+02  0.26278232178E+03 -0.12504857330E+03  0.29202118453E+03  0.00000000000E+00 0.  1.
         21    1    1    2  502  501  0.28263689918E-03  0.12019806048E-02  0.53718266084E-02  0.55119109301E-02  0.00000000000E+00 0. -1.
<mgrwt>
<rscale>  1 0.64956428E+03</rscale>
<asrwt>0</asrwt>
<pdfrwt beam="1">  1        1 0.38359677E+00 0.64956428E+03</pdfrwt>
<pdfrwt beam="2">0</pdfrwt>
<totfact> 0.15821650E+00</totfact>
</mgrwt>
</event>
<event>
 6    1  0.5237124E-003  0.5351215E+03  0.7818608E-02  0.1004998E+00
          1   -1    0    0  502    0  0.00000000000E+00  0.00000000000E+00  0.71590414688E+02  0.71590414688E+02  0.00000000000E+00 0.  1.
         13   -1    0    0    0    0 -0.00000000000E+00 -0.00000000000E+00 -0.10000000000E+04  0.10000000000E+04  0.00000000000E+00 0.  1.
    9000005    2    1    2  501    0  0.82200023671E-03  0.60605832702E-02 -0.92840080719E+03  0.10715797160E+04  0.53512150856E+03 0.  0.
         13    1    3    3    0    0  0.91123919833E+02 -0.79895136840E+02 -0.94187583497E+03  0.94964040044E+03  0.00000000000E+00 0.  1.
          3    1    3    3  501    0 -0.91123097833E+02  0.79901197423E+02  0.13475027772E+02  0.12193931557E+03  0.00000000000E+00 0.  1.
         21    1    1    2  502  501 -0.82200023671E-03 -0.60605832702E-02 -0.87781177250E-02  0.10698677711E-01  0.00000000000E+00 0. -1.
<mgrwt>
<rscale>  1 0.53512151E+03</rscale>
<asrwt>0</asrwt>
<pdfrwt beam="1">  1        1 0.26032933E+00 0.53512151E+03</pdfrwt>
<pdfrwt beam="2">0</pdfrwt>
<totfact> 0.55370129E+00</totfact>
</mgrwt>
</event>
<event>
 6    1  0.5237124E-003  0.6438659E+03  0.7818608E-02  0.9818358E-01
          1   -1    0    0  502    0  0.00000000000E+00  0.00000000000E+00  0.10375591702E+03  0.10375591702E+03  0.00000000000E+00 0.  1.
         13   -1    0    0    0    0 -0.00000000000E+00 -0.00000000000E+00 -0.10000000000E+04  0.10000000000E+04  0.00000000000E+00 0.  1.
    9000005    2    1    2  501    0  0.23722229911E-02  0.38537553172E-03 -0.89635915441E+03  0.11036408205E+04  0.64386592312E+03 0.  0.
         13    1    3    3    0    0  0.19357246601E+03 -0.12984430332E+03 -0.82881305471E+03  0.86096511100E+03  0.00000000000E+00 0.  1.
          1    1    3    3  501    0 -0.19357009379E+03  0.12984468870E+03 -0.67546099699E+02  0.24267570949E+03  0.00000000000E+00 0.  1.
         21    1    1    2  502  501 -0.23722229911E-02 -0.38537553173E-03  0.11507143221E+00  0.11509652674E+00  0.00000000000E+00 0.  1.
<mgrwt>
<rscale>  1 0.64386592E+03</rscale>
<asrwt>0</asrwt>
<pdfrwt beam="1">  1        1 0.37729504E+00 0.64386592E+03</pdfrwt>
<pdfrwt beam="2">0</pdfrwt>
<totfact> 0.16885649E+00</totfact>
</mgrwt>
</event>
<event>
 6    1  0.5237124E-003  0.6470072E+03  0.7818608E-02  0.9812411E-01
          1   -1    0    0  502    0  0.00000000000E+00  0.00000000000E+00  0.10465468882E+03  0.10465468882E+03  0.00000000000E+00 0.  1.
         13   -1    0    0    0    0 -0.00000000000E+00 -0.00000000000E+00 -0.10000000000E+04  0.10000000000E+04  0.00000000000E+00 0.  1.
    9000005    2    1    2  501    0  0.13933521473E-04  0.14855857742E-04 -0.89534541056E+03  0.11046545874E+04  0.64700722809E+03 0.  0.
         13    1    3    3    0    0  0.15427323592E+03 -0.81062287835E+02  0.17659224405E+02  0.17516613268E+03  0.00000000000E+00 0.  1.
          1    1    3    3  501    0 -0.15427322199E+03  0.81062302691E+02 -0.91300463497E+03  0.92948845469E+03  0.00000000000E+00 0.  1.
         21    1    1    2  502  501 -0.13933521484E-04 -0.14855857735E-04  0.99382894694E-04  0.10144850560E-03  0.00000000000E+00 0.  1.
<mgrwt>
<rscale>  1 0.64700723E+03</rscale>
<asrwt>0</asrwt>
<pdfrwt beam="1">  1        1 0.38056331E+00 0.64700723E+03</pdfrwt>
<pdfrwt beam="2">0</pdfrwt>
<totfact> 0.16325044E+00</totfact>
</mgrwt>
</event>
<event>
 6    1  0.5237124E-003  0.6575805E+03  0.7818608E-02  0.9792658E-01
          1   -1    0    0  502    0  0.00000000000E+00  0.00000000000E+00  0.10816245250E+03  0.10816245250E+03  0.00000000000E+00 0.  1.
         13   -1    0    0    0    0 -0.00000000000E+00 -0.00000000000E+00 -0.10000000000E+04  0.10000000000E+04  0.00000000000E+00 0.  1.
    9000005    2    1    2  501    0 -0.31766412887E-01  0.34012523926E-01 -0.89188669331E+03  0.11080947674E+04  0.65758051809E+03 0.  0.
         13    1    3    3    0    0  0.22815482502E+03 -0.22937696074E+03 -0.54445257740E+03  0.63332221131E+03  0.00000000000E+00 0.  1.
          3    1    3    3  501    0 -0.22818659143E+03  0.22941097326E+03 -0.34743411590E+03  0.47477255613E+03  0.00000000000E+00 0.  1.
         21    1    1    2  502  501  0.31766412887E-01 -0.34012523926E-01  0.49145803010E-01  0.67685055404E-01  0.00000000000E+00 0. -1.
<mgrwt>
<rscale>  1 0.65758052E+03</rscale>
<asrwt>0</asrwt>
<pdfrwt beam="1">  1        1 0.39331884E+00 0.65758052E+03</pdfrwt>
<pdfrwt beam="2">0</pdfrwt>
<totfact> 0.14306260E+00</totfact>
</mgrwt>
</event>
<event>
 6    1  0.5237124E-003  0.6394952E+03  0.7818608E-02  0.9826693E-01
          1   -1    0    0  502    0  0.00000000000E+00  0.00000000000E+00  0.11354820226E+03  0.11354820226E+03  0.00000000000E+00 0.  1.
         13   -1    0    0    0    0 -0.00000000000E+00 -0.00000000000E+00 -0.10000000000E+04  0.10000000000E+04  0.00000000000E+00 0.  1.
    9000005    2    1    2  501    0  0.16883030211E+02  0.17008986977E+02 -0.88156892777E+03  0.10890903862E+04  0.63904597061E+03 0.  0.
         13    1    3    3    0    0  0.16415601242E+02  0.31437579481E+03 -0.29487289085E+03  0.43133703074E+03  0.00000000000E+00 0.  1.
          3    1    3    3  501    0  0.46742896907E+00 -0.29736680783E+03 -0.58669603691E+03  0.65775335546E+03  0.00000000000E+00 0.  1.
         21    1    1    2  502  501 -0.16883030211E+02 -0.17008986977E+02 -0.48828699769E+01  0.24457816057E+02  0.00000000000E+00 0.  1.
<mgrwt>
<rscale>  1 0.63949519E+03</rscale>
<asrwt>0</asrwt>
<pdfrwt beam="1">  1        1 0.41290342E+00 0.63949519E+03</pdfrwt>
<pdfrwt beam="2">0</pdfrwt>
<totfact> 0.11737830E+00</totfact>
</mgrwt>
</event>
<event>
 6    1  0.5237124E-003  0.6410786E+03  0.7818608E-02  0.9823665E-01
          1   -1    0    0  502    0  0.00000000000E+00  0.00000000000E+00  0.10275605298E+03  0.10275605298E+03  0.00000000000E+00 0.  1.
         13   -1    0    0    0    0 -0.00000000000E+00 -0.00000000000E+00 -0.10000000000E+04  0.10000000000E+04  0.00000000000E+00 0.  1.
    9000005    2    1    2  501    0 -0.20780567266E-03 -0.12037000707E-03 -0.89725456551E+03  0.11027454318E+04  0.64107856926E+03 0.  0.
         13    1    3    3    0    0  0.20673133785E+03 -0.24495112380E+03 -0.44423485460E+03  0.54779878162E+03  0.00000000000E+00 0.  1.
          1    1    3    3  501    0 -0.20673154565E+03  0.24495100343E+03 -0.45301971091E+03  0.55494665016E+03  0.00000000000E+00 0.  1.
         21    1    1    2  502  501  0.20780567266E-03  0.12037000707E-03  0.10618487680E-01  0.10621202980E-01  0.00000000000E+00 0. -1.
<mgrwt>
<rscale>  1 0.64107857E+03</rscale>
<asrwt>0</asrwt>
<pdfrwt beam="1">  1        1 0.37365916E+00 0.64107857E+03</pdfrwt>
<pdfrwt beam="2">0</pdfrwt>
<totfact> 0.17528602E+00</totfact>
</mgrwt>
</event>
<event>
 6    1  0.5237124E-003  0.6517698E+03  0.7818608E-02  0.9803464E-01
          1   -1    0    0  502    0  0.00000000000E+00  0.00000000000E+00  0.10889650732E+03  0.10889650732E+03  0.00000000000E+00 0.  1.
         13   -1    0    0    0    0 -0.00000000000E+00 -0.00000000000E+00 -0.10000000000E+04  0.10000000000E+04  0.00000000000E+00 0.  1.
    9000005    2    1    2  501    0  0.34722700199E+00 -0.84005233006E+00 -0.89371398719E+03  0.11061322830E+04  0.65176921556E+03 0.  0.
         13    1    3    3    0    0  0.17908882419E+02 -0.26052392640E+03 -0.77916916354E+03  0.82176519134E+03  0.00000000000E+00 0.  1.
          3    1    3    3  501    0 -0.17561655417E+02  0.25968387407E+03 -0.11454482365E+03  0.28436709166E+03  0.00000000000E+00 0.  1.
         21    1    1    2  502  501 -0.34722700199E+00  0.84005233006E+00  0.26104945121E+01  0.27642243226E+01  0.00000000000E+00 0.  1.
<mgrwt>
<rscale>  1 0.65176985E+03</rscale>
<asrwt>0</asrwt>
<pdfrwt beam="1">  1        1 0.39598813E+00 0.65176985E+03</pdfrwt>
<pdfrwt beam="2">0</pdfrwt>
<totfact> 0.13935819E+00</totfact>
</mgrwt>
</event>
<event>
 6    1  0.5237124E-003  0.6500880E+03  0.7818608E-02  0.9806614E-01
          1   -1    0    0  502    0  0.00000000000E+00  0.00000000000E+00  0.12992981725E+03  0.12992981725E+03  0.00000000000E+00 0.  1.
         13   -1    0    0    0    0 -0.00000000000E+00 -0.00000000000E+00 -0.10000000000E+04  0.10000000000E+04  0.00000000000E+00 0.  1.
    9000005    2    1    2  501    0  0.17243576288E+02  0.16150556563E+01 -0.89088273352E+03  0.11028537836E+04  0.64985727189E+03 0.  0.
         13    1    3    3    0    0 -0.24723815427E+03 -0.13060151228E+03 -0.69239650941E+03  0.74672376833E+03  0.00000000000E+00 0.  1.
          3    1    3    3  501    0  0.26448173055E+03  0.13221656793E+03 -0.19848622410E+03  0.35613001529E+03  0.00000000000E+00 0.  1.
         21    1    1    2  502  501 -0.17243576288E+02 -0.16150556563E+01  0.20812550770E+02  0.27076033638E+02  0.00000000000E+00 0. -1.
<mgrwt>
<rscale>  1 0.65008801E+03</rscale>
<asrwt>0</asrwt>
<pdfrwt beam="1">  1        1 0.47247306E+00 0.65008801E+03</pdfrwt>
<pdfrwt beam="2">0</pdfrwt>
<totfact> 0.62468704E-01</totfact>
</mgrwt>
</event>
<event>
 6    1  0.5237124E-003  0.6545921E+03  0.7818608E-02  0.9798200E-01
          1   -1    0    0  502    0  0.00000000000E+00  0.00000000000E+00  0.10956539296E+03  0.10956539296E+03  0.00000000000E+00 0.  1.
         13   -1    0    0    0    0 -0.00000000000E+00 -0.00000000000E+00 -0.10000000000E+04  0.10000000000E+04  0.00000000000E+00 0.  1.
    9000005    2    1    2  501    0  0.82222916980E-01 -0.11386278823E+00 -0.89287505027E+03  0.11071209117E+04  0.65459211580E+03 0.  0.
         13    1    3    3    0    0  0.14003362616E+03 -0.99381457394E+01 -0.94655305714E+03  0.95690693026E+03  0.00000000000E+00 0.  1.
          1    1    3    3  501    0 -0.13995140325E+03  0.98242829511E+01  0.53678006871E+02  0.15021398147E+03  0.00000000000E+00 0.  1.
         21    1    1    2  502  501 -0.82222916980E-01  0.11386278823E+00  0.24404432274E+01  0.24444812310E+01  0.00000000000E+00 0. -1.
<mgrwt>
<rscale>  1 0.65459213E+03</rscale>
<asrwt>0</asrwt>
<pdfrwt beam="1">  1        1 0.39842045E+00 0.65459213E+03</pdfrwt>
<pdfrwt beam="2">0</pdfrwt>
<totfact> 0.13585483E+00</totfact>
</mgrwt>
</event>
<event>
 6    1  0.5237124E-003  0.6435076E+03  0.7818608E-02  0.9819039E-01
          1   -1    0    0  502    0  0.00000000000E+00  0.00000000000E+00  0.10352781294E+03  0.10352781294E+03  0.00000000000E+00 0.  1.
         13   -1    0    0    0    0 -0.00000000000E+00 -0.00000000000E+00 -0.10000000000E+04  0.10000000000E+04  0.00000000000E+00 0.  1.
    9000005    2    1    2  501    0  0.10620620671E-02  0.15112944605E-02 -0.89647408163E+03  0.11035251669E+04  0.64350758738E+03 0.  0.
         13    1    3    3    0    0 -0.14334794821E+03  0.16733822182E+03 -0.85031566831E+03  0.87840050689E+03  0.00000000000E+00 0.  1.
          3    1    3    3  501    0  0.14334901028E+03 -0.16733671052E+03 -0.46158413316E+02  0.22512466003E+03  0.00000000000E+00 0.  1.
         21    1    1    2  502  501 -0.10620620671E-02 -0.15112944605E-02  0.18945622771E-02  0.26460069922E-02  0.00000000000E+00 0. -1.
<mgrwt>
<rscale>  1 0.64350759E+03</rscale>
<asrwt>0</asrwt>
<pdfrwt beam="1">  1        1 0.37646557E+00 0.64350759E+03</pdfrwt>
<pdfrwt beam="2">0</pdfrwt>
<totfact> 0.17029450E+00</totfact>
</mgrwt>
</event>
<event>
 6    1  0.5237124E-003  0.6348582E+03  0.7818608E-02  0.9835614E-01
          1   -1    0    0  502    0  0.00000000000E+00  0.00000000000E+00  0.10076124294E+03  0.10076124294E+03  0.00000000000E+00 0.  1.
         13   -1    0    0    0    0 -0.00000000000E+00 -0.00000000000E+00 -0.10000000000E+04  0.10000000000E+04  0.00000000000E+00 0.  1.
    9000005    2    1    2  501    0  0.19370234014E-04 -0.16340644237E-04 -0.89923875669E+03  0.11007612176E+04  0.63485818624E+03 0.  0.
         13    1    3    3    0    0  0.20897656371E+03 -0.22015507122E+03 -0.28862350334E+03  0.41885914846E+03  0.00000000000E+00 0.  1.
          1    1    3    3  501    0 -0.20897654434E+03  0.22015505488E+03 -0.61061525335E+03  0.68190206914E+03  0.00000000000E+00 0.  1.
         21    1    1    2  502  501 -0.19370233999E-04  0.16340644240E-04 -0.37405757717E-06  0.25344872034E-04  0.00000000000E+00 0.  1.
<mgrwt>
<rscale>  1 0.63485819E+03</rscale>
<asrwt>0</asrwt>
<pdfrwt beam="1">  1        1 0.36640529E+00 0.63485819E+03</pdfrwt>
<pdfrwt beam="2">0</pdfrwt>
<totfact> 0.18884173E+00</totfact>
</mgrwt>
</event>
<event>
 6    1  0.5237124E-003  0.6549651E+03  0.7818608E-02  0.9797507E-01
          1   -1    0    0  502    0  0.00000000000E+00  0.00000000000E+00  0.10989606109E+03  0.10989606109E+03  0.00000000000E+00 0.  1.
         13   -1    0    0    0    0 -0.00000000000E+00 -0.00000000000E+00 -0.10000000000E+04  0.10000000000E+04  0.00000000000E+00 0.  1.
    9000005    2    1    2  501    0  0.11367799379E+01  0.13095841689E+01 -0.89243751395E+03  0.11069886822E+04  0.65496276155E+03 0.  0.
         13    1    3    3    0    0  0.75152974662E+02  0.16572819134E+03  0.14266053811E+02  0.18253033528E+03  0.00000000000E+00 0.  1.
          1    1    3    3  501    0 -0.74016194724E+02 -0.16441860717E+03 -0.90670356776E+03  0.92445834696E+03  0.00000000000E+00 0.  1.
         21    1    1    2  502  501 -0.11367799379E+01 -0.13095841689E+01  0.23335750467E+01  0.29073788575E+01  0.00000000000E+00 0.  1.
<mgrwt>
<rscale>  1 0.65496506E+03</rscale>
<asrwt>0</asrwt>
<pdfrwt beam="1">  1        1 0.39962288E+00 0.65496506E+03</pdfrwt>
<pdfrwt beam="2">0</pdfrwt>
<totfact> 0.13417972E+00</totfact>
</mgrwt>
</event>
<event>
 6    1  0.5237124E-003  0.6311755E+03  0.7818608E-02  0.9842758E-01
          1   -1    0    0  502    0  0.00000000000E+00  0.00000000000E+00  0.99595718004E+02  0.99595718004E+02  0.00000000000E+00 0.  1.
         13   -1    0    0    0    0 -0.00000000000E+00 -0.00000000000E+00 -0.10000000000E+04  0.10000000000E+04  0.00000000000E+00 0.  1.
    9000005    2    1    2  501    0 -0.19615337408E-05  0.95355492533E-05 -0.90040437803E+03  0.10995956215E+04  0.63117548018E+03 0.  0.
         13    1    3    3    0    0  0.18829007043E+03  0.14922891826E+03 -0.80669516075E+03  0.84171224480E+03  0.00000000000E+00 0.  1.
          3    1    3    3  501    0 -0.18829007239E+03 -0.14922890873E+03 -0.93709217284E+02  0.25788337667E+03  0.00000000000E+00 0.  1.
         21    1    1    2  502  501  0.19615337610E-05 -0.95355492560E-05  0.96037951071E-04  0.96530111158E-04  0.00000000000E+00 0.  1.
<mgrwt>
<rscale>  1 0.63117548E+03</rscale>
<asrwt>0</asrwt>
<pdfrwt beam="1">  1        1 0.36216701E+00 0.63117548E+03</pdfrwt>
<pdfrwt beam="2">0</pdfrwt>
<totfact> 0.19722230E+00</totfact>
</mgrwt>
</event>
<event>
 6    1  0.5237124E-003  0.6527867E+03  0.7818608E-02  0.9801564E-01
          1   -1    0    0  502    0  0.00000000000E+00  0.00000000000E+00  0.10654874859E+03  0.10654874859E+03  0.00000000000E+00 0.  1.
         13   -1    0    0    0    0 -0.00000000000E+00 -0.00000000000E+00 -0.10000000000E+04  0.10000000000E+04  0.00000000000E+00 0.  1.
    9000005    2    1    2  501    0 -0.82057113673E-05  0.24744931467E-03 -0.89346738016E+03  0.11065326179E+04  0.65278669960E+03 0.  0.
         13    1    3    3    0    0  0.23143121161E+03 -0.11074639976E+03 -0.10473079416E+03  0.27711678046E+03  0.00000000000E+00 0.  1.
          3    1    3    3  501    0 -0.23143121982E+03  0.11074664721E+03 -0.78873658600E+03  0.82941583748E+03  0.00000000000E+00 0.  1.
         21    1    1    2  502  501  0.82057113620E-05 -0.24744931467E-03  0.16128747424E-01  0.16130647599E-01  0.00000000000E+00 0. -1.
<mgrwt>
<rscale>  1 0.65278670E+03</rscale>
<asrwt>0</asrwt>
<pdfrwt beam="1">  1        1 0.38745081E+00 0.65278670E+03</pdfrwt>
<pdfrwt beam="2">0</pdfrwt>
<totfact> 0.15203418E+00</totfact>
</mgrwt>
</event>
<event>
 6    1  0.5237124E-003  0.6548255E+03  0.7818608E-02  0.9797766E-01
          3   -1    0    0  502    0  0.00000000000E+00  0.00000000000E+00  0.10719912540E+03  0.10719912540E+03  0.00000000000E+00 0.  1.
         13   -1    0    0    0    0 -0.00000000000E+00 -0.00000000000E+00 -0.10000000000E+04  0.10000000000E+04  0.00000000000E+00 0.  1.
    9000005    2    1    2  501    0  0.18428738713E-06 -0.45232593493E-05 -0.89280087428E+03  0.11071991209E+04  0.65482554327E+03 0.  0.
         13    1    3    3    0    0 -0.18404364144E+03 -0.18120893379E+03 -0.78663315243E+03  0.82794954928E+03  0.00000000000E+00 0.  1.
          1    1    3    3  501    0  0.18404364162E+03  0.18120892927E+03 -0.10616772185E+03  0.27924957158E+03  0.00000000000E+00 0.  1.
         21    1    1    2  502  501 -0.18428737799E-06  0.45232593569E-05 -0.31843693532E-06  0.45381977842E-05  0.00000000000E+00 0. -1.
<mgrwt>
<rscale>  1 0.65482554E+03</rscale>
<asrwt>0</asrwt>
<pdfrwt beam="1">  1        3 0.38981582E+00 0.65482554E+03</pdfrwt>
<pdfrwt beam="2">0</pdfrwt>
<totfact> 0.66946119E-02</totfact>
</mgrwt>
</event>
<event>
 6    1  0.5237124E-003  0.6461926E+03  0.7818608E-02  0.9813950E-01
          1   -1    0    0  502    0  0.00000000000E+00  0.00000000000E+00  0.10439130792E+03  0.10439130792E+03  0.00000000000E+00 0.  1.
         13   -1    0    0    0    0 -0.00000000000E+00 -0.00000000000E+00 -0.10000000000E+04  0.10000000000E+04  0.00000000000E+00 0.  1.
    9000005    2    1    2  501    0  0.43759401478E-04  0.13172787476E-04 -0.89560876614E+03  0.11043912209E+04  0.64619262360E+03 0.  0.
         13    1    3    3    0    0  0.32219266762E+03  0.17362733014E+02 -0.41912140778E+03  0.52893509434E+03  0.00000000000E+00 0.  1.
          1    1    3    3  501    0 -0.32219262386E+03 -0.17362719841E+02 -0.47648735837E+03  0.57545612656E+03  0.00000000000E+00 0.  1.
         21    1    1    2  502  501 -0.43759401479E-04 -0.13172787475E-04  0.74066014004E-04  0.87029776388E-04  0.00000000000E+00 0. -1.
<mgrwt>
<rscale>  1 0.64619262E+03</rscale>
<asrwt>0</asrwt>
<pdfrwt beam="1">  1        1 0.37960556E+00 0.64619262E+03</pdfrwt>
<pdfrwt beam="2">0</pdfrwt>
<totfact> 0.16487143E+00</totfact>
</mgrwt>
</event>
<event>
 6    1  0.5237124E-003  0.6366822E+03  0.7818608E-02  0.9832095E-01
          1   -1    0    0  502    0  0.00000000000E+00  0.00000000000E+00  0.10134258171E+03  0.10134258171E+03  0.00000000000E+00 0.  1.
         13   -1    0    0    0    0 -0.00000000000E+00 -0.00000000000E+00 -0.10000000000E+04  0.10000000000E+04  0.00000000000E+00 0.  1.
    9000005    2    1    2  501    0  0.60998864836E-03 -0.11788181945E-02 -0.89865860198E+03  0.11013408033E+04  0.63668224576E+03 0.  0.
         13    1    3    3    0    0 -0.25679543641E+03 -0.13845989028E+03 -0.22898327176E+03  0.37087514897E+03  0.00000000000E+00 0.  1.
          1    1    3    3  501    0  0.25679604640E+03  0.13845871146E+03 -0.66967533022E+03  0.73046565431E+03  0.00000000000E+00 0.  1.
         21    1    1    2  502  501 -0.60998864835E-03  0.11788181945E-02  0.11836837149E-02  0.17784278517E-02  0.00000000000E+00 0. -1.
<mgrwt>
<rscale>  1 0.63668225E+03</rscale>
<asrwt>0</asrwt>
<pdfrwt beam="1">  1        1 0.36851926E+00 0.63668225E+03</pdfrwt>
<pdfrwt beam="2">0</pdfrwt>
<totfact> 0.18479070E+00</totfact>
</mgrwt>
</event>
<event>
 6    1  0.5237124E-003  0.6480862E+03  0.7818608E-02  0.9810377E-01
          1   -1    0    0  502    0  0.00000000000E+00  0.00000000000E+00  0.10551408270E+03  0.10551408270E+03  0.00000000000E+00 0.  1.
         13   -1    0    0    0    0 -0.00000000000E+00 -0.00000000000E+00 -0.10000000000E+04  0.10000000000E+04  0.00000000000E+00 0.  1.
    9000005    2    1    2  501    0 -0.30627203248E-03  0.22178005234E-01 -0.89499579423E+03  0.11050037236E+04  0.64808622647E+03 0.  0.
         13    1    3    3    0    0 -0.57416281693E+02 -0.23029964510E+03 -0.82361547925E+03  0.85713301978E+03  0.00000000000E+00 0.  1.
          1    1    3    3  501    0  0.57415975421E+02  0.23032182311E+03 -0.71380314974E+02  0.24787070379E+03  0.00000000000E+00 0.  1.
         21    1    1    2  502  501  0.30627203248E-03 -0.22178005234E-01  0.50987692632E+00  0.51035912622E+00  0.00000000000E+00 0.  1.
<mgrwt>
<rscale>  1 0.64808623E+03</rscale>
<asrwt>0</asrwt>
<pdfrwt beam="1">  1        1 0.38368838E+00 0.64808623E+03</pdfrwt>
<pdfrwt beam="2">0</pdfrwt>
<totfact> 0.15811216E+00</totfact>
</mgrwt>
</event>
<event>
 6    1  0.5237124E-003  0.6835589E+03  0.7818608E-02  0.9745769E-01
          1   -1    0    0  502    0  0.00000000000E+00  0.00000000000E+00  0.11823558419E+03  0.11823558419E+03  0.00000000000E+00 0.  1.
         13   -1    0    0    0    0 -0.00000000000E+00 -0.00000000000E+00 -0.10000000000E+04  0.10000000000E+04  0.00000000000E+00 0.  1.
    9000005    2    1    2  501    0 -0.32762053671E-01 -0.12839810450E-01 -0.88318654752E+03  0.11168130172E+04  0.68355894877E+03 0.  0.
         13    1    3    3    0    0 -0.17703224203E+03  0.24125112298E+03 -0.17177842174E+03  0.34503673026E+03  0.00000000000E+00 0.  1.
          1    1    3    3  501    0  0.17699947998E+03 -0.24126396279E+03 -0.71140812579E+03  0.77177628694E+03  0.00000000000E+00 0.  1.
         21    1    1    2  502  501  0.32762053671E-01  0.12839810450E-01  0.14221317121E+01  0.14225669824E+01  0.00000000000E+00 0. -1.
<mgrwt>
<rscale>  1 0.68355895E+03</rscale>
<asrwt>0</asrwt>
<pdfrwt beam="1">  1        1 0.42994849E+00 0.68355895E+03</pdfrwt>
<pdfrwt beam="2">0</pdfrwt>
<totfact> 0.97470834E-01</totfact>
</mgrwt>
</event>
<event>
 6    1  0.5237124E-003  0.6393208E+03  0.7818608E-02  0.9827027E-01
          1   -1    0    0  502    0  0.00000000000E+00  0.00000000000E+00  0.10218774875E+03  0.10218774875E+03  0.00000000000E+00 0.  1.
         13   -1    0    0    0    0 -0.00000000000E+00 -0.00000000000E+00 -0.10000000000E+04  0.10000000000E+04  0.00000000000E+00 0.  1.
    9000005    2    1    2  501    0 -0.14540758360E-03  0.47810819416E-03 -0.89781722990E+03  0.11021827451E+04  0.63932075302E+03 0.  0.
         13    1    3    3    0    0  0.62549731041E+02  0.12451986444E+03  0.47064846331E+02  0.14708081198E+03  0.00000000000E+00 0.  1.
          3    1    3    3  501    0 -0.62549876449E+02 -0.12451938633E+03 -0.94488207623E+03  0.95510193310E+03  0.00000000000E+00 0.  1.
         21    1    1    2  502  501  0.14540758360E-03 -0.47810819416E-03  0.49786547065E-02  0.50036720014E-02  0.00000000000E+00 0.  1.
<mgrwt>
<rscale>  1 0.63932075E+03</rscale>
<asrwt>0</asrwt>
<pdfrwt beam="1">  1        1 0.37159260E+00 0.63932075E+03</pdfrwt>
<pdfrwt beam="2">0</pdfrwt>
<totfact> 0.17904962E+00</totfact>
</mgrwt>
</event>
<event>
 6    1  0.5237124E-003  0.6491795E+03  0.7818608E-02  0.9808320E-01
          1   -1    0    0  502    0  0.00000000000E+00  0.00000000000E+00  0.10539190154E+03  0.10539190154E+03  0.00000000000E+00 0.  1.
         13   -1    0    0    0    0 -0.00000000000E+00 -0.00000000000E+00 -0.10000000000E+04  0.10000000000E+04  0.00000000000E+00 0.  1.
    9000005    2    1    2  501    0 -0.10047599293E-02  0.13968650098E-02 -0.89464147617E+03  0.11053584795E+04  0.64917948005E+03 0.  0.
         13    1    3    3    0    0  0.15266028490E+03 -0.28219858634E+03 -0.36361408228E+03  0.48492927891E+03  0.00000000000E+00 0.  1.
          1    1    3    3  501    0 -0.15266128966E+03  0.28219998320E+03 -0.53102739390E+03  0.62042920059E+03  0.00000000000E+00 0.  1.
         21    1    1    2  502  501  0.10047599293E-02 -0.13968650098E-02  0.33377715183E-01  0.33422038317E-01  0.00000000000E+00 0. -1.
<mgrwt>
<rscale>  1 0.64917948E+03</rscale>
<asrwt>0</asrwt>
<pdfrwt beam="1">  1        1 0.38324409E+00 0.64917948E+03</pdfrwt>
<pdfrwt beam="2">0</pdfrwt>
<totfact> 0.15879665E+00</totfact>
</mgrwt>
</event>
<event>
 6    1  0.5237124E-003  0.6520643E+03  0.7818608E-02  0.9802913E-01
          1   -1    0    0  502    0  0.00000000000E+00  0.00000000000E+00  0.10632015651E+03  0.10632015651E+03  0.00000000000E+00 0.  1.
         13   -1    0    0    0    0 -0.00000000000E+00 -0.00000000000E+00 -0.10000000000E+04  0.10000000000E+04  0.00000000000E+00 0.  1.
    9000005    2    1    2  501    0 -0.22993542124E-02 -0.32179271379E-02 -0.89370284212E+03  0.11062968203E+04  0.65206432549E+03 0.  0.
         13    1    3    3    0    0  0.11663226981E+03 -0.10675642531E+03 -0.93059887749E+03  0.94393553354E+03  0.00000000000E+00 0.  1.
          1    1    3    3  501    0 -0.11663456916E+03  0.10675320738E+03  0.36896035372E+02  0.16236128675E+03  0.00000000000E+00 0.  1.
         21    1    1    2  502  501  0.22993542124E-02  0.32179271379E-02  0.22998626209E-01  0.23336214182E-01  0.00000000000E+00 0. -1.
<mgrwt>
<rscale>  1 0.65206433E+03</rscale>
<asrwt>0</asrwt>
<pdfrwt beam="1">  1        1 0.38661957E+00 0.65206433E+03</pdfrwt>
<pdfrwt beam="2">0</pdfrwt>
<totfact> 0.15334863E+00</totfact>
</mgrwt>
</event>
<event>
 6    1  0.5237124E-003  0.6275517E+03  0.7818608E-02  0.9849838E-01
          1   -1    0    0  502    0  0.00000000000E+00  0.00000000000E+00  0.98455298490E+02  0.98455298490E+02  0.00000000000E+00 0.  1.
         13   -1    0    0    0    0 -0.00000000000E+00 -0.00000000000E+00 -0.10000000000E+04  0.10000000000E+04  0.00000000000E+00 0.  1.
    9000005    2    1    2  501    0 -0.13156045213E-05  0.76964226992E-06 -0.90154470512E+03  0.10984552946E+04  0.62755173400E+03 0.  0.
         13    1    3    3    0    0  0.47072816144E+02 -0.29267264900E+03 -0.27071116207E+03  0.40144447033E+03  0.00000000000E+00 0.  1.
          1    1    3    3  501    0 -0.47072817460E+02  0.29267264977E+03 -0.63083354305E+03  0.69701082424E+03  0.00000000000E+00 0.  1.
         21    1    1    2  502  501  0.13156045201E-05 -0.76964231317E-06  0.36097837962E-05  0.39183802264E-05  0.00000000000E+00 0.  1.
<mgrwt>
<rscale>  1 0.62755173E+03</rscale>
<asrwt>0</asrwt>
<pdfrwt beam="1">  1        1 0.35802002E+00 0.62755173E+03</pdfrwt>
<pdfrwt beam="2">0</pdfrwt>
<totfact> 0.20576780E+00</totfact>
</mgrwt>
</event>
<event>
 6    1  0.5237124E-003  0.6557999E+03  0.7818608E-02  0.9795957E-01
          1   -1    0    0  502    0  0.00000000000E+00  0.00000000000E+00  0.10797956322E+03  0.10797956322E+03  0.00000000000E+00 0.  1.
         13   -1    0    0    0    0 -0.00000000000E+00 -0.00000000000E+00 -0.10000000000E+04  0.10000000000E+04  0.00000000000E+00 0.  1.
    9000005    2    1    2  501    0 -0.97685154658E-01  0.37776666198E-01 -0.89247504015E+03  0.11075130510E+04  0.65579985498E+03 0.  0.
         13    1    3    3    0    0 -0.25348885454E+03 -0.18217860071E+02 -0.96278588497E+02  0.27176838743E+03  0.00000000000E+00 0.  1.
          3    1    3    3  501    0  0.25339116939E+03  0.18255636737E+02 -0.79619645165E+03  0.83574466353E+03  0.00000000000E+00 0.  1.
         21    1    1    2  502  501  0.97685154658E-01 -0.37776666198E-01  0.45460336465E+00  0.46651225611E+00  0.00000000000E+00 0.  1.
<mgrwt>
<rscale>  1 0.65579986E+03</rscale>
<asrwt>0</asrwt>
<pdfrwt beam="1">  1        1 0.39265379E+00 0.65579986E+03</pdfrwt>
<pdfrwt beam="2">0</pdfrwt>
<totfact> 0.14408675E+00</totfact>
</mgrwt>
</event>
<event>
 6    1  0.5237124E-003  0.5239790E+03  0.7818608E-02  0.1007703E+00
          1   -1    0    0  502    0  0.00000000000E+00  0.00000000000E+00  0.68640711742E+02  0.68640711742E+02  0.00000000000E+00 0.  1.
         13   -1    0    0    0    0 -0.00000000000E+00 -0.00000000000E+00 -0.10000000000E+04  0.10000000000E+04  0.00000000000E+00 0.  1.
    9000005    2    1    2  501    0  0.28816126837E-02  0.18236914431E-02 -0.93136002458E+03  0.10686372229E+04  0.52397902522E+03 0.  0.
         13    1    3    3    0    0  0.39577694674E+02  0.17940326550E+02 -0.99259887869E+03  0.99354958770E+03  0.00000000000E+00 0.  1.
          3    1    3    3  501    0 -0.39574813062E+02 -0.17938502858E+02  0.61238854116E+02  0.75087635248E+02  0.00000000000E+00 0.  1.
         21    1    1    2  502  501 -0.28816126837E-02 -0.18236914431E-02  0.73631716215E-03  0.34887970852E-02  0.00000000000E+00 0.  1.
<mgrwt>
<rscale>  1 0.52397903E+03</rscale>
<asrwt>0</asrwt>
<pdfrwt beam="1">  1        1 0.24960311E+00 0.52397903E+03</pdfrwt>
<pdfrwt beam="2">0</pdfrwt>
<totfact> 0.61755773E+00</totfact>
</mgrwt>
</event>
<event>
 6    1  0.5237124E-003  0.6041212E+03  0.7818608E-02  0.9896893E-01
          1   -1    0    0  502    0  0.00000000000E+00  0.00000000000E+00  0.91246830889E+02  0.91246830889E+02  0.00000000000E+00 0.  1.
         13   -1    0    0    0    0 -0.00000000000E+00 -0.00000000000E+00 -0.10000000000E+04  0.10000000000E+04  0.00000000000E+00 0.  1.
    9000005    2    1    2  501    0  0.80388179652E-03  0.44970836495E-03 -0.90875935974E+03  0.10912405721E+04  0.60412119006E+03 0.  0.
         13    1    3    3    0    0  0.20905302259E+02  0.27095228262E+03 -0.69257268650E+03  0.74398191995E+03  0.00000000000E+00 0.  1.
          3    1    3    3  501    0 -0.20904498377E+02 -0.27095183291E+03 -0.21618667324E+03  0.34725865216E+03  0.00000000000E+00 0.  1.
         21    1    1    2  502  501 -0.80388179652E-03 -0.44970836499E-03  0.61906341964E-02  0.62587870478E-02  0.00000000000E+00 0. -1.
<mgrwt>
<rscale>  1 0.60412119E+03</rscale>
<asrwt>0</asrwt>
<pdfrwt beam="1">  1        1 0.33180736E+00 0.60412119E+03</pdfrwt>
<pdfrwt beam="2">0</pdfrwt>
<totfact> 0.26867715E+00</totfact>
</mgrwt>
</event>
<event>
 6    1  0.5237124E-003  0.6643024E+03  0.7818608E-02  0.9780306E-01
          1   -1    0    0  502    0  0.00000000000E+00  0.00000000000E+00  0.11040761794E+03  0.11040761794E+03  0.00000000000E+00 0.  1.
         13   -1    0    0    0    0 -0.00000000000E+00 -0.00000000000E+00 -0.10000000000E+04  0.10000000000E+04  0.00000000000E+00 0.  1.
    9000005    2    1    2  501    0  0.13699858229E-01 -0.22961216947E+00 -0.88942257288E+03  0.11101217078E+04  0.66430237102E+03 0.  0.
         13    1    3    3    0    0 -0.51839707544E+02 -0.23982976737E+03 -0.70503243703E+02  0.25529665092E+03  0.00000000000E+00 0.  1.
          3    1    3    3  501    0  0.51853407402E+02  0.23960015520E+03 -0.81891932918E+03  0.85482505692E+03  0.00000000000E+00 0.  1.
         21    1    1    2  502  501 -0.13699858229E-01  0.22961216947E+00 -0.16980917784E+00  0.28591011064E+00  0.00000000000E+00 0. -1.
<mgrwt>
<rscale>  1 0.66430241E+03</rscale>
<asrwt>0</asrwt>
<pdfrwt beam="1">  1        1 0.40148309E+00 0.66430241E+03</pdfrwt>
<pdfrwt beam="2">0</pdfrwt>
<totfact> 0.13140969E+00</totfact>
</mgrwt>
</event>
<event>
 6    1  0.5237124E-003  0.6502208E+03  0.7818608E-02  0.9806365E-01
          1   -1    0    0  502    0  0.00000000000E+00  0.00000000000E+00  0.10676784889E+03  0.10676784889E+03  0.00000000000E+00 0.  1.
         13   -1    0    0    0    0 -0.00000000000E+00 -0.00000000000E+00 -0.10000000000E+04  0.10000000000E+04  0.00000000000E+00 0.  1.
    9000005    2    1    2  501    0  0.10395244596E+00  0.13391353195E-01 -0.89430038223E+03  0.11056944882E+04  0.65022082142E+03 0.  0.
         13    1    3    3    0    0 -0.31324857623E+03  0.68232410409E+02 -0.53841711419E+03  0.62663651441E+03  0.00000000000E+00 0.  1.
          3    1    3    3  501    0  0.31335252867E+03 -0.68219019056E+02 -0.35588326804E+03  0.47905797380E+03  0.00000000000E+00 0.  1.
         21    1    1    2  502  501 -0.10395244596E+00 -0.13391353195E-01  0.10682311152E+01  0.10733606826E+01  0.00000000000E+00 0.  1.
<mgrwt>
<rscale>  1 0.65022083E+03</rscale>
<asrwt>0</asrwt>
<pdfrwt beam="1">  1        1 0.38824754E+00 0.65022083E+03</pdfrwt>
<pdfrwt beam="2">0</pdfrwt>
<totfact> 0.15087550E+00</totfact>
</mgrwt>
</event>
<event>
 6    1  0.5237124E-003  0.6527749E+03  0.7818608E-02  0.9801586E-01
          1   -1    0    0  502    0  0.00000000000E+00  0.00000000000E+00  0.11334740183E+03  0.11334740183E+03  0.00000000000E+00 0.  1.
         13   -1    0    0    0    0 -0.00000000000E+00 -0.00000000000E+00 -0.10000000000E+04  0.10000000000E+04  0.00000000000E+00 0.  1.
    9000005    2    1    2  501    0 -0.31604897510E+01 -0.54365319410E+00 -0.89305148006E+03  0.11061898922E+04  0.65276706977E+03 0.  0.
         13    1    3    3    0    0  0.20246624290E+03 -0.64796767533E+02 -0.86285013062E+03  0.88865153379E+03  0.00000000000E+00 0.  1.
          3    1    3    3  501    0 -0.20562673265E+03  0.64253114339E+02 -0.30201349441E+02  0.21753835844E+03  0.00000000000E+00 0.  1.
         21    1    1    2  502  501  0.31604897510E+01  0.54365319410E+00  0.63988818942E+01  0.71575096058E+01  0.00000000000E+00 0. -1.
<mgrwt>
<rscale>  1 0.65277495E+03</rscale>
<asrwt>0</asrwt>
<pdfrwt beam="1">  1        1 0.41217324E+00 0.65277495E+03</pdfrwt>
<pdfrwt beam="2">0</pdfrwt>
<totfact> 0.11796015E+00</totfact>
</mgrwt>
</event>
<event>
 6    1  0.5237124E-003  0.6630229E+03  0.7818608E-02  0.9782645E-01
          1   -1    0    0  502    0  0.00000000000E+00  0.00000000000E+00  0.11004102761E+03  0.11004102761E+03  0.00000000000E+00 0.  1.
         13   -1    0    0    0    0 -0.00000000000E+00 -0.00000000000E+00 -0.10000000000E+04  0.10000000000E+04  0.00000000000E+00 0.  1.
    9000005    2    1    2  501    0 -0.28026170327E-02  0.28532955659E-03 -0.89010014490E+03  0.11098998270E+04  0.66302289404E+03 0.  0.
         13    1    3    3    0    0 -0.23160050818E+03  0.23697282023E+03 -0.46225737688E+03  0.56875020474E+03  0.00000000000E+00 0.  1.
          1    1    3    3  501    0  0.23159770557E+03 -0.23697253490E+03 -0.42784276802E+03  0.54114962225E+03  0.00000000000E+00 0.  1.
         21    1    1    2  502  501  0.28026170327E-02 -0.28532955657E-03  0.14117250515E+00  0.14120061007E+00  0.00000000000E+00 0. -1.
<mgrwt>
<rscale>  1 0.66302289E+03</rscale>
<asrwt>0</asrwt>
<pdfrwt beam="1">  1        1 0.40015004E+00 0.66302289E+03</pdfrwt>
<pdfrwt beam="2">0</pdfrwt>
<totfact> 0.13325354E+00</totfact>
</mgrwt>
</event>
<event>
 6    1  0.5237124E-003  0.6555062E+03  0.7818608E-02  0.9796502E-01
          1   -1    0    0  502    0  0.00000000000E+00  0.00000000000E+00  0.10751786887E+03  0.10751786887E+03  0.00000000000E+00 0.  1.
         13   -1    0    0    0    0 -0.00000000000E+00 -0.00000000000E+00 -0.10000000000E+04  0.10000000000E+04  0.00000000000E+00 0.  1.
    9000005    2    1    2  501    0  0.44319596128E-04  0.33596589991E-02 -0.89257787253E+03  0.11074220685E+04  0.65550620082E+03 0.  0.
         13    1    3    3    0    0  0.16252151647E+03 -0.11695482437E+02  0.34147144869E+02  0.16648139575E+03  0.00000000000E+00 0.  1.
          1    1    3    3  501    0 -0.16252147216E+03  0.11698842096E+02 -0.92672501740E+03  0.94094067278E+03  0.00000000000E+00 0.  1.
         21    1    1    2  502  501 -0.44319596155E-04 -0.33596589991E-02  0.95741399733E-01  0.95800338703E-01  0.00000000000E+00 0.  1.
<mgrwt>
<rscale>  1 0.65550620E+03</rscale>
<asrwt>0</asrwt>
<pdfrwt beam="1">  1        1 0.39097489E+00 0.65550620E+03</pdfrwt>
<pdfrwt beam="2">0</pdfrwt>
<totfact> 0.14658864E+00</totfact>
</mgrwt>
</event>
<event>
 6    1  0.5237124E-003  0.6484178E+03  0.7818608E-02  0.9809753E-01
          1   -1    0    0  502    0  0.00000000000E+00  0.00000000000E+00  0.10511153968E+03  0.10511153968E+03  0.00000000000E+00 0.  1.
         13   -1    0    0    0    0 -0.00000000000E+00 -0.00000000000E+00 -0.10000000000E+04  0.10000000000E+04  0.00000000000E+00 0.  1.
    9000005    2    1    2  501    0  0.25055870054E-05 -0.39835406938E-04 -0.89488857412E+03  0.11051114191E+04  0.64841783481E+03 0.  0.
         13    1    3    3    0    0 -0.12740729183E+03 -0.29811339833E+03 -0.44286561697E+03  0.54884803996E+03  0.00000000000E+00 0.  1.
          1    1    3    3  501    0  0.12740729433E+03  0.29811335850E+03 -0.45202295714E+03  0.55626337912E+03  0.00000000000E+00 0.  1.
         21    1    1    2  502  501 -0.25055870100E-05  0.39835406966E-04  0.11379457042E-03  0.12059163268E-03  0.00000000000E+00 0.  1.
<mgrwt>
<rscale>  1 0.64841783E+03</rscale>
<asrwt>0</asrwt>
<pdfrwt beam="1">  1        1 0.38222459E+00 0.64841783E+03</pdfrwt>
<pdfrwt beam="2">0</pdfrwt>
<totfact> 0.16047472E+00</totfact>
</mgrwt>
</event>
<event>
 6    1  0.5237124E-003  0.6525814E+03  0.7818608E-02  0.9801947E-01
          1   -1    0    0  502    0  0.00000000000E+00  0.00000000000E+00  0.10740712970E+03  0.10740712970E+03  0.00000000000E+00 0.  1.
         13   -1    0    0    0    0 -0.00000000000E+00 -0.00000000000E+00 -0.10000000000E+04  0.10000000000E+04  0.00000000000E+00 0.  1.
    9000005    2    1    2  501    0 -0.11957680207E+01  0.21020732246E+00 -0.89308018209E+03  0.11060988786E+04  0.65258029655E+03 0.  0.
         13    1    3    3    0    0 -0.22037129975E+03 -0.21781145744E+03 -0.27185254559E+03  0.41220037274E+03  0.00000000000E+00 0.  1.
          3    1    3    3  501    0  0.21917553173E+03  0.21802166476E+03 -0.62122763650E+03  0.69389850581E+03  0.00000000000E+00 0.  1.
         21    1    1    2  502  501  0.11957680207E+01 -0.21020732246E+00  0.48731179307E+00  0.13082511462E+01  0.00000000000E+00 0. -1.
<mgrwt>
<rscale>  1 0.65258143E+03</rscale>
<asrwt>0</asrwt>
<pdfrwt beam="1">  1        1 0.39057220E+00 0.65258143E+03</pdfrwt>
<pdfrwt beam="2">0</pdfrwt>
<totfact> 0.14727293E+00</totfact>
</mgrwt>
</event>
<event>
 6    1  0.5237124E-003  0.6568770E+03  0.7818608E-02  0.9793960E-01
          1   -1    0    0  502    0  0.00000000000E+00  0.00000000000E+00  0.10787674295E+03  0.10787674295E+03  0.00000000000E+00 0.  1.
         13   -1    0    0    0    0 -0.00000000000E+00 -0.00000000000E+00 -0.10000000000E+04  0.10000000000E+04  0.00000000000E+00 0.  1.
    9000005    2    1    2  501    0  0.12795446670E-01 -0.61279389105E-02 -0.89211086266E+03  0.11078579043E+04  0.65687696304E+03 0.  0.
         13    1    3    3    0    0  0.10673743202E+03 -0.30989888801E+03 -0.48163609001E+03  0.58258349048E+03  0.00000000000E+00 0.  1.
          3    1    3    3  501    0 -0.10672463658E+03  0.30989276007E+03 -0.41047477265E+03  0.52527441378E+03  0.00000000000E+00 0.  1.
         21    1    1    2  502  501 -0.12795446670E-01  0.61279389105E-02 -0.12394391200E-01  0.18838684242E-01  0.00000000000E+00 0.  1.
<mgrwt>
<rscale>  1 0.65687696E+03</rscale>
<asrwt>0</asrwt>
<pdfrwt beam="1">  1        1 0.39227989E+00 0.65687696E+03</pdfrwt>
<pdfrwt beam="2">0</pdfrwt>
<totfact> 0.14460968E+00</totfact>
</mgrwt>
</event>
<event>
 6    1  0.5237124E-003  0.6028907E+03  0.7818608E-02  0.9899427E-01
          1   -1    0    0  502    0  0.00000000000E+00  0.00000000000E+00  0.90870782112E+02  0.90870782112E+02  0.00000000000E+00 0.  1.
         13   -1    0    0    0    0 -0.00000000000E+00 -0.00000000000E+00 -0.10000000000E+04  0.10000000000E+04  0.00000000000E+00 0.  1.
    9000005    2    1    2  501    0  0.15495168280E-02 -0.43880551383E-02 -0.90912474798E+03  0.10908643295E+04  0.60289068494E+03 0.  0.
         13    1    3    3    0    0 -0.84269236524E+01  0.23892336101E+03 -0.12233657386E+03  0.26855469234E+03  0.00000000000E+00 0.  1.
          3    1    3    3  501    0  0.84284731692E+01 -0.23892774906E+03 -0.78678817412E+03  0.82230963716E+03  0.00000000000E+00 0.  1.
         21    1    1    2  502  501 -0.15495168280E-02  0.43880551384E-02 -0.44699079980E-02  0.64526047305E-02  0.00000000000E+00 0. -1.
<mgrwt>
<rscale>  1 0.60289068E+03</rscale>
<asrwt>0</asrwt>
<pdfrwt beam="1">  1        1 0.33043990E+00 0.60289068E+03</pdfrwt>
<pdfrwt beam="2">0</pdfrwt>
<totfact> 0.27242692E+00</totfact>
</mgrwt>
</event>
<event>
 6    1  0.5237124E-003  0.6578631E+03  0.7818608E-02  0.9792136E-01
          1   -1    0    0  502    0  0.00000000000E+00  0.00000000000E+00  0.10827439178E+03  0.10827439178E+03  0.00000000000E+00 0.  1.
         13   -1    0    0    0    0 -0.00000000000E+00 -0.00000000000E+00 -0.10000000000E+04  0.10000000000E+04  0.00000000000E+00 0.  1.
    9000005    2    1    2  501    0 -0.33511314018E-03  0.21707301818E-02 -0.89180403322E+03  0.11081959360E+04  0.65786305485E+03 0.  0.
         13    1    3    3    0    0 -0.61894633343E+02  0.21931917077E+03 -0.46327696079E+02  0.23254698391E+03  0.00000000000E+00 0.  1.
          1    1    3    3  501    0  0.61894298230E+02 -0.21931700004E+03 -0.84547633715E+03  0.87564895211E+03  0.00000000000E+00 0.  1.
         21    1    1    2  502  501  0.33511314018E-03 -0.21707301818E-02  0.78425002958E-01  0.78455754788E-01  0.00000000000E+00 0.  1.
<mgrwt>
<rscale>  1 0.65786305E+03</rscale>
<asrwt>0</asrwt>
<pdfrwt beam="1">  1        1 0.39372589E+00 0.65786305E+03</pdfrwt>
<pdfrwt beam="2">0</pdfrwt>
<totfact> 0.14246057E+00</totfact>
</mgrwt>
</event>
<event>
 6    1  0.5237124E-003  0.6498795E+03  0.7818608E-02  0.9807005E-01
          1   -1    0    0  502    0  0.00000000000E+00  0.00000000000E+00  0.10559219495E+03  0.10559219495E+03  0.00000000000E+00 0.  1.
         13   -1    0    0    0    0 -0.00000000000E+00 -0.00000000000E+00 -0.10000000000E+04  0.10000000000E+04  0.00000000000E+00 0.  1.
    9000005    2    1    2  501    0 -0.24120434962E-02  0.29848888660E-02 -0.89441351216E+03  0.11055853176E+04  0.64987949932E+03 0.  0.
         13    1    3    3    0    0 -0.21384250972E+03  0.11373809040E+02 -0.86297480510E+03  0.88914762370E+03  0.00000000000E+00 0.  1.
          1    1    3    3  501    0  0.21384009768E+03 -0.11370824151E+02 -0.31438707061E+02  0.21643769385E+03  0.00000000000E+00 0.  1.
         21    1    1    2  502  501  0.24120434962E-02 -0.29848888660E-02  0.57071063251E-02  0.68773961625E-02  0.00000000000E+00 0. -1.
<mgrwt>
<rscale>  1 0.64987950E+03</rscale>
<asrwt>0</asrwt>
<pdfrwt beam="1">  1        1 0.38397243E+00 0.64987950E+03</pdfrwt>
<pdfrwt beam="2">0</pdfrwt>
<totfact> 0.15760351E+00</totfact>
</mgrwt>
</event>
<event>
 6    1  0.5237124E-003  0.6520615E+03  0.7818608E-02  0.9802919E-01
          1   -1    0    0  502    0  0.00000000000E+00  0.00000000000E+00  0.10640321879E+03  0.10640321879E+03  0.00000000000E+00 0.  1.
         13   -1    0    0    0    0 -0.00000000000E+00 -0.00000000000E+00 -0.10000000000E+04  0.10000000000E+04  0.00000000000E+00 0.  1.
    9000005    2    1    2  501    0  0.43296365504E-02  0.15250412338E-02 -0.89370388699E+03  0.11062960147E+04  0.65206152660E+03 0.  0.
         13    1    3    3    0    0 -0.19432453598E+03 -0.48239449356E+02 -0.10302336080E+02  0.20048742576E+03  0.00000000000E+00 0.  1.
          1    1    3    3  501    0  0.19432886562E+03  0.48240974397E+02 -0.88340155091E+03  0.90580858893E+03  0.00000000000E+00 0.  1.
         21    1    1    2  502  501 -0.43296365503E-02 -0.15250412338E-02  0.10710578419E+00  0.10720410678E+00  0.00000000000E+00 0. -1.
<mgrwt>
<rscale>  1 0.65206153E+03</rscale>
<asrwt>0</asrwt>
<pdfrwt beam="1">  1        1 0.38692161E+00 0.65206153E+03</pdfrwt>
<pdfrwt beam="2">0</pdfrwt>
<totfact> 0.15287726E+00</totfact>
</mgrwt>
</event>
<event>
 6    1  0.5237124E-003  0.6537673E+03  0.7818608E-02  0.9799736E-01
          3   -1    0    0  502    0  0.00000000000E+00  0.00000000000E+00  0.10685380190E+03  0.10685380190E+03  0.00000000000E+00 0.  1.
         13   -1    0    0    0    0 -0.00000000000E+00 -0.00000000000E+00 -0.10000000000E+04  0.10000000000E+04  0.00000000000E+00 0.  1.
    9000005    2    1    2  501    0 -0.17792543937E-03  0.12424800568E-03 -0.89314707526E+03  0.11068528983E+04  0.65376726776E+03 0.  0.
         13    1    3    3    0    0 -0.21237068897E+03  0.24817504073E+03 -0.42510355809E+03  0.53610185177E+03  0.00000000000E+00 0.  1.
          3    1    3    3  501    0  0.21237051104E+03 -0.24817491648E+03 -0.46804351718E+03  0.57075104652E+03  0.00000000000E+00 0.  1.
         21    1    1    2  502  501  0.17792543937E-03 -0.12424800567E-03  0.87716824882E-03  0.90361450056E-03  0.00000000000E+00 0.  1.
<mgrwt>
<rscale>  1 0.65376727E+03</rscale>
<asrwt>0</asrwt>
<pdfrwt beam="1">  1        3 0.38856010E+00 0.65376727E+03</pdfrwt>
<pdfrwt beam="2">0</pdfrwt>
<totfact> 0.67984760E-02</totfact>
</mgrwt>
</event>
<event>
 6    1  0.5237124E-003  0.6525037E+03  0.7818608E-02  0.9802092E-01
          1   -1    0    0  502    0  0.00000000000E+00  0.00000000000E+00  0.10790437502E+03  0.10790437502E+03  0.00000000000E+00 0.  1.
         13   -1    0    0    0    0 -0.00000000000E+00 -0.00000000000E+00 -0.10000000000E+04  0.10000000000E+04  0.00000000000E+00 0.  1.
    9000005    2    1    2  501    0  0.25067396745E-01 -0.76630660258E-01 -0.89355849053E+03  0.11064392893E+04  0.65250373052E+03 0.  0.
         13    1    3    3    0    0  0.21073246597E+03  0.12460424962E+03 -0.81109294401E+02  0.25790135493E+03  0.00000000000E+00 0.  1.
          1    1    3    3  501    0 -0.21070739857E+03 -0.12468088028E+03 -0.81244919613E+03  0.84853793434E+03  0.00000000000E+00 0.  1.
         21    1    1    2  502  501 -0.25067396745E-01  0.76630660258E-01  0.14628655487E+01  0.14650857470E+01  0.00000000000E+00 0. -1.
<mgrwt>
<rscale>  1 0.65250374E+03</rscale>
<asrwt>0</asrwt>
<pdfrwt beam="1">  1        1 0.39238037E+00 0.65250374E+03</pdfrwt>
<pdfrwt beam="2">0</pdfrwt>
<totfact> 0.14457894E+00</totfact>
</mgrwt>
</event>
<event>
 6    1  0.5237124E-003  0.6378682E+03  0.7818608E-02  0.9829814E-01
          1   -1    0    0  502    0  0.00000000000E+00  0.00000000000E+00  0.10237681326E+03  0.10237681326E+03  0.00000000000E+00 0.  1.
         13   -1    0    0    0    0 -0.00000000000E+00 -0.00000000000E+00 -0.10000000000E+04  0.10000000000E+04  0.00000000000E+00 0.  1.
    9000005    2    1    2  501    0  0.20386423164E+00 -0.27450183913E+00 -0.89823176312E+03  0.11016787609E+04  0.63786807023E+03 0.  0.
         13    1    3    3    0    0 -0.29488238533E+03  0.89908033530E+02 -0.30866894495E+03  0.43625175444E+03  0.00000000000E+00 0.  1.
          1    1    3    3  501    0  0.29508624956E+03 -0.90182535369E+02 -0.58956281817E+03  0.66542700646E+03  0.00000000000E+00 0.  1.
         21    1    1    2  502  501 -0.20386423164E+00  0.27450183913E+00  0.60857638164E+00  0.69805235973E+00  0.00000000000E+00 0. -1.
<mgrwt>
<rscale>  1 0.63786816E+03</rscale>
<asrwt>0</asrwt>
<pdfrwt beam="1">  1        1 0.37228011E+00 0.63786816E+03</pdfrwt>
<pdfrwt beam="2">0</pdfrwt>
<totfact> 0.17785526E+00</totfact>
</mgrwt>
</event>
<event>
 6    1  0.5237124E-003  0.6464511E+03  0.7818608E-02  0.9813461E-01
          1   -1    0    0  502    0  0.00000000000E+00  0.00000000000E+00  0.10628147083E+03  0.10628147083E+03  0.00000000000E+00 0.  1.
         13   -1    0    0    0    0 -0.00000000000E+00 -0.00000000000E+00 -0.10000000000E+04  0.10000000000E+04  0.00000000000E+00 0.  1.
    9000005    2    1    2  501    0 -0.10173433218E+00  0.12903664899E-01 -0.89552364802E+03  0.11044734414E+04  0.64645105619E+03 0.  0.
         13    1    3    3    0    0 -0.23669707364E+03 -0.14883127914E+03 -0.17062546744E+03  0.32755046093E+03  0.00000000000E+00 0.  1.
          3    1    3    3  501    0  0.23659533931E+03  0.14884418281E+03 -0.72489818059E+03  0.77692298045E+03  0.00000000000E+00 0.  1.
         21    1    1    2  502  501  0.10173433218E+00 -0.12903664899E-01  0.18051188584E+01  0.18080294444E+01  0.00000000000E+00 0. -1.
<mgrwt>
<rscale>  1 0.64645106E+03</rscale>
<asrwt>0</asrwt>
<pdfrwt beam="1">  1        1 0.38647889E+00 0.64645106E+03</pdfrwt>
<pdfrwt beam="2">0</pdfrwt>
<totfact> 0.15372865E+00</totfact>
</mgrwt>
</event>
<event>
 6    1  0.5237124E-003  0.6642859E+03  0.7818608E-02  0.9780336E-01
          1   -1    0    0  502    0  0.00000000000E+00  0.00000000000E+00  0.11032156255E+03  0.11032156255E+03  0.00000000000E+00 0.  1.
         13   -1    0    0    0    0 -0.00000000000E+00 -0.00000000000E+00 -0.10000000000E+04  0.10000000000E+04  0.00000000000E+00 0.  1.
    9000005    2    1    2  501    0 -0.13113969506E-03  0.65484905653E-03 -0.88968102763E+03  0.11103188877E+04  0.66428585818E+03 0.  0.
         13    1    3    3    0    0 -0.38292803223E+02 -0.25272155577E+03 -0.79934564417E+03  0.83921867376E+03  0.00000000000E+00 0.  1.
          1    1    3    3  501    0  0.38292672084E+02  0.25272221062E+03 -0.90335383456E+02  0.27110021390E+03  0.00000000000E+00 0.  1.
         21    1    1    2  502  501  0.13113969506E-03 -0.65484905652E-03  0.25901798047E-02  0.26748937039E-02  0.00000000000E+00 0. -1.
<mgrwt>
<rscale>  1 0.66428586E+03</rscale>
<asrwt>0</asrwt>
<pdfrwt beam="1">  1        1 0.40117016E+00 0.66428586E+03</pdfrwt>
<pdfrwt beam="2">0</pdfrwt>
<totfact> 0.13183335E+00</totfact>
</mgrwt>
</event>
<event>
 6    1  0.5237124E-003  0.6520215E+03  0.7818608E-02  0.9802993E-01
          1   -1    0    0  502    0  0.00000000000E+00  0.00000000000E+00  0.10628332830E+03  0.10628332830E+03  0.00000000000E+00 0.  1.
         13   -1    0    0    0    0 -0.00000000000E+00 -0.00000000000E+00 -0.10000000000E+04  0.10000000000E+04  0.00000000000E+00 0.  1.
    9000005    2    1    2  501    0  0.30967297022E-04 -0.85162159991E-04 -0.89371698768E+03  0.11062829996E+04  0.65202148822E+03 0.  0.
         13    1    3    3    0    0  0.12349386947E+03 -0.21564677257E+03 -0.88824239047E+02  0.26390151905E+03  0.00000000000E+00 0.  1.
          1    1    3    3  501    0 -0.12349383851E+03  0.21564668740E+03 -0.80489274863E+03  0.84238148053E+03  0.00000000000E+00 0.  1.
         21    1    1    2  502  501 -0.30967297020E-04  0.85162159970E-04  0.31597646503E-03  0.32871369522E-03  0.00000000000E+00 0.  1.
<mgrwt>
<rscale>  1 0.65202149E+03</rscale>
<asrwt>0</asrwt>
<pdfrwt beam="1">  1        1 0.38648565E+00 0.65202149E+03</pdfrwt>
<pdfrwt beam="2">0</pdfrwt>
<totfact> 0.15355932E+00</totfact>
</mgrwt>
</event>
<event>
 6    1  0.5237124E-003  0.6432098E+03  0.7818608E-02  0.9819605E-01
          1   -1    0    0  502    0  0.00000000000E+00  0.00000000000E+00  0.10349514499E+03  0.10349514499E+03  0.00000000000E+00 0.  1.
         13   -1    0    0    0    0 -0.00000000000E+00 -0.00000000000E+00 -0.10000000000E+04  0.10000000000E+04  0.00000000000E+00 0.  1.
    9000005    2    1    2  501    0  0.47960139225E-01  0.17795623687E-01 -0.89655906741E+03  0.11034206075E+04  0.64320982034E+03 0.  0.
         13    1    3    3    0    0  0.13481718442E+02 -0.31542299020E+03 -0.34319818285E+03  0.46632436371E+03  0.00000000000E+00 0.  1.
          1    1    3    3  501    0 -0.13433758303E+02  0.31544078583E+03 -0.55336088456E+03  0.63709624374E+03  0.00000000000E+00 0.  1.
         21    1    1    2  502  501 -0.47960139225E-01 -0.17795623687E-01  0.54212402121E-01  0.74537532295E-01  0.00000000000E+00 0. -1.
<mgrwt>
<rscale>  1 0.64320982E+03</rscale>
<asrwt>0</asrwt>
<pdfrwt beam="1">  1        1 0.37634678E+00 0.64320982E+03</pdfrwt>
<pdfrwt beam="2">0</pdfrwt>
<totfact> 0.17050910E+00</totfact>
</mgrwt>
</event>
<event>
 6    1  0.5237124E-003  0.6546198E+03  0.7818608E-02  0.9798149E-01
          1   -1    0    0  502    0  0.00000000000E+00  0.00000000000E+00  0.10713191626E+03  0.10713191626E+03  0.00000000000E+00 0.  1.
         13   -1    0    0    0    0 -0.00000000000E+00 -0.00000000000E+00 -0.10000000000E+04  0.10000000000E+04  0.00000000000E+00 0.  1.
    9000005    2    1    2  501    0  0.64105734623E-05 -0.10507543266E-04 -0.89286822687E+03  0.11071317726E+04  0.65461980673E+03 0.  0.
         13    1    3    3    0    0  0.24886863247E+03 -0.11490757592E+03 -0.14392827027E+03  0.30960409270E+03  0.00000000000E+00 0.  1.
          3    1    3    3  501    0 -0.24886862606E+03  0.11490756541E+03 -0.74893995660E+03  0.79752767991E+03  0.00000000000E+00 0.  1.
         21    1    1    2  502  501 -0.64105734735E-05  0.10507543267E-04  0.14313042628E-03  0.14365870264E-03  0.00000000000E+00 0.  1.
<mgrwt>
<rscale>  1 0.65461981E+03</rscale>
<asrwt>0</asrwt>
<pdfrwt beam="1">  1        1 0.38957143E+00 0.65461981E+03</pdfrwt>
<pdfrwt beam="2">0</pdfrwt>
<totfact> 0.14872936E+00</totfact>
</mgrwt>
</event>
<event>
 6    1  0.5237124E-003  0.6694926E+03  0.7818608E-02  0.9770875E-01
          1   -1    0    0  502    0  0.00000000000E+00  0.00000000000E+00  0.11234711248E+03  0.11234711248E+03  0.00000000000E+00 0.  1.
         13   -1    0    0    0    0 -0.00000000000E+00 -0.00000000000E+00 -0.10000000000E+04  0.10000000000E+04  0.00000000000E+00 0.  1.
    9000005    2    1    2  501    0 -0.33177119241E-01 -0.47990536038E-01 -0.88794167556E+03  0.11120524901E+04  0.66949258261E+03 0.  0.
         13    1    3    3    0    0  0.22710765302E+03  0.24587124092E+03 -0.44771739693E+03  0.55900037628E+03  0.00000000000E+00 0.  1.
          3    1    3    3  501    0 -0.22714083014E+03 -0.24591923145E+03 -0.44022427863E+03  0.55305211383E+03  0.00000000000E+00 0.  1.
         21    1    1    2  502  501  0.33177119241E-01  0.47990536038E-01  0.28878803755E+00  0.29462237428E+00  0.00000000000E+00 0.  1.
<mgrwt>
<rscale>  1 0.66949259E+03</rscale>
<asrwt>0</asrwt>
<pdfrwt beam="1">  1        1 0.40853582E+00 0.66949259E+03</pdfrwt>
<pdfrwt beam="2">0</pdfrwt>
<totfact> 0.12208472E+00</totfact>
</mgrwt>
</event>
<event>
 6    1  0.5237124E-003  0.6455083E+03  0.7818608E-02  0.9815244E-01
          1   -1    0    0  502    0  0.00000000000E+00  0.00000000000E+00  0.10419684619E+03  0.10419684619E+03  0.00000000000E+00 0.  1.
         13   -1    0    0    0    0 -0.00000000000E+00 -0.00000000000E+00 -0.10000000000E+04  0.10000000000E+04  0.00000000000E+00 0.  1.
    9000005    2    1    2  501    0  0.68669740951E-01 -0.37980338733E-01 -0.89573182329E+03  0.11040907987E+04  0.64550831617E+03 0.  0.
         13    1    3    3    0    0 -0.31318435482E+02  0.24449589114E+03 -0.91516210657E+02  0.26293402594E+03  0.00000000000E+00 0.  1.
          3    1    3    3  501    0  0.31387105223E+02 -0.24453387147E+03 -0.80421561264E+03  0.84115677271E+03  0.00000000000E+00 0.  1.
         21    1    1    2  502  501 -0.68669740951E-01  0.37980338733E-01 -0.71330512217E-01  0.10604754323E+00  0.00000000000E+00 0. -1.
<mgrwt>
<rscale>  1 0.64550832E+03</rscale>
<asrwt>0</asrwt>
<pdfrwt beam="1">  1        1 0.37889842E+00 0.64550832E+03</pdfrwt>
<pdfrwt beam="2">0</pdfrwt>
<totfact> 0.16608060E+00</totfact>
</mgrwt>
</event>
<event>
 6    1  0.5237124E-003  0.6387986E+03  0.7818608E-02  0.9828028E-01
          1   -1    0    0  502    0  0.00000000000E+00  0.00000000000E+00  0.10508162359E+03  0.10508162359E+03  0.00000000000E+00 0.  1.
         13   -1    0    0    0    0 -0.00000000000E+00 -0.00000000000E+00 -0.10000000000E+04  0.10000000000E+04  0.00000000000E+00 0.  1.
    9000005    2    1    2  501    0  0.53299225216E+00 -0.17958922699E+00 -0.89795563562E+03  0.11019927279E+04  0.63879835042E+03 0.  0.
         13    1    3    3    0    0 -0.14215044434E+03 -0.22554125439E+03 -0.14563062707E+03  0.30378262919E+03  0.00000000000E+00 0.  1.
          3    1    3    3  501    0  0.14268343660E+03  0.22536166516E+03 -0.75232500855E+03  0.79821009872E+03  0.00000000000E+00 0.  1.
         21    1    1    2  502  501 -0.53299225216E+00  0.17958922699E+00  0.30372592099E+01  0.30888956829E+01  0.00000000000E+00 0.  1.
<mgrwt>
<rscale>  1 0.63879860E+03</rscale>
<asrwt>0</asrwt>
<pdfrwt beam="1">  1        1 0.38211580E+00 0.63879860E+03</pdfrwt>
<pdfrwt beam="2">0</pdfrwt>
<totfact> 0.16093895E+00</totfact>
</mgrwt>
</event>
<event>
 6    1  0.5237124E-003  0.6541077E+03  0.7818608E-02  0.9799102E-01
          1   -1    0    0  502    0  0.00000000000E+00  0.00000000000E+00  0.10696865677E+03  0.10696865677E+03  0.00000000000E+00 0.  1.
         13   -1    0    0    0    0 -0.00000000000E+00 -0.00000000000E+00 -0.10000000000E+04  0.10000000000E+04  0.00000000000E+00 0.  1.
    9000005    2    1    2  501    0  0.56603807707E-03 -0.27366895577E-03 -0.89303575871E+03  0.11069641968E+04  0.65410768729E+03 0.  0.
         13    1    3    3    0    0 -0.26306289898E+03  0.14289013728E+03 -0.66939349305E+03  0.73328529830E+03  0.00000000000E+00 0.  1.
          1    1    3    3  501    0  0.26306346502E+03 -0.14289041095E+03 -0.22364226565E+03  0.37367889846E+03  0.00000000000E+00 0.  1.
         21    1    1    2  502  501 -0.56603807706E-03  0.27366895578E-03  0.44154803219E-02  0.44600179680E-02  0.00000000000E+00 0.  1.
<mgrwt>
<rscale>  1 0.65410769E+03</rscale>
<asrwt>0</asrwt>
<pdfrwt beam="1">  1        1 0.38897775E+00 0.65410769E+03</pdfrwt>
<pdfrwt beam="2">0</pdfrwt>
<totfact> 0.14964759E+00</totfact>
</mgrwt>
</event>
<event>
 6    1  0.5237124E-003  0.6324718E+03  0.7818608E-02  0.9840237E-01
          3   -1    0    0  502    0  0.00000000000E+00  0.00000000000E+00  0.10051958712E+03  0.10051958712E+03  0.00000000000E+00 0.  1.
         13   -1    0    0    0    0 -0.00000000000E+00 -0.00000000000E+00 -0.10000000000E+04  0.10000000000E+04  0.00000000000E+00 0.  1.
    9000005    2    1    2  501    0  0.10220432976E-01 -0.39607438834E-02 -0.89999478462E+03  0.11000050986E+04  0.63247182110E+03 0.  0.
         13    1    3    3    0    0  0.20988843342E+03 -0.30262772998E+02 -0.85802725067E+03  0.88384373778E+03  0.00000000000E+00 0.  1.
          1    1    3    3  501    0 -0.20987821299E+03  0.30258812254E+02 -0.41967533947E+02  0.21616136082E+03  0.00000000000E+00 0.  1.
         21    1    1    2  502  501 -0.10220432976E-01  0.39607438834E-02  0.51437174363E+00  0.51448851822E+00  0.00000000000E+00 0.  1.
<mgrwt>
<rscale>  1 0.63247182E+03</rscale>
<asrwt>0</asrwt>
<pdfrwt beam="1">  1        3 0.36552654E+00 0.63247182E+03</pdfrwt>
<pdfrwt beam="2">0</pdfrwt>
<totfact> 0.90300334E-02</totfact>
</mgrwt>
</event>
<event>
 6    1  0.5237124E-003  0.6493582E+03  0.7818608E-02  0.9807984E-01
          1   -1    0    0  502    0  0.00000000000E+00  0.00000000000E+00  0.10578171628E+03  0.10578171628E+03  0.00000000000E+00 0.  1.
         13   -1    0    0    0    0 -0.00000000000E+00 -0.00000000000E+00 -0.10000000000E+04  0.10000000000E+04  0.00000000000E+00 0.  1.
    9000005    2    1    2  501    0 -0.14488529667E-02 -0.62892361146E-02 -0.89458346567E+03  0.11054164773E+04  0.64935815326E+03 0.  0.
         13    1    3    3    0    0 -0.71550443596E+02  0.14895322093E+03  0.28475121272E+02  0.16768232029E+03  0.00000000000E+00 0.  1.
          1    1    3    3  501    0  0.71548994743E+02 -0.14895951017E+03 -0.92305858694E+03  0.93773415702E+03  0.00000000000E+00 0.  1.
         21    1    1    2  502  501  0.14488529667E-02  0.62892361146E-02  0.36518194310E+00  0.36523897003E+00  0.00000000000E+00 0.  1.
<mgrwt>
<rscale>  1 0.64935815E+03</rscale>
<asrwt>0</asrwt>
<pdfrwt beam="1">  1        1 0.38466160E+00 0.64935815E+03</pdfrwt>
<pdfrwt beam="2">0</pdfrwt>
<totfact> 0.15651660E+00</totfact>
</mgrwt>
</event>
<event>
 6    1  0.7829937E-003  0.6088300E+03  0.7818608E-02  0.9887254E-01
          1   -1    0    0  502    0  0.00000000000E+00  0.00000000000E+00  0.92668632050E+02  0.92668632050E+02  0.00000000000E+00 0.  1.
         13   -1    0    0    0    0 -0.00000000000E+00 -0.00000000000E+00 -0.10000000000E+04  0.10000000000E+04  0.00000000000E+00 0.  1.
    9000005    2    1    2  501    0  0.25572822570E-03 -0.27955895169E-03 -0.90733110651E+03  0.10926681717E+04  0.60883002279E+03 0.  0.
         13    1    3    3    0    0  0.11767447470E+03 -0.72700942323E+02  0.33012377431E+02  0.14220592841E+03  0.00000000000E+00 0.  1.
          1    1    3    3  501    0 -0.11767421897E+03  0.72700662764E+02 -0.94034348394E+03  0.95046224332E+03  0.00000000000E+00 0.  1.
         21    1    1    2  502  501 -0.25572822570E-03  0.27955895169E-03 -0.26143693994E-03  0.46032532676E-03  0.00000000000E+00 0.  1.
<mgrwt>
<rscale>  1 0.60883002E+03</rscale>
<asrwt>0</asrwt>
<pdfrwt beam="1">  1        1 0.33697755E+00 0.60883002E+03</pdfrwt>
<pdfrwt beam="2">0</pdfrwt>
<totfact> 0.25494604E+00</totfact>
</mgrwt>
</event>
<event>
 6    1  0.5237124E-003  0.6539846E+03  0.7818608E-02  0.9799331E-01
          1   -1    0    0  502    0  0.00000000000E+00  0.00000000000E+00  0.10692503776E+03  0.10692503776E+03  0.00000000000E+00 0.  1.
         13   -1    0    0    0    0 -0.00000000000E+00 -0.00000000000E+00 -0.10000000000E+04  0.10000000000E+04  0.00000000000E+00 0.  1.
    9000005    2    1    2  501    0 -0.39111045908E-04  0.15760540623E-03 -0.89307602017E+03  0.11069239674E+04  0.65398462664E+03 0.  0.
         13    1    3    3    0    0 -0.24889106815E+03  0.15040436349E+03 -0.69961064587E+03  0.75764324862E+03  0.00000000000E+00 0.  1.
          1    1    3    3  501    0  0.24889102904E+03 -0.15040420589E+03 -0.19346537430E+03  0.34928071882E+03  0.00000000000E+00 0.  1.
         21    1    1    2  502  501  0.39111045894E-04 -0.15760540621E-03  0.10579374084E-02  0.10703273789E-02  0.00000000000E+00 0.  1.
<mgrwt>
<rscale>  1 0.65398463E+03</rscale>
<asrwt>0</asrwt>
<pdfrwt beam="1">  1        1 0.38881914E+00 0.65398463E+03</pdfrwt>
<pdfrwt beam="2">0</pdfrwt>
<totfact> 0.14989344E+00</totfact>
</mgrwt>
</event>
<event>
 6    1  0.5237124E-003  0.6382704E+03  0.7818608E-02  0.9829041E-01
          1   -1    0    0  502    0  0.00000000000E+00  0.00000000000E+00  0.10190679447E+03  0.10190679447E+03  0.00000000000E+00 0.  1.
         13   -1    0    0    0    0 -0.00000000000E+00 -0.00000000000E+00 -0.10000000000E+04  0.10000000000E+04  0.00000000000E+00 0.  1.
    9000005    2    1    2  501    0 -0.23898661796E-02  0.75160997787E-03 -0.89815269286E+03  0.11018472544E+04  0.63827040692E+03 0.  0.
         13    1    3    3    0    0  0.23265128764E+03  0.11499277202E+03 -0.12844365359E+03  0.28956472749E+03  0.00000000000E+00 0.  1.
          3    1    3    3  501    0 -0.23265367750E+03 -0.11499202041E+03 -0.76970903927E+03  0.81228252692E+03  0.00000000000E+00 0.  1.
         21    1    1    2  502  501  0.23898661795E-02 -0.75160997787E-03  0.59487325626E-01  0.59540056164E-01  0.00000000000E+00 0.  1.
<mgrwt>
<rscale>  1 0.63827041E+03</rscale>
<asrwt>0</asrwt>
<pdfrwt beam="1">  1        1 0.37057094E+00 0.63827041E+03</pdfrwt>
<pdfrwt beam="2">0</pdfrwt>
<totfact> 0.18094462E+00</totfact>
</mgrwt>
</event>
<event>
 6    1  0.5237124E-003  0.6379047E+03  0.7818608E-02  0.9829744E-01
          1   -1    0    0  502    0  0.00000000000E+00  0.00000000000E+00  0.10173318138E+03  0.10173318138E+03  0.00000000000E+00 0.  1.
         13   -1    0    0    0    0 -0.00000000000E+00 -0.00000000000E+00 -0.10000000000E+04  0.10000000000E+04  0.00000000000E+00 0.  1.
    9000005    2    1    2  501    0 -0.23958673160E-02  0.63056369265E-02 -0.89826320465E+03  0.11017255288E+04  0.63790466052E+03 0.  0.
         13    1    3    3    0    0  0.13931882931E+03 -0.16119219237E+03 -0.39195626349E+02  0.21663092163E+03  0.00000000000E+00 0.  1.
          3    1    3    3  501    0 -0.13932122517E+03  0.16119849801E+03 -0.85906757830E+03  0.88509460716E+03  0.00000000000E+00 0.  1.
         21    1    1    2  502  501  0.23958673160E-02 -0.63056369265E-02 -0.36139752972E-02  0.76525848374E-02  0.00000000000E+00 0.  1.
<mgrwt>
<rscale>  1 0.63790466E+03</rscale>
<asrwt>0</asrwt>
<pdfrwt beam="1">  1        1 0.36993962E+00 0.63790466E+03</pdfrwt>
<pdfrwt beam="2">0</pdfrwt>
<totfact> 0.18211578E+00</totfact>
</mgrwt>
</event>
<event>
 6    1  0.5237124E-003  0.6267190E+03  0.7818608E-02  0.9851472E-01
          1   -1    0    0  502    0  0.00000000000E+00  0.00000000000E+00  0.98194211993E+02  0.98194211993E+02  0.00000000000E+00 0.  1.
         13   -1    0    0    0    0 -0.00000000000E+00 -0.00000000000E+00 -0.10000000000E+04  0.10000000000E+04  0.00000000000E+00 0.  1.
    9000005    2    1    2  501    0  0.23144701203E-04  0.16600237302E-04 -0.90180581397E+03  0.10981941735E+04  0.62671900920E+03 0.  0.
         13    1    3    3    0    0 -0.81202011934E+02 -0.20371824486E+03 -0.58689856932E+02  0.22702288285E+03  0.00000000000E+00 0.  1.
          1    1    3    3  501    0  0.81202035079E+02  0.20371826146E+03 -0.84311595704E+03  0.87117129060E+03  0.00000000000E+00 0.  1.
         21    1    1    2  502  501 -0.23144701202E-04 -0.16600237296E-04  0.25965462311E-04  0.38541539993E-04  0.00000000000E+00 0.  1.
<mgrwt>
<rscale>  1 0.62671901E+03</rscale>
<asrwt>0</asrwt>
<pdfrwt beam="1">  1        1 0.35707061E+00 0.62671901E+03</pdfrwt>
<pdfrwt beam="2">0</pdfrwt>
<totfact> 0.20777379E+00</totfact>
</mgrwt>
</event>
<event>
 6    1  0.5237124E-003  0.6542678E+03  0.7818608E-02  0.9798804E-01
          1   -1    0    0  502    0  0.00000000000E+00  0.00000000000E+00  0.11044709596E+03  0.11044709596E+03  0.00000000000E+00 0.  1.
         13   -1    0    0    0    0 -0.00000000000E+00 -0.00000000000E+00 -0.10000000000E+04  0.10000000000E+04  0.00000000000E+00 0.  1.
    9000005    2    1    2  501    0  0.20383516936E+01 -0.20893395465E+01 -0.89228213436E+03  0.11064509834E+04  0.65426130191E+03 0.  0.
         13    1    3    3    0    0  0.26908903355E+03 -0.18455285622E+03 -0.38302508605E+03  0.50316685231E+03  0.00000000000E+00 0.  1.
          1    1    3    3  501    0 -0.26705068185E+03  0.18246351668E+03 -0.50925704830E+03  0.60328413111E+03  0.00000000000E+00 0.  1.
         21    1    1    2  502  501 -0.20383516936E+01  0.20893395465E+01  0.27292303162E+01  0.39961125467E+01  0.00000000000E+00 0. -1.
<mgrwt>
<rscale>  1 0.65426781E+03</rscale>
<asrwt>0</asrwt>
<pdfrwt beam="1">  1        1 0.40162665E+00 0.65426781E+03</pdfrwt>
<pdfrwt beam="2">0</pdfrwt>
<totfact> 0.13146447E+00</totfact>
</mgrwt>
</event>
<event>
 6    1  0.5237124E-003  0.6404115E+03  0.7818608E-02  0.9824940E-01
          1   -1    0    0  502    0  0.00000000000E+00  0.00000000000E+00  0.10253190693E+03  0.10253190693E+03  0.00000000000E+00 0.  1.
         13   -1    0    0    0    0 -0.00000000000E+00 -0.00000000000E+00 -0.10000000000E+04  0.10000000000E+04  0.00000000000E+00 0.  1.
    9000005    2    1    2  501    0  0.17432084491E-04 -0.13101271179E-08 -0.89746827231E+03  0.11025317268E+04  0.64041151527E+03 0.  0.
         13    1    3    3    0    0  0.23284816661E+03  0.16622210778E+03 -0.20113690469E+03  0.34972004838E+03  0.00000000000E+00 0.  1.
          3    1    3    3  501    0 -0.23284814918E+03 -0.16622210779E+03 -0.69633136762E+03  0.75281167846E+03  0.00000000000E+00 0.  1.
         21    1    1    2  502  501 -0.17432084501E-04  0.13101230993E-08  0.17923889732E-03  0.18008459092E-03  0.00000000000E+00 0. -1.
<mgrwt>
<rscale>  1 0.64041152E+03</rscale>
<asrwt>0</asrwt>
<pdfrwt beam="1">  1        1 0.37284408E+00 0.64041152E+03</pdfrwt>
<pdfrwt beam="2">0</pdfrwt>
<totfact> 0.17676047E+00</totfact>
</mgrwt>
</event>
<event>
 6    1  0.5237124E-003  0.6549012E+03  0.7818608E-02  0.9797626E-01
          1   -1    0    0  502    0  0.00000000000E+00  0.00000000000E+00  0.11005326178E+03  0.11005326178E+03  0.00000000000E+00 0.  1.
         13   -1    0    0    0    0 -0.00000000000E+00 -0.00000000000E+00 -0.10000000000E+04  0.10000000000E+04  0.00000000000E+00 0.  1.
    9000005    2    1    2  501    0 -0.19679292624E+00 -0.16256858227E+00 -0.89276974081E+03  0.11072187425E+04  0.65490111351E+03 0.  0.
         13    1    3    3    0    0  0.17322029804E+02 -0.23607621598E+03 -0.63803607483E+02  0.24515899493E+03  0.00000000000E+00 0.  1.
          3    1    3    3  501    0 -0.17518822731E+02  0.23591364739E+03 -0.82896613332E+03  0.86205974756E+03  0.00000000000E+00 0.  1.
         21    1    1    2  502  501  0.19679292624E+00  0.16256858227E+00  0.28230025869E+01  0.28345192900E+01  0.00000000000E+00 0.  1.
<mgrwt>
<rscale>  1 0.65490116E+03</rscale>
<asrwt>0</asrwt>
<pdfrwt beam="1">  1        1 0.40019452E+00 0.65490116E+03</pdfrwt>
<pdfrwt beam="2">0</pdfrwt>
<totfact> 0.13339633E+00</totfact>
</mgrwt>
</event>
<event>
 6    1  0.5237124E-003  0.6528012E+03  0.7818608E-02  0.9801537E-01
          3   -1    0    0  502    0  0.00000000000E+00  0.00000000000E+00  0.10653738744E+03  0.10653738744E+03  0.00000000000E+00 0.  1.
         13   -1    0    0    0    0 -0.00000000000E+00 -0.00000000000E+00 -0.10000000000E+04  0.10000000000E+04  0.00000000000E+00 0.  1.
    9000005    2    1    2  501    0 -0.62565426155E-05 -0.56719502481E-05 -0.89346266402E+03  0.11065373353E+04  0.65280115073E+03 0.  0.
         13    1    3    3    0    0 -0.10520991616E+02  0.29115776899E+03 -0.19729931998E+03  0.35186724680E+03  0.00000000000E+00 0.  1.
          3    1    3    3  501    0  0.10520985359E+02 -0.29115777466E+03 -0.69616334404E+03  0.75467008849E+03  0.00000000000E+00 0.  1.
         21    1    1    2  502  501  0.62565426142E-05  0.56719502295E-05  0.51463533993E-04  0.52151804148E-04  0.00000000000E+00 0. -1.
<mgrwt>
<rscale>  1 0.65280115E+03</rscale>
<asrwt>0</asrwt>
<pdfrwt beam="1">  1        3 0.38740950E+00 0.65280115E+03</pdfrwt>
<pdfrwt beam="2">0</pdfrwt>
<totfact> 0.68951009E-02</totfact>
</mgrwt>
</event>
<event>
 6    1  0.5237124E-003  0.6488181E+03  0.7818608E-02  0.9808999E-01
          1   -1    0    0  502    0  0.00000000000E+00  0.00000000000E+00  0.10755934874E+03  0.10755934874E+03  0.00000000000E+00 0.  1.
         13   -1    0    0    0    0 -0.00000000000E+00 -0.00000000000E+00 -0.10000000000E+04  0.10000000000E+04  0.00000000000E+00 0.  1.
    9000005    2    1    2  501    0 -0.40019873023E+00  0.82847465248E-01 -0.89473884352E+03  0.11052251015E+04  0.64881797120E+03 0.  0.
         13    1    3    3    0    0 -0.11023303550E+03 -0.25530921890E+03 -0.16273395950E+03  0.32220561905E+03  0.00000000000E+00 0.  1.
          1    1    3    3  501    0  0.10983283677E+03  0.25539206637E+03 -0.73200488402E+03  0.78301948240E+03  0.00000000000E+00 0.  1.
         21    1    1    2  502  501  0.40019873023E+00 -0.82847465247E-01  0.22981922620E+01  0.23342472875E+01  0.00000000000E+00 0. -1.
<mgrwt>
<rscale>  1 0.64881810E+03</rscale>
<asrwt>0</asrwt>
<pdfrwt beam="1">  1        1 0.39112573E+00 0.64881810E+03</pdfrwt>
<pdfrwt beam="2">0</pdfrwt>
<totfact> 0.14654557E+00</totfact>
</mgrwt>
</event>
<event>
 6    1  0.5237124E-003  0.6516076E+03  0.7818608E-02  0.9803767E-01
          1   -1    0    0  502    0  0.00000000000E+00  0.00000000000E+00  0.10615823657E+03  0.10615823657E+03  0.00000000000E+00 0.  1.
         13   -1    0    0    0    0 -0.00000000000E+00 -0.00000000000E+00 -0.10000000000E+04  0.10000000000E+04  0.00000000000E+00 0.  1.
    9000005    2    1    2  501    0  0.19782353054E-01 -0.10942182702E-01 -0.89383529560E+03  0.11061347226E+04  0.65160761846E+03 0.  0.
         13    1    3    3    0    0 -0.59513119459E+02  0.81035236595E+02 -0.97298190009E+03  0.97816271594E+03  0.00000000000E+00 0.  1.
          3    1    3    3  501    0  0.59532901812E+02 -0.81046178777E+02  0.79146604490E+02  0.12797200668E+03  0.00000000000E+00 0.  1.
         21    1    1    2  502  501 -0.19782353054E-01  0.10942182702E-01 -0.64678293051E-02  0.23513946299E-01  0.00000000000E+00 0. -1.
<mgrwt>
<rscale>  1 0.65160762E+03</rscale>
<asrwt>0</asrwt>
<pdfrwt beam="1">  1        1 0.38603077E+00 0.65160762E+03</pdfrwt>
<pdfrwt beam="2">0</pdfrwt>
<totfact> 0.15428466E+00</totfact>
</mgrwt>
</event>
<event>
 6    1  0.5237124E-003  0.6969707E+03  0.7818608E-02  0.9722427E-01
          1   -1    0    0  502    0  0.00000000000E+00  0.00000000000E+00  0.12145119790E+03  0.12145119790E+03  0.00000000000E+00 0.  1.
         13   -1    0    0    0    0 -0.00000000000E+00 -0.00000000000E+00 -0.10000000000E+04  0.10000000000E+04  0.00000000000E+00 0.  1.
    9000005    2    1    2  501    0  0.46759038187E-02 -0.36668085966E-02 -0.87855686188E+03  0.11214411844E+04  0.69697070996E+03 0.  0.
         13    1    3    3    0    0  0.58370128154E+02 -0.16015544728E+03  0.49783461605E+02  0.17758162124E+03  0.00000000000E+00 0.  1.
          1    1    3    3  501    0 -0.58365452250E+02  0.16015178047E+03 -0.92834032349E+03  0.94385956318E+03  0.00000000000E+00 0.  1.
         21    1    1    2  502  501 -0.46759038187E-02  0.36668085965E-02  0.80597842789E-02  0.10013475142E-01  0.00000000000E+00 0. -1.
<mgrwt>
<rscale>  1 0.69697071E+03</rscale>
<asrwt>0</asrwt>
<pdfrwt beam="1">  1        1 0.44164165E+00 0.69697071E+03</pdfrwt>
<pdfrwt beam="2">0</pdfrwt>
<totfact> 0.85977099E-01</totfact>
</mgrwt>
</event>
<event>
 6    1  0.5237124E-003  0.6483601E+03  0.7818608E-02  0.9809861E-01
          1   -1    0    0  502    0  0.00000000000E+00  0.00000000000E+00  0.10509281402E+03  0.10509281402E+03  0.00000000000E+00 0.  1.
         13   -1    0    0    0    0 -0.00000000000E+00 -0.00000000000E+00 -0.10000000000E+04  0.10000000000E+04  0.00000000000E+00 0.  1.
    9000005    2    1    2  501    0 -0.88429442826E-05  0.63032834220E-04 -0.89490729925E+03  0.11050926841E+04  0.64836005905E+03 0.  0.
         13    1    3    3    0    0 -0.60126856093E+02  0.12609124602E+03 -0.94606791216E+03  0.95632564305E+03  0.00000000000E+00 0.  1.
          3    1    3    3  501    0  0.60126847250E+02 -0.12609118298E+03  0.51160612902E+02  0.14876704104E+03  0.00000000000E+00 0.  1.
         21    1    1    2  502  501  0.88429442860E-05 -0.63032834223E-04  0.11327806357E-03  0.12993558227E-03  0.00000000000E+00 0. -1.
<mgrwt>
<rscale>  1 0.64836006E+03</rscale>
<asrwt>0</asrwt>
<pdfrwt beam="1">  1        1 0.38215649E+00 0.64836006E+03</pdfrwt>
<pdfrwt beam="2">0</pdfrwt>
<totfact> 0.16058760E+00</totfact>
</mgrwt>
</event>
<event>
 6    1  0.5237124E-003  0.6460464E+03  0.7818608E-02  0.9814226E-01
          1   -1    0    0  502    0  0.00000000000E+00  0.00000000000E+00  0.10434404387E+03  0.10434404387E+03  0.00000000000E+00 0.  1.
         13   -1    0    0    0    0 -0.00000000000E+00 -0.00000000000E+00 -0.10000000000E+04  0.10000000000E+04  0.00000000000E+00 0.  1.
    9000005    2    1    2  501    0  0.48133661892E-05 -0.99441954262E-05 -0.89565600655E+03  0.11043439922E+04  0.64604641562E+03 0.  0.
         13    1    3    3    0    0 -0.11363268128E+03  0.14776801353E+03  0.31272784143E+01  0.18643377363E+03  0.00000000000E+00 0.  1.
          3    1    3    3  501    0  0.11363268610E+03 -0.14776802348E+03 -0.89878328497E+03  0.91791021862E+03  0.00000000000E+00 0.  1.
         21    1    1    2  502  501 -0.48133661852E-05  0.99441954308E-05  0.50423526128E-04  0.51619642617E-04  0.00000000000E+00 0. -1.
<mgrwt>
<rscale>  1 0.64604642E+03</rscale>
<asrwt>0</asrwt>
<pdfrwt beam="1">  1        1 0.37943369E+00 0.64604642E+03</pdfrwt>
<pdfrwt beam="2">0</pdfrwt>
<totfact> 0.16516393E+00</totfact>
</mgrwt>
</event>
<event>
 6    1  0.5237124E-003  0.5936002E+03  0.7818608E-02  0.9918773E-01
          1   -1    0    0  502    0  0.00000000000E+00  0.00000000000E+00  0.88429456021E+02  0.88429456021E+02  0.00000000000E+00 0.  1.
         13   -1    0    0    0    0 -0.00000000000E+00 -0.00000000000E+00 -0.10000000000E+04  0.10000000000E+04  0.00000000000E+00 0.  1.
    9000005    2    1    2  501    0 -0.21935391714E-01  0.27455583132E-02 -0.91190930170E+03  0.10880899778E+04  0.59360022294E+03 0.  0.
         13    1    3    3    0    0 -0.86737599488E+02  0.28284474901E+03 -0.49966407699E+03  0.58067956141E+03  0.00000000000E+00 0.  1.
          3    1    3    3  501    0  0.86715664096E+02 -0.28284200345E+03 -0.41224522471E+03  0.50741041634E+03  0.00000000000E+00 0.  1.
         21    1    1    2  502  501  0.21935391714E-01 -0.27455583132E-02  0.33875772244E+00  0.33947826737E+00  0.00000000000E+00 0.  1.
<mgrwt>
<rscale>  1 0.59360022E+03</rscale>
<asrwt>0</asrwt>
<pdfrwt beam="1">  1        1 0.32156234E+00 0.59360022E+03</pdfrwt>
<pdfrwt beam="2">0</pdfrwt>
<totfact> 0.29811667E+00</totfact>
</mgrwt>
</event>
<event>
 6    1  0.5237124E-003  0.6523655E+03  0.7818608E-02  0.9802351E-01
          1   -1    0    0  502    0  0.00000000000E+00  0.00000000000E+00  0.10639542605E+03  0.10639542605E+03  0.00000000000E+00 0.  1.
         13   -1    0    0    0    0 -0.00000000000E+00 -0.00000000000E+00 -0.10000000000E+04  0.10000000000E+04  0.00000000000E+00 0.  1.
    9000005    2    1    2  501    0 -0.15948448602E-03  0.38103459019E-04 -0.89360478919E+03  0.11063951555E+04  0.65236548098E+03 0.  0.
         13    1    3    3    0    0  0.11238532644E+03 -0.15564841855E+03 -0.89403264147E+03  0.91441306629E+03  0.00000000000E+00 0.  1.
          1    1    3    3  501    0 -0.11238548593E+03  0.15564845666E+03  0.42785227583E+00  0.19198208918E+03  0.00000000000E+00 0.  1.
         21    1    1    2  502  501  0.15948448601E-03 -0.38103459036E-04  0.21524309509E-03  0.27058596574E-03  0.00000000000E+00 0. -1.
<mgrwt>
<rscale>  1 0.65236548E+03</rscale>
<asrwt>0</asrwt>
<pdfrwt beam="1">  1        1 0.38689327E+00 0.65236548E+03</pdfrwt>
<pdfrwt beam="2">0</pdfrwt>
<totfact> 0.15291284E+00</totfact>
</mgrwt>
</event>
<event>
 6    1  0.5237124E-003  0.6499321E+03  0.7818608E-02  0.9806907E-01
          1   -1    0    0  502    0  0.00000000000E+00  0.00000000000E+00  0.10560308399E+03  0.10560308399E+03  0.00000000000E+00 0.  1.
         13   -1    0    0    0    0 -0.00000000000E+00 -0.00000000000E+00 -0.10000000000E+04  0.10000000000E+04  0.00000000000E+00 0.  1.
    9000005    2    1    2  501    0  0.18984146664E-04 -0.17489188048E-03 -0.89439700762E+03  0.11056028856E+04  0.64993209915E+03 0.  0.
         13    1    3    3    0    0 -0.13562139024E+03  0.28183685789E+03 -0.29717571179E+03  0.43143780506E+03  0.00000000000E+00 0.  1.
          3    1    3    3  501    0  0.13562140923E+03 -0.28183703278E+03 -0.59722129583E+03  0.67416508058E+03  0.00000000000E+00 0.  1.
         21    1    1    2  502  501 -0.18984146668E-04  0.17489188049E-03  0.91605399744E-04  0.19834091093E-03  0.00000000000E+00 0.  1.
<mgrwt>
<rscale>  1 0.64993210E+03</rscale>
<asrwt>0</asrwt>
<pdfrwt beam="1">  1        1 0.38401202E+00 0.64993210E+03</pdfrwt>
<pdfrwt beam="2">0</pdfrwt>
<totfact> 0.15753847E+00</totfact>
</mgrwt>
</event>
<event>
 6    1  0.5237124E-003  0.6093649E+03  0.7818608E-02  0.9886165E-01
          1   -1    0    0  502    0  0.00000000000E+00  0.00000000000E+00  0.92859215553E+02  0.92859215553E+02  0.00000000000E+00 0.  1.
         13   -1    0    0    0    0 -0.00000000000E+00 -0.00000000000E+00 -0.10000000000E+04  0.10000000000E+04  0.00000000000E+00 0.  1.
    9000005    2    1    2  501    0 -0.15427591578E-02 -0.48731783414E-03 -0.90716857030E+03  0.10928313826E+04  0.60936492839E+03 0.  0.
         13    1    3    3    0    0  0.73693047151E+02  0.16761223410E+03 -0.89032838191E+03  0.90896047981E+03  0.00000000000E+00 0.  1.
          1    1    3    3  501    0 -0.73694589910E+02 -0.16761272142E+03 -0.16840188380E+02  0.18387090283E+03  0.00000000000E+00 0.  1.
         21    1    1    2  502  501  0.15427591578E-02  0.48731783415E-03  0.27785848303E-01  0.27832911282E-01  0.00000000000E+00 0. -1.
<mgrwt>
<rscale>  1 0.60936493E+03</rscale>
<asrwt>0</asrwt>
<pdfrwt beam="1">  1        1 0.33767059E+00 0.60936493E+03</pdfrwt>
<pdfrwt beam="2">0</pdfrwt>
<totfact> 0.25316246E+00</totfact>
</mgrwt>
</event>
<event>
 6    1  0.5237124E-003  0.6496375E+03  0.7818608E-02  0.9807460E-01
          1   -1    0    0  502    0  0.00000000000E+00  0.00000000000E+00  0.10550722094E+03  0.10550722094E+03  0.00000000000E+00 0.  1.
         13   -1    0    0    0    0 -0.00000000000E+00 -0.00000000000E+00 -0.10000000000E+04  0.10000000000E+04  0.00000000000E+00 0.  1.
    9000005    2    1    2  501    0 -0.28985762128E-05  0.70024988190E-05 -0.89449278018E+03  0.11055072133E+04  0.64963748724E+03 0.  0.
         13    1    3    3    0    0 -0.27300439926E+03  0.17217617269E+03 -0.38515817858E+03  0.50251652608E+03  0.00000000000E+00 0.  1.
          1    1    3    3  501    0  0.27300439637E+03 -0.17217616569E+03 -0.50933460159E+03  0.60299068720E+03  0.00000000000E+00 0.  1.
         21    1    1    2  502  501  0.28985762386E-05 -0.70024988282E-05  0.11189345484E-05  0.76608582139E-05  0.00000000000E+00 0.  1.
<mgrwt>
<rscale>  1 0.64963749E+03</rscale>
<asrwt>0</asrwt>
<pdfrwt beam="1">  1        1 0.38366343E+00 0.64963749E+03</pdfrwt>
<pdfrwt beam="2">0</pdfrwt>
<totfact> 0.15810705E+00</totfact>
</mgrwt>
</event>
<event>
 6    1  0.5237124E-003  0.6097820E+03  0.7818608E-02  0.9885317E-01
          1   -1    0    0  502    0  0.00000000000E+00  0.00000000000E+00  0.93365814305E+02  0.93365814305E+02  0.00000000000E+00 0.  1.
         13   -1    0    0    0    0 -0.00000000000E+00 -0.00000000000E+00 -0.10000000000E+04  0.10000000000E+04  0.00000000000E+00 0.  1.
    9000005    2    1    2  501    0 -0.23670255442E-01  0.19053696411E+00 -0.90701662546E+03  0.10929378835E+04  0.60978194579E+03 0.  0.
         13    1    3    3    0    0 -0.21112083272E+03  0.83254995533E+02 -0.81858120844E+03  0.84945782421E+03  0.00000000000E+00 0.  1.
          1    1    3    3  501    0  0.21109716247E+03 -0.83064458569E+02 -0.88435417018E+02  0.24348005927E+03  0.00000000000E+00 0.  1.
         21    1    1    2  502  501  0.23670255442E-01 -0.19053696411E+00  0.38243976719E+00  0.42793082527E+00  0.00000000000E+00 0.  1.
<mgrwt>
<rscale>  1 0.60978198E+03</rscale>
<asrwt>0</asrwt>
<pdfrwt beam="1">  1        1 0.33951277E+00 0.60978198E+03</pdfrwt>
<pdfrwt beam="2">0</pdfrwt>
<totfact> 0.24852448E+00</totfact>
</mgrwt>
</event>
<event>
 6    1  0.5237124E-003  0.6422286E+03  0.7818608E-02  0.9821472E-01
          1   -1    0    0  502    0  0.00000000000E+00  0.00000000000E+00  0.10312272015E+03  0.10312272015E+03  0.00000000000E+00 0.  1.
         13   -1    0    0    0    0 -0.00000000000E+00 -0.00000000000E+00 -0.10000000000E+04  0.10000000000E+04  0.00000000000E+00 0.  1.
    9000005    2    1    2  501    0 -0.69039270085E-03  0.13110663400E-02 -0.89688554430E+03  0.11031143239E+04  0.64222856685E+03 0.  0.
         13    1    3    3    0    0  0.28264960853E+03 -0.99960307931E+02 -0.64601633826E+03  0.71219377536E+03  0.00000000000E+00 0.  1.
          3    1    3    3  501    0 -0.28265029892E+03  0.99961618998E+02 -0.25086920604E+03  0.39092054856E+03  0.00000000000E+00 0.  1.
         21    1    1    2  502  501  0.69039270084E-03 -0.13110663400E-02  0.82644521672E-02  0.83962316936E-02  0.00000000000E+00 0.  1.
<mgrwt>
<rscale>  1 0.64222857E+03</rscale>
<asrwt>0</asrwt>
<pdfrwt beam="1">  1        1 0.37499250E+00 0.64222857E+03</pdfrwt>
<pdfrwt beam="2">0</pdfrwt>
<totfact> 0.17289748E+00</totfact>
</mgrwt>
</event>
<event>
 6    1  0.5237124E-003  0.6533885E+03  0.7818608E-02  0.9800442E-01
          1   -1    0    0  502    0  0.00000000000E+00  0.00000000000E+00  0.10733368297E+03  0.10733368297E+03  0.00000000000E+00 0.  1.
         13   -1    0    0    0    0 -0.00000000000E+00 -0.00000000000E+00 -0.10000000000E+04  0.10000000000E+04  0.00000000000E+00 0.  1.
    9000005    2    1    2  501    0  0.10432730510E+00  0.16599172248E+00 -0.89325322897E+03  0.11067148914E+04  0.65338846121E+03 0.  0.
         13    1    3    3    0    0 -0.22393491809E+03 -0.32756073482E+02 -0.84553101982E+03  0.87529567197E+03  0.00000000000E+00 0.  1.
          3    1    3    3  501    0  0.22403924540E+03  0.32922065205E+02 -0.47722209147E+02  0.23141921938E+03  0.00000000000E+00 0.  1.
         21    1    1    2  502  501 -0.10432730510E+00 -0.16599172248E+00  0.58691193367E+00  0.61879160984E+00  0.00000000000E+00 0. -1.
<mgrwt>
<rscale>  1 0.65338849E+03</rscale>
<asrwt>0</asrwt>
<pdfrwt beam="1">  1        1 0.39030512E+00 0.65338849E+03</pdfrwt>
<pdfrwt beam="2">0</pdfrwt>
<totfact> 0.14765302E+00</totfact>
</mgrwt>
</event>
<event>
 6    1  0.5237124E-003  0.6432956E+03  0.7818608E-02  0.9819441E-01
          1   -1    0    0  502    0  0.00000000000E+00  0.00000000000E+00  0.10347879685E+03  0.10347879685E+03  0.00000000000E+00 0.  1.
         13   -1    0    0    0    0 -0.00000000000E+00 -0.00000000000E+00 -0.10000000000E+04  0.10000000000E+04  0.00000000000E+00 0.  1.
    9000005    2    1    2  501    0  0.49780347886E-01 -0.29776422317E-01 -0.89648492610E+03  0.11034103809E+04  0.64329561057E+03 0.  0.
         13    1    3    3    0    0 -0.22093359825E+03  0.23161930820E+03 -0.50190643048E+03  0.59528919335E+03  0.00000000000E+00 0.  1.
          3    1    3    3  501    0  0.22098337859E+03 -0.23164908462E+03 -0.39457849562E+03  0.50812118754E+03  0.00000000000E+00 0.  1.
         21    1    1    2  502  501 -0.49780347886E-01  0.29776422317E-01 -0.36277050794E-01  0.68415954104E-01  0.00000000000E+00 0.  1.
<mgrwt>
<rscale>  1 0.64329561E+03</rscale>
<asrwt>0</asrwt>
<pdfrwt beam="1">  1        1 0.37628733E+00 0.64329561E+03</pdfrwt>
<pdfrwt beam="2">0</pdfrwt>
<totfact> 0.17060925E+00</totfact>
</mgrwt>
</event>
<event>
 6    1  0.5237124E-003  0.5966329E+03  0.7818608E-02  0.9912416E-01
          1   -1    0    0  502    0  0.00000000000E+00  0.00000000000E+00  0.88995368256E+02  0.88995368256E+02  0.00000000000E+00 0.  1.
         13   -1    0    0    0    0 -0.00000000000E+00 -0.00000000000E+00 -0.10000000000E+04  0.10000000000E+04  0.00000000000E+00 0.  1.
    9000005    2    1    2  501    0 -0.18832391934E-03  0.16538464694E-02 -0.91100700549E+03  0.10889924691E+04  0.59663291361E+03 0.  0.
         13    1    3    3    0    0  0.28380361403E+02  0.40719771696E+02 -0.99241067515E+03  0.99365109212E+03  0.00000000000E+00 0.  1.
          3    1    3    3  501    0 -0.28380549727E+02 -0.40718117850E+02  0.81403669653E+02  0.95341376941E+02  0.00000000000E+00 0.  1.
         21    1    1    2  502  501  0.18832391934E-03 -0.16538464694E-02  0.23737483275E-02  0.28991990558E-02  0.00000000000E+00 0. -1.
<mgrwt>
<rscale>  1 0.59663291E+03</rscale>
<asrwt>0</asrwt>
<pdfrwt beam="1">  1        1 0.32362020E+00 0.59663291E+03</pdfrwt>
<pdfrwt beam="2">0</pdfrwt>
<totfact> 0.29190974E+00</totfact>
</mgrwt>
</event>
<event>
 6    1  0.5237124E-003  0.6423629E+03  0.7818608E-02  0.9821216E-01
          1   -1    0    0  502    0  0.00000000000E+00  0.00000000000E+00  0.10315752474E+03  0.10315752474E+03  0.00000000000E+00 0.  1.
         13   -1    0    0    0    0 -0.00000000000E+00 -0.00000000000E+00 -0.10000000000E+04  0.10000000000E+04  0.00000000000E+00 0.  1.
    9000005    2    1    2  501    0 -0.57704865242E-06 -0.35875969076E-05 -0.89684248184E+03  0.11031575172E+04  0.64236288075E+03 0.  0.
         13    1    3    3    0    0  0.10095523294E+03  0.17397531340E+02 -0.97119044863E+03  0.97657847645E+03  0.00000000000E+00 0.  1.
          3    1    3    3  501    0 -0.10095523352E+03 -0.17397534927E+02  0.74347966791E+02  0.12657904077E+03  0.00000000000E+00 0.  1.
         21    1    1    2  502  501  0.57704864900E-06  0.35875969086E-05  0.65783283729E-05  0.75152006563E-05  0.00000000000E+00 0. -1.
<mgrwt>
<rscale>  1 0.64236288E+03</rscale>
<asrwt>0</asrwt>
<pdfrwt beam="1">  1        1 0.37511906E+00 0.64236288E+03</pdfrwt>
<pdfrwt beam="2">0</pdfrwt>
<totfact> 0.17267158E+00</totfact>
</mgrwt>
</event>
<event>
 6    1  0.5237124E-003  0.6494060E+03  0.7818608E-02  0.9807894E-01
          1   -1    0    0  502    0  0.00000000000E+00  0.00000000000E+00  0.10589577275E+03  0.10589577275E+03  0.00000000000E+00 0.  1.
         13   -1    0    0    0    0 -0.00000000000E+00 -0.00000000000E+00 -0.10000000000E+04  0.10000000000E+04  0.00000000000E+00 0.  1.
    9000005    2    1    2  501    0  0.13756660851E+00 -0.73480742764E+00 -0.89420830365E+03  0.11051409891E+04  0.64940554086E+03 0.  0.
         13    1    3    3    0    0  0.12737808080E+03 -0.11752461908E+03 -0.91491941687E+03  0.93118996500E+03  0.00000000000E+00 0.  1.
          1    1    3    3  501    0 -0.12724051419E+03  0.11678981165E+03  0.20711113219E+02  0.17395102405E+03  0.00000000000E+00 0.  1.
         21    1    1    2  502  501 -0.13756660851E+00  0.73480742764E+00  0.10407639741E+00  0.75478369351E+00  0.00000000000E+00 0.  1.
<mgrwt>
<rscale>  1 0.64940597E+03</rscale>
<asrwt>0</asrwt>
<pdfrwt beam="1">  1        1 0.38507635E+00 0.64940597E+03</pdfrwt>
<pdfrwt beam="2">0</pdfrwt>
<totfact> 0.15585553E+00</totfact>
</mgrwt>
</event>
<event>
 6    1  0.5237124E-003  0.6522929E+03  0.7818608E-02  0.9802486E-01
          1   -1    0    0  502    0  0.00000000000E+00  0.00000000000E+00  0.10638221508E+03  0.10638221508E+03  0.00000000000E+00 0.  1.
         13   -1    0    0    0    0 -0.00000000000E+00 -0.00000000000E+00 -0.10000000000E+04  0.10000000000E+04  0.00000000000E+00 0.  1.
    9000005    2    1    2  501    0 -0.13860915644E-02  0.36702265148E-02 -0.89362810415E+03  0.11063711752E+04  0.65229287043E+03 0.  0.
         13    1    3    3    0    0 -0.31842248760E+03  0.54769194132E+02 -0.37135027147E+03  0.49223324690E+03  0.00000000000E+00 0.  1.
          1    1    3    3  501    0  0.31842110151E+03 -0.54765523906E+02 -0.52227783269E+03  0.61413792833E+03  0.00000000000E+00 0.  1.
         21    1    1    2  502  501  0.13860915644E-02 -0.36702265148E-02  0.10319238932E-01  0.11039859811E-01  0.00000000000E+00 0. -1.
<mgrwt>
<rscale>  1 0.65229287E+03</rscale>
<asrwt>0</asrwt>
<pdfrwt beam="1">  1        1 0.38684523E+00 0.65229287E+03</pdfrwt>
<pdfrwt beam="2">0</pdfrwt>
<totfact> 0.15298980E+00</totfact>
</mgrwt>
</event>
<event>
 6    1  0.5237124E-003  0.5456508E+03  0.7818608E-02  0.1002506E+00
          1   -1    0    0  502    0  0.00000000000E+00  0.00000000000E+00  0.74444648714E+02  0.74444648714E+02  0.00000000000E+00 0.  1.
         13   -1    0    0    0    0 -0.00000000000E+00 -0.00000000000E+00 -0.10000000000E+04  0.10000000000E+04  0.00000000000E+00 0.  1.
    9000005    2    1    2  501    0 -0.31246678685E-01  0.23075177634E-01 -0.92550716892E+03  0.10743827588E+04  0.54565079604E+03 0.  0.
         13    1    3    3    0    0  0.22845904140E+03 -0.10501159301E+03 -0.25431573029E+03  0.35762754220E+03  0.00000000000E+00 0.  1.
          3    1    3    3  501    0 -0.22849028808E+03  0.10503466819E+03 -0.67119143863E+03  0.71675521662E+03  0.00000000000E+00 0.  1.
         21    1    1    2  502  501  0.31246678685E-01 -0.23075177634E-01 -0.48182367952E-01  0.61889896859E-01  0.00000000000E+00 0.  1.
<mgrwt>
<rscale>  1 0.54565080E+03</rscale>
<asrwt>0</asrwt>
<pdfrwt beam="1">  1        1 0.27070838E+00 0.54565080E+03</pdfrwt>
<pdfrwt beam="2">0</pdfrwt>
<totfact> 0.49838752E+00</totfact>
</mgrwt>
</event>
<event>
 6    1  0.5237124E-003  0.6564100E+03  0.7818608E-02  0.9794825E-01
          3   -1    0    0  502    0  0.00000000000E+00  0.00000000000E+00  0.10771885116E+03  0.10771885116E+03  0.00000000000E+00 0.  1.
         13   -1    0    0    0    0 -0.00000000000E+00 -0.00000000000E+00 -0.10000000000E+04  0.10000000000E+04  0.00000000000E+00 0.  1.
    9000005    2    1    2  501    0  0.66932056541E-04 -0.20233938557E-03 -0.89228143550E+03  0.11077184940E+04  0.65641001038E+03 0.  0.
         13    1    3    3    0    0  0.20114746315E+03 -0.78974265105E+02 -0.86300536698E+03  0.88964908808E+03  0.00000000000E+00 0.  1.
          1    1    3    3  501    0 -0.20114739621E+03  0.78974062766E+02 -0.29276068516E+02  0.21806940588E+03  0.00000000000E+00 0.  1.
         21    1    1    2  502  501 -0.66932056534E-04  0.20233938557E-03  0.28665451751E-03  0.35720013935E-03  0.00000000000E+00 0.  1.
<mgrwt>
<rscale>  1 0.65641001E+03</rscale>
<asrwt>0</asrwt>
<pdfrwt beam="1">  1        3 0.39170574E+00 0.65641001E+03</pdfrwt>
<pdfrwt beam="2">0</pdfrwt>
<totfact> 0.65413795E-02</totfact>
</mgrwt>
</event>
<event>
 6    1  0.5237124E-003  0.4803718E+03  0.7818608E-02  0.1019033E+00
          1   -1    0    0  502    0  0.00000000000E+00  0.00000000000E+00  0.57689568328E+02  0.57689568328E+02  0.00000000000E+00 0.  1.
         13   -1    0    0    0    0 -0.00000000000E+00 -0.00000000000E+00 -0.10000000000E+04  0.10000000000E+04  0.00000000000E+00 0.  1.
    9000005    2    1    2  501    0  0.75939331508E-03 -0.29063381334E-03 -0.94231004360E+03  0.10576886674E+04  0.48037183389E+03 0.  0.
         13    1    3    3    0    0  0.90865887633E+02  0.64585465694E+01  0.18177485761E+02  0.92891029426E+02  0.00000000000E+00 0.  1.
          3    1    3    3  501    0 -0.90865128240E+02 -0.64588372032E+01 -0.96048752936E+03  0.96479763793E+03  0.00000000000E+00 0.  1.
         21    1    1    2  502  501 -0.75939331508E-03  0.29063381334E-03 -0.38807632953E-03  0.90097139687E-03  0.00000000000E+00 0.  1.
<mgrwt>
<rscale>  1 0.48037183E+03</rscale>
<asrwt>0</asrwt>
<pdfrwt beam="1">  1        1 0.20978069E+00 0.48037183E+03</pdfrwt>
<pdfrwt beam="2">0</pdfrwt>
<totfact> 0.93170530E+00</totfact>
</mgrwt>
</event>
<event>
 6    1  0.5237124E-003  0.6529734E+03  0.7818608E-02  0.9801216E-01
          1   -1    0    0  502    0  0.00000000000E+00  0.00000000000E+00  0.10743877536E+03  0.10743877536E+03  0.00000000000E+00 0.  1.
         13   -1    0    0    0    0 -0.00000000000E+00 -0.00000000000E+00 -0.10000000000E+04  0.10000000000E+04  0.00000000000E+00 0.  1.
    9000005    2    1    2  501    0  0.12562193987E+01 -0.36115776247E+00 -0.89280610603E+03  0.11061089299E+04  0.65297206162E+03 0.  0.
         13    1    3    3    0    0 -0.12151274885E+02  0.30878049946E+03 -0.26869099508E+03  0.40949713206E+03  0.00000000000E+00 0.  1.
          3    1    3    3  501    0  0.13407494283E+02 -0.30914165723E+03 -0.62411511095E+03  0.69661179781E+03  0.00000000000E+00 0.  1.
         21    1    1    2  502  501 -0.12562193987E+01  0.36115776247E+00  0.24488139236E+00  0.13298454810E+01  0.00000000000E+00 0. -1.
<mgrwt>
<rscale>  1 0.65297337E+03</rscale>
<asrwt>0</asrwt>
<pdfrwt beam="1">  1        1 0.39068728E+00 0.65297337E+03</pdfrwt>
<pdfrwt beam="2">0</pdfrwt>
<totfact> 0.14708920E+00</totfact>
</mgrwt>
</event>
<event>
 6    1  0.5237124E-003  0.6324849E+03  0.7818608E-02  0.9840212E-01
          1   -1    0    0  502    0  0.00000000000E+00  0.00000000000E+00  0.10001773235E+03  0.10001773235E+03  0.00000000000E+00 0.  1.
         13   -1    0    0    0    0 -0.00000000000E+00 -0.00000000000E+00 -0.10000000000E+04  0.10000000000E+04  0.00000000000E+00 0.  1.
    9000005    2    1    2  501    0  0.31948629288E-03 -0.28311824263E-03 -0.89999069129E+03  0.11000092979E+04  0.63248494929E+03 0.  0.
         13    1    3    3    0    0  0.31410801156E+03  0.32150308838E+02 -0.41927988555E+03  0.52487437326E+03  0.00000000000E+00 0.  1.
          1    1    3    3  501    0 -0.31410769208E+03 -0.32150591956E+02 -0.48071080574E+03  0.57513492464E+03  0.00000000000E+00 0.  1.
         21    1    1    2  502  501 -0.31948629287E-03  0.28311824264E-03  0.84236338518E-02  0.84344433545E-02  0.00000000000E+00 0.  1.
<mgrwt>
<rscale>  1 0.63248495E+03</rscale>
<asrwt>0</asrwt>
<pdfrwt beam="1">  1        1 0.36370161E+00 0.63248495E+03</pdfrwt>
<pdfrwt beam="2">0</pdfrwt>
<totfact> 0.19414834E+00</totfact>
</mgrwt>
</event>
<event>
 6    1  0.5237124E-003  0.6459772E+03  0.7818608E-02  0.9814357E-01
          1   -1    0    0  502    0  0.00000000000E+00  0.00000000000E+00  0.10440962014E+03  0.10440962014E+03  0.00000000000E+00 0.  1.
         13   -1    0    0    0    0 -0.00000000000E+00 -0.00000000000E+00 -0.10000000000E+04  0.10000000000E+04  0.00000000000E+00 0.  1.
    9000005    2    1    2  501    0 -0.72864178373E-01  0.13537071497E+00 -0.89559710752E+03  0.11042557381E+04  0.64597719193E+03 0.  0.
         13    1    3    3    0    0  0.13608099851E+03 -0.65680617612E+02  0.40167389795E+02  0.15635025068E+03  0.00000000000E+00 0.  1.
          1    1    3    3  501    0 -0.13615386269E+03  0.65815988327E+02 -0.93576449732E+03  0.94790548742E+03  0.00000000000E+00 0.  1.
         21    1    1    2  502  501  0.72864178373E-01 -0.13537071497E+00  0.67276591898E-02  0.15388203391E+00  0.00000000000E+00 0. -1.
<mgrwt>
<rscale>  1 0.64597721E+03</rscale>
<asrwt>0</asrwt>
<pdfrwt beam="1">  1        1 0.37967215E+00 0.64597721E+03</pdfrwt>
<pdfrwt beam="2">0</pdfrwt>
<totfact> 0.16476647E+00</totfact>
</mgrwt>
</event>
<event>
 6    1  0.5237124E-003  0.6507728E+03  0.7818608E-02  0.9805330E-01
          1   -1    0    0  502    0  0.00000000000E+00  0.00000000000E+00  0.10731252559E+03  0.10731252559E+03  0.00000000000E+00 0.  1.
         13   -1    0    0    0    0 -0.00000000000E+00 -0.00000000000E+00 -0.10000000000E+04  0.10000000000E+04  0.00000000000E+00 0.  1.
    9000005    2    1    2  501    0 -0.11653229171E+01 -0.33153043565E+01 -0.89115827667E+03  0.11034800765E+04  0.65076328713E+03 0.  0.
         13    1    3    3    0    0 -0.14085344101E+03 -0.21952679560E+03 -0.78115457200E+03  0.82354973813E+03  0.00000000000E+00 0.  1.
          1    1    3    3  501    0  0.13968811809E+03  0.21621149124E+03 -0.11000370467E+03  0.27993033834E+03  0.00000000000E+00 0.  1.
         21    1    1    2  502  501  0.11653229171E+01  0.33153043565E+01 -0.15291977428E+01  0.38324491144E+01  0.00000000000E+00 0. -1.
<mgrwt>
<rscale>  1 0.65077278E+03</rscale>
<asrwt>0</asrwt>
<pdfrwt beam="1">  1        1 0.39022819E+00 0.65077278E+03</pdfrwt>
<pdfrwt beam="2">0</pdfrwt>
<totfact> 0.14784105E+00</totfact>
</mgrwt>
</event>
<event>
 6    1  0.5237124E-003  0.6517895E+03  0.7818608E-02  0.9803427E-01
          1   -1    0    0  502    0  0.00000000000E+00  0.00000000000E+00  0.11111503857E+03  0.11111503857E+03  0.00000000000E+00 0.  1.
         13   -1    0    0    0    0 -0.00000000000E+00 -0.00000000000E+00 -0.10000000000E+04  0.10000000000E+04  0.00000000000E+00 0.  1.
    9000005    2    1    2  501    0  0.15710128962E+01  0.14121679985E+02 -0.87638432336E+03  0.10921900318E+04  0.65163463192E+03 0.  0.
         13    1    3    3    0    0  0.31487023119E+03  0.48295516228E+02 -0.56813865861E+03  0.65135033184E+03  0.00000000000E+00 0.  1.
          3    1    3    3  501    0 -0.31329921830E+03 -0.34173836244E+02 -0.30824566475E+03  0.44083970001E+03  0.00000000000E+00 0.  1.
         21    1    1    2  502  501 -0.15710128962E+01 -0.14121679985E+02 -0.12500638074E+02  0.18925006720E+02  0.00000000000E+00 0. -1.
<mgrwt>
<rscale>  1 0.65178952E+03</rscale>
<asrwt>0</asrwt>
<pdfrwt beam="1">  1        1 0.40405554E+00 0.65178952E+03</pdfrwt>
<pdfrwt beam="2">0</pdfrwt>
<totfact> 0.12828303E+00</totfact>
</mgrwt>
</event>
<event>
 6    1  0.5237124E-003  0.6505751E+03  0.7818608E-02  0.9805701E-01
          1   -1    0    0  502    0  0.00000000000E+00  0.00000000000E+00  0.10624510492E+03  0.10624510492E+03  0.00000000000E+00 0.  1.
         13   -1    0    0    0    0 -0.00000000000E+00 -0.00000000000E+00 -0.10000000000E+04  0.10000000000E+04  0.00000000000E+00 0.  1.
    9000005    2    1    2  501    0 -0.63483760997E-01 -0.13222458896E+00 -0.89417423399E+03  0.11058008543E+04  0.65057508946E+03 0.  0.
         13    1    3    3    0    0  0.27801587987E+03 -0.16601915834E+03 -0.49979031686E+03  0.59552124330E+03  0.00000000000E+00 0.  1.
          3    1    3    3  501    0 -0.27807936363E+03  0.16588693375E+03 -0.39438391713E+03  0.51027961096E+03  0.00000000000E+00 0.  1.
         21    1    1    2  502  501  0.63483760997E-01  0.13222458896E+00  0.41933890601E+00  0.44425065890E+00  0.00000000000E+00 0.  1.
<mgrwt>
<rscale>  1 0.65057511E+03</rscale>
<asrwt>0</asrwt>
<pdfrwt beam="1">  1        1 0.38634665E+00 0.65057511E+03</pdfrwt>
<pdfrwt beam="2">0</pdfrwt>
<totfact> 0.15381816E+00</totfact>
</mgrwt>
</event>
