<event>
 6    1  0.2552886E-003  0.6669929E+03  0.7818608E-02  0.9775405E-01
          1   -1    0    0  502    0  0.00000000000E+00  0.00000000000E+00  0.11122025651E+03  0.11122025651E+03  0.00000000000E+00 0.  1.
         13   -1    0    0    0    0 -0.00000000000E+00 -0.00000000000E+00 -0.10000000000E+04  0.10000000000E+04  0.00000000000E+00 0.  1.
    9000005    2    1    2  501    0  0.20653785143E-04 -0.76027959608E-04 -0.88878009808E+03  0.11112198933E+04  0.66699294484E+03 0.  0.
         13    1    3    3    0    0  0.11998015243E+03 -0.29691482111E+03 -0.59948409318E+03  0.67965787419E+03  0.00000000000E+00 0.  1.
          1    1    3    3  501    0 -0.11998013177E+03  0.29691474508E+03 -0.28929600490E+03  0.43156201909E+03  0.00000000000E+00 0.  1.
         21    1    1    2  502  501 -0.20653785133E-04  0.76027959598E-04  0.35458544688E-03  0.36323225163E-03  0.00000000000E+00 0.  1.
<mgrwt>
<rscale>  1 0.66699294E+03</rscale>
<asrwt>0</asrwt>
<pdfrwt beam="1">  1        1 0.40443815E+00 0.66699294E+03</pdfrwt>
<pdfrwt beam="2">0</pdfrwt>
<totfact> 0.12741133E+00</totfact>
</mgrwt>
</event>
<event>
 6    1  0.2552886E-003  0.6584116E+03  0.7818608E-02  0.9791122E-01
          1   -1    0    0  502    0  0.00000000000E+00  0.00000000000E+00  0.10837647017E+03  0.10837647017E+03  0.00000000000E+00 0.  1.
         13   -1    0    0    0    0 -0.00000000000E+00 -0.00000000000E+00 -0.10000000000E+04  0.10000000000E+04  0.00000000000E+00 0.  1.
    9000005    2    1    2  501    0 -0.66012604663E-05  0.43081800527E-06 -0.89162355466E+03  0.11083764445E+04  0.65841155781E+03 0.  0.
         13    1    3    3    0    0  0.49992316222E+02  0.18290843144E+03 -0.89883895272E+03  0.91862189659E+03  0.00000000000E+00 0.  1.
          3    1    3    3  501    0 -0.49992322823E+02 -0.18290843101E+03  0.72153980616E+01  0.18975454789E+03  0.00000000000E+00 0.  1.
         21    1    1    2  502  501  0.66012604662E-05 -0.43081800697E-06  0.24827218285E-04  0.25693442970E-04  0.00000000000E+00 0. -1.
<mgrwt>
<rscale>  1 0.65841156E+03</rscale>
<asrwt>0</asrwt>
<pdfrwt beam="1">  1        1 0.39409709E+00 0.65841156E+03</pdfrwt>
<pdfrwt beam="2">0</pdfrwt>
<totfact> 0.14190599E+00</totfact>
</mgrwt>
</event>
<event>
 6    1  0.2552886E-003  0.6392464E+03  0.7818608E-02  0.9827169E-01
          1   -1    0    0  502    0  0.00000000000E+00  0.00000000000E+00  0.10275699754E+03  0.10275699754E+03  0.00000000000E+00 0.  1.
         13   -1    0    0    0    0 -0.00000000000E+00 -0.00000000000E+00 -0.10000000000E+04  0.10000000000E+04  0.00000000000E+00 0.  1.
    9000005    2    1    2  501    0 -0.24349773917E+00 -0.97870603958E-01 -0.89780911737E+03  0.11021330136E+04  0.63924635288E+03 0.  0.
         13    1    3    3    0    0 -0.17938384009E+03 -0.11997664169E+03 -0.85571752772E+03  0.88251087466E+03  0.00000000000E+00 0.  1.
          3    1    3    3  501    0  0.17914034235E+03  0.11987877109E+03 -0.42091589651E+02  0.21962213899E+03  0.00000000000E+00 0.  1.
         21    1    1    2  502  501  0.24349773917E+00  0.97870603958E-01  0.56611491140E+00  0.62398389163E+00  0.00000000000E+00 0.  1.
<mgrwt>
<rscale>  1 0.63924641E+03</rscale>
<asrwt>0</asrwt>
<pdfrwt beam="1">  1        1 0.37366260E+00 0.63924641E+03</pdfrwt>
<pdfrwt beam="2">0</pdfrwt>
<totfact> 0.17533868E+00</totfact>
</mgrwt>
</event>
<event>
 6    1  0.2552886E-003  0.6445126E+03  0.7818608E-02  0.9817131E-01
          1   -1    0    0  502    0  0.00000000000E+00  0.00000000000E+00  0.12124762646E+03  0.12124762646E+03  0.00000000000E+00 0.  1.
         13   -1    0    0    0    0 -0.00000000000E+00 -0.00000000000E+00 -0.10000000000E+04  0.10000000000E+04  0.00000000000E+00 0.  1.
    9000005    2    1    2  501    0  0.91300966357E+01  0.20770543339E+02 -0.88757984928E+03  0.10969022272E+04  0.64411313691E+03 0.  0.
         13    1    3    3    0    0  0.12343013141E+03 -0.55492271147E+02 -0.94010735982E+03  0.94979799825E+03  0.00000000000E+00 0.  1.
          3    1    3    3  501    0 -0.11430003477E+03  0.76262814486E+02  0.52527510544E+02  0.14710422899E+03  0.00000000000E+00 0.  1.
         21    1    1    2  502  501 -0.91300966357E+01 -0.20770543339E+02  0.88274757330E+01  0.24345399216E+02  0.00000000000E+00 0. -1.
<mgrwt>
<rscale>  1 0.64451261E+03</rscale>
<asrwt>0</asrwt>
<pdfrwt beam="1">  1        1 0.44090139E+00 0.64451261E+03</pdfrwt>
<pdfrwt beam="2">0</pdfrwt>
<totfact> 0.87564686E-01</totfact>
</mgrwt>
</event>
<event>
 6    1  0.2552886E-003  0.5661545E+03  0.7818608E-02  0.9978224E-01
          1   -1    0    0  502    0  0.00000000000E+00  0.00000000000E+00  0.80241429742E+02  0.80241429742E+02  0.00000000000E+00 0.  1.
         13   -1    0    0    0    0 -0.00000000000E+00 -0.00000000000E+00 -0.10000000000E+04  0.10000000000E+04  0.00000000000E+00 0.  1.
    9000005    2    1    2  501    0  0.36589735908E-02 -0.14090074299E-01 -0.91986674358E+03  0.10801322813E+04  0.56615450092E+03 0.  0.
         13    1    3    3    0    0  0.36244105091E+02  0.27293080015E+03 -0.58537912520E+03  0.64689533700E+03  0.00000000000E+00 0.  1.
          3    1    3    3  501    0 -0.36240446117E+02 -0.27294489022E+03 -0.33448761839E+03  0.43323694428E+03  0.00000000000E+00 0.  1.
         21    1    1    2  502  501 -0.36589735908E-02  0.14090074299E-01  0.10817332371E+00  0.10914845965E+00  0.00000000000E+00 0. -1.
<mgrwt>
<rscale>  1 0.56615450E+03</rscale>
<asrwt>0</asrwt>
<pdfrwt beam="1">  1        1 0.29178763E+00 0.56615450E+03</pdfrwt>
<pdfrwt beam="2">0</pdfrwt>
<totfact> 0.40274293E+00</totfact>
</mgrwt>
</event>
<event>
 6    1  0.2552886E-003  0.6564706E+03  0.7818608E-02  0.9794713E-01
          1   -1    0    0  502    0  0.00000000000E+00  0.00000000000E+00  0.10773843974E+03  0.10773843974E+03  0.00000000000E+00 0.  1.
         13   -1    0    0    0    0 -0.00000000000E+00 -0.00000000000E+00 -0.10000000000E+04  0.10000000000E+04  0.00000000000E+00 0.  1.
    9000005    2    1    2  501    0 -0.46618671945E-06  0.62268573799E-05 -0.89226159206E+03  0.11077384073E+04  0.65647058609E+03 0.  0.
         13    1    3    3    0    0  0.16588154856E+03 -0.18160398640E+03 -0.79368442246E+02  0.25844930964E+03  0.00000000000E+00 0.  1.
          1    1    3    3  501    0 -0.16588154902E+03  0.18160399263E+03 -0.81289314982E+03  0.84928909769E+03  0.00000000000E+00 0.  1.
         21    1    1    2  502  501  0.46618670703E-06 -0.62268573967E-05  0.31802361987E-04  0.32409586715E-04  0.00000000000E+00 0.  1.
<mgrwt>
<rscale>  1 0.65647059E+03</rscale>
<asrwt>0</asrwt>
<pdfrwt beam="1">  1        1 0.39177697E+00 0.65647059E+03</pdfrwt>
<pdfrwt beam="2">0</pdfrwt>
<totfact> 0.14536603E+00</totfact>
</mgrwt>
</event>
<event>
 6    1  0.2552886E-003  0.6156627E+03  0.7818608E-02  0.9873433E-01
          1   -1    0    0  502    0  0.00000000000E+00  0.00000000000E+00  0.94978139614E+02  0.94978139614E+02  0.00000000000E+00 0.  1.
         13   -1    0    0    0    0 -0.00000000000E+00 -0.00000000000E+00 -0.10000000000E+04  0.10000000000E+04  0.00000000000E+00 0.  1.
    9000005    2    1    2  501    0  0.74614038879E-02  0.33934328348E-02 -0.90523977090E+03  0.10947600750E+04  0.61566271523E+03 0.  0.
         13    1    3    3    0    0  0.20093610563E+03  0.12432642143E+03 -0.10177844863E+03  0.25727656368E+03  0.00000000000E+00 0.  1.
          3    1    3    3  501    0 -0.20092864423E+03 -0.12432302800E+03 -0.80346132226E+03  0.83748351132E+03  0.00000000000E+00 0.  1.
         21    1    1    2  502  501 -0.74614038879E-02 -0.33934328348E-02  0.21791050948E+00  0.21806461903E+00  0.00000000000E+00 0.  1.
<mgrwt>
<rscale>  1 0.61566272E+03</rscale>
<asrwt>0</asrwt>
<pdfrwt beam="1">  1        1 0.34537578E+00 0.61566272E+03</pdfrwt>
<pdfrwt beam="2">0</pdfrwt>
<totfact> 0.23411643E+00</totfact>
</mgrwt>
</event>
<event>
 6    1  0.2552886E-003  0.6350161E+03  0.7818608E-02  0.9835309E-01
          1   -1    0    0  502    0  0.00000000000E+00  0.00000000000E+00  0.10081311135E+03  0.10081311135E+03  0.00000000000E+00 0.  1.
         13   -1    0    0    0    0 -0.00000000000E+00 -0.00000000000E+00 -0.10000000000E+04  0.10000000000E+04  0.00000000000E+00 0.  1.
    9000005    2    1    2  501    0 -0.31145437608E-02 -0.40375946120E-02 -0.89918261438E+03  0.11008064576E+04  0.63501612826E+03 0.  0.
         13    1    3    3    0    0  0.13768656791E+03  0.45812952934E+02 -0.93914706132E+03  0.95029133450E+03  0.00000000000E+00 0.  1.
          1    1    3    3  501    0 -0.13768968245E+03 -0.45816990529E+02  0.39964446941E+02  0.15051512314E+03  0.00000000000E+00 0.  1.
         21    1    1    2  502  501  0.31145437608E-02  0.40375946120E-02 -0.42742664148E-02  0.66537137354E-02  0.00000000000E+00 0. -1.
<mgrwt>
<rscale>  1 0.63501613E+03</rscale>
<asrwt>0</asrwt>
<pdfrwt beam="1">  1        1 0.36659391E+00 0.63501613E+03</pdfrwt>
<pdfrwt beam="2">0</pdfrwt>
<totfact> 0.18847703E+00</totfact>
</mgrwt>
</event>
<event>
 6    1  0.2552886E-003  0.6169315E+03  0.7818608E-02  0.9870888E-01
          1   -1    0    0  502    0  0.00000000000E+00  0.00000000000E+00  0.10965071547E+03  0.10965071547E+03  0.00000000000E+00 0.  1.
         13   -1    0    0    0    0 -0.00000000000E+00 -0.00000000000E+00 -0.10000000000E+04  0.10000000000E+04  0.00000000000E+00 0.  1.
    9000005    2    1    2  501    0 -0.46094988812E+00  0.86226339334E-01 -0.90484472336E+03  0.10951476931E+04  0.61693133857E+03 0.  0.
         13    1    3    3    0    0 -0.38002604167E+01  0.24525323263E+03 -0.78462619311E+03  0.82207168361E+03  0.00000000000E+00 0.  1.
          3    1    3    3  501    0  0.33393105286E+01 -0.24516700629E+03 -0.12021853025E+03  0.27307600953E+03  0.00000000000E+00 0.  1.
         21    1    1    2  502  501  0.46094988812E+00 -0.86226339334E-01  0.14495438826E+02  0.14503022325E+02  0.00000000000E+00 0. -1.
<mgrwt>
<rscale>  1 0.61693152E+03</rscale>
<asrwt>0</asrwt>
<pdfrwt beam="1">  1        1 0.39873072E+00 0.61693152E+03</pdfrwt>
<pdfrwt beam="2">0</pdfrwt>
<totfact> 0.13641424E+00</totfact>
</mgrwt>
</event>
<event>
 6    1  0.2552886E-003  0.6572973E+03  0.7818608E-02  0.9793182E-01
          1   -1    0    0  502    0  0.00000000000E+00  0.00000000000E+00  0.12353763018E+03  0.12353763018E+03  0.00000000000E+00 0.  1.
         13   -1    0    0    0    0 -0.00000000000E+00 -0.00000000000E+00 -0.10000000000E+04  0.10000000000E+04  0.00000000000E+00 0.  1.
    9000005    2    1    2  501    0  0.33827106491E+02  0.64395561640E+01 -0.86668475482E+03  0.10877417817E+04  0.65639468179E+03 0.  0.
         13    1    3    3    0    0 -0.23865206359E+03 -0.20105893414E+03 -0.36372749957E+03  0.47924648814E+03  0.00000000000E+00 0.  1.
          3    1    3    3  501    0  0.27247917008E+03  0.20749849031E+03 -0.50295725526E+03  0.60849529351E+03  0.00000000000E+00 0.  1.
         21    1    1    2  502  501 -0.33827106491E+02 -0.64395561640E+01 -0.97776149917E+01  0.35795848532E+02  0.00000000000E+00 0.  1.
<mgrwt>
<rscale>  1 0.65729728E+03</rscale>
<asrwt>0</asrwt>
<pdfrwt beam="1">  1        1 0.44922869E+00 0.65729728E+03</pdfrwt>
<pdfrwt beam="2">0</pdfrwt>
<totfact> 0.79978939E-01</totfact>
</mgrwt>
</event>
<event>
 6    1  0.2552886E-003  0.5319666E+03  0.7818608E-02  0.1005756E+00
          1   -1    0    0  502    0  0.00000000000E+00  0.00000000000E+00  0.70749325529E+02  0.70749325529E+02  0.00000000000E+00 0.  1.
         13   -1    0    0    0    0 -0.00000000000E+00 -0.00000000000E+00 -0.10000000000E+04  0.10000000000E+04  0.00000000000E+00 0.  1.
    9000005    2    1    2  501    0  0.58515798926E-03 -0.25275585153E-03 -0.92925283644E+03  0.10707470716E+04  0.53196659407E+03 0.  0.
         13    1    3    3    0    0  0.25500887244E+03 -0.21854902706E+02 -0.31892254128E+03  0.40892389161E+03  0.00000000000E+00 0.  1.
          1    1    3    3  501    0 -0.25500828729E+03  0.21854649950E+02 -0.61033029517E+03  0.66182317994E+03  0.00000000000E+00 0.  1.
         21    1    1    2  502  501 -0.58515798927E-03  0.25275585153E-03  0.21619697645E-02  0.22539761879E-02  0.00000000000E+00 0. -1.
<mgrwt>
<rscale>  1 0.53196659E+03</rscale>
<asrwt>0</asrwt>
<pdfrwt beam="1">  1        1 0.25727082E+00 0.53196659E+03</pdfrwt>
<pdfrwt beam="2">0</pdfrwt>
<totfact> 0.57117993E+00</totfact>
</mgrwt>
</event>
<event>
 6    1  0.2552886E-003  0.6426562E+03  0.7818608E-02  0.9820658E-01
          1   -1    0    0  502    0  0.00000000000E+00  0.00000000000E+00  0.10329561006E+03  0.10329561006E+03  0.00000000000E+00 0.  1.
         13   -1    0    0    0    0 -0.00000000000E+00 -0.00000000000E+00 -0.10000000000E+04  0.10000000000E+04  0.00000000000E+00 0.  1.
    9000005    2    1    2  501    0 -0.73163337635E-03 -0.20682447820E-02 -0.89674823361E+03  0.11032517115E+04  0.64265616353E+03 0.  0.
         13    1    3    3    0    0 -0.15597055239E+02 -0.10354545143E+03  0.73139757603E+02  0.12772765083E+03  0.00000000000E+00 0.  1.
          3    1    3    3  501    0  0.15596323606E+02  0.10354338319E+03 -0.96988799121E+03  0.97552406070E+03  0.00000000000E+00 0.  1.
         21    1    1    2  502  501  0.73163337635E-03  0.20682447820E-02  0.43843670023E-01  0.43898523038E-01  0.00000000000E+00 0.  1.
<mgrwt>
<rscale>  1 0.64265616E+03</rscale>
<asrwt>0</asrwt>
<pdfrwt beam="1">  1        1 0.37562119E+00 0.64265616E+03</pdfrwt>
<pdfrwt beam="2">0</pdfrwt>
<totfact> 0.17178565E+00</totfact>
</mgrwt>
</event>
<event>
 6    1  0.2552886E-003  0.6386417E+03  0.7818608E-02  0.9828329E-01
          1   -1    0    0  502    0  0.00000000000E+00  0.00000000000E+00  0.10200723088E+03  0.10200723088E+03  0.00000000000E+00 0.  1.
         13   -1    0    0    0    0 -0.00000000000E+00 -0.00000000000E+00 -0.10000000000E+04  0.10000000000E+04  0.00000000000E+00 0.  1.
    9000005    2    1    2  501    0  0.19005490081E-02 -0.20410632621E-02 -0.89803415467E+03  0.11019657515E+04  0.63864166357E+03 0.  0.
         13    1    3    3    0    0  0.92600855694E+02 -0.30235168752E+03 -0.37233422020E+03  0.48849179415E+03  0.00000000000E+00 0.  1.
          1    1    3    3  501    0 -0.92598955145E+02  0.30234964645E+03 -0.52569993447E+03  0.61347395731E+03  0.00000000000E+00 0.  1.
         21    1    1    2  502  501 -0.19005490081E-02  0.20410632621E-02  0.41385551879E-01  0.41479415739E-01  0.00000000000E+00 0.  1.
<mgrwt>
<rscale>  1 0.63864166E+03</rscale>
<asrwt>0</asrwt>
<pdfrwt beam="1">  1        1 0.37093617E+00 0.63864166E+03</pdfrwt>
<pdfrwt beam="2">0</pdfrwt>
<totfact> 0.18026514E+00</totfact>
</mgrwt>
</event>
<event>
 6    1  0.2552886E-003  0.6526273E+03  0.7818608E-02  0.9801862E-01
          1   -1    0    0  502    0  0.00000000000E+00  0.00000000000E+00  0.11254994144E+03  0.11254994144E+03  0.00000000000E+00 0.  1.
         13   -1    0    0    0    0 -0.00000000000E+00 -0.00000000000E+00 -0.10000000000E+04  0.10000000000E+04  0.00000000000E+00 0.  1.
    9000005    2    1    2  501    0 -0.26366723953E+00  0.12123889581E-01 -0.89351621964E+03  0.11064780408E+04  0.65262726750E+03 0.  0.
         13    1    3    3    0    0 -0.12471832736E+03  0.29301730234E+03 -0.32571911131E+03  0.45552907715E+03  0.00000000000E+00 0.  1.
          1    1    3    3  501    0  0.12445466012E+03 -0.29300517845E+03 -0.56779710833E+03  0.65094896363E+03  0.00000000000E+00 0.  1.
         21    1    1    2  502  501  0.26366723953E+00 -0.12123889581E-01  0.60661610793E+01  0.60719006614E+01  0.00000000000E+00 0.  1.
<mgrwt>
<rscale>  1 0.65262732E+03</rscale>
<asrwt>0</asrwt>
<pdfrwt beam="1">  1        1 0.40927338E+00 0.65262732E+03</pdfrwt>
<pdfrwt beam="2">0</pdfrwt>
<totfact> 0.12154953E+00</totfact>
</mgrwt>
</event>
<event>
 6    1  0.2552886E-003  0.6519647E+03  0.7818608E-02  0.9803100E-01
          1   -1    0    0  502    0  0.00000000000E+00  0.00000000000E+00  0.10626533034E+03  0.10626533034E+03  0.00000000000E+00 0.  1.
         13   -1    0    0    0    0 -0.00000000000E+00 -0.00000000000E+00 -0.10000000000E+04  0.10000000000E+04  0.00000000000E+00 0.  1.
    9000005    2    1    2  501    0 -0.30609670034E-04 -0.65766014636E-04 -0.89373550140E+03  0.11062644954E+04  0.65196471331E+03 0.  0.
         13    1    3    3    0    0  0.31061196692E+03  0.59120273485E+02 -0.31229955210E+03  0.44441648368E+03  0.00000000000E+00 0.  1.
          1    1    3    3  501    0 -0.31061199753E+03 -0.59120339251E+02 -0.58143594931E+03  0.66184801176E+03  0.00000000000E+00 0.  1.
         21    1    1    2  502  501  0.30609669994E-04  0.65766014639E-04  0.83174342821E-03  0.83490074317E-03  0.00000000000E+00 0. -1.
<mgrwt>
<rscale>  1 0.65196471E+03</rscale>
<asrwt>0</asrwt>
<pdfrwt beam="1">  1        1 0.38642020E+00 0.65196471E+03</pdfrwt>
<pdfrwt beam="2">0</pdfrwt>
<totfact> 0.15366341E+00</totfact>
</mgrwt>
</event>
<event>
 6    1  0.2552886E-003  0.6578868E+03  0.7818608E-02  0.9792092E-01
          1   -1    0    0  502    0  0.00000000000E+00  0.00000000000E+00  0.10820824590E+03  0.10820824590E+03  0.00000000000E+00 0.  1.
         13   -1    0    0    0    0 -0.00000000000E+00 -0.00000000000E+00 -0.10000000000E+04  0.10000000000E+04  0.00000000000E+00 0.  1.
    9000005    2    1    2  501    0 -0.19442819013E-03  0.34963136358E-03 -0.89179624439E+03  0.11082037378E+04  0.65788675547E+03 0.  0.
         13    1    3    3    0    0  0.18237010863E+03 -0.22457906200E+03 -0.70961082824E+03  0.76631725751E+03  0.00000000000E+00 0.  1.
          3    1    3    3  501    0 -0.18237030306E+03  0.22457941163E+03 -0.18218541615E+03  0.34188648032E+03  0.00000000000E+00 0.  1.
         21    1    1    2  502  501  0.19442819013E-03 -0.34963136357E-03  0.44902882017E-02  0.45080741505E-02  0.00000000000E+00 0.  1.
<mgrwt>
<rscale>  1 0.65788676E+03</rscale>
<asrwt>0</asrwt>
<pdfrwt beam="1">  1        1 0.39348536E+00 0.65788676E+03</pdfrwt>
<pdfrwt beam="2">0</pdfrwt>
<totfact> 0.14281096E+00</totfact>
</mgrwt>
</event>
<event>
 6    1  0.2552886E-003  0.6154704E+03  0.7818608E-02  0.9873820E-01
          1   -1    0    0  502    0  0.00000000000E+00  0.00000000000E+00  0.95630416041E+02  0.95630416041E+02  0.00000000000E+00 0.  1.
         13   -1    0    0    0    0 -0.00000000000E+00 -0.00000000000E+00 -0.10000000000E+04  0.10000000000E+04  0.00000000000E+00 0.  1.
    9000005    2    1    2  501    0  0.13747630659E+00 -0.10932006632E+00 -0.90528995281E+03  0.10946934372E+04  0.61547038257E+03 0.  0.
         13    1    3    3    0    0  0.26052291250E+03 -0.41470186927E+01 -0.16129782451E+03  0.30644146895E+03  0.00000000000E+00 0.  1.
          3    1    3    3  501    0 -0.26038543619E+03  0.40376986264E+01 -0.74399212831E+03  0.78825196820E+03  0.00000000000E+00 0.  1.
         21    1    1    2  502  501 -0.13747630659E+00  0.10932006632E+00  0.92036885566E+00  0.93697889104E+00  0.00000000000E+00 0. -1.
<mgrwt>
<rscale>  1 0.61547041E+03</rscale>
<asrwt>0</asrwt>
<pdfrwt beam="1">  1        1 0.34774770E+00 0.61547041E+03</pdfrwt>
<pdfrwt beam="2">0</pdfrwt>
<totfact> 0.22862528E+00</totfact>
</mgrwt>
</event>
<event>
 6    1  0.2552886E-003  0.6636756E+03  0.7818608E-02  0.9781451E-01
          1   -1    0    0  502    0  0.00000000000E+00  0.00000000000E+00  0.11095494386E+03  0.11095494386E+03  0.00000000000E+00 0.  1.
         13   -1    0    0    0    0 -0.00000000000E+00 -0.00000000000E+00 -0.10000000000E+04  0.10000000000E+04  0.00000000000E+00 0.  1.
    9000005    2    1    2  501    0  0.12471345816E-01  0.22076262662E-02 -0.88988361330E+03  0.11101162911E+04  0.66367562429E+03 0.  0.
         13    1    3    3    0    0  0.15318401191E+03 -0.29363128317E+03 -0.41014122546E+03  0.52716268531E+03  0.00000000000E+00 0.  1.
          3    1    3    3  501    0 -0.15317154057E+03  0.29363349080E+03 -0.47974238784E+03  0.58295360574E+03  0.00000000000E+00 0.  1.
         21    1    1    2  502  501 -0.12471345816E-01 -0.22076262663E-02  0.83855716666E+00  0.83865280649E+00  0.00000000000E+00 0.  1.
<mgrwt>
<rscale>  1 0.66367562E+03</rscale>
<asrwt>0</asrwt>
<pdfrwt beam="1">  1        1 0.40347337E+00 0.66367562E+03</pdfrwt>
<pdfrwt beam="2">0</pdfrwt>
<totfact> 0.12876291E+00</totfact>
</mgrwt>
</event>
<event>
 6    1  0.2552886E-003  0.6466415E+03  0.7818608E-02  0.9813102E-01
          1   -1    0    0  502    0  0.00000000000E+00  0.00000000000E+00  0.10454300673E+03  0.10454300673E+03  0.00000000000E+00 0.  1.
         13   -1    0    0    0    0 -0.00000000000E+00 -0.00000000000E+00 -0.10000000000E+04  0.10000000000E+04  0.00000000000E+00 0.  1.
    9000005    2    1    2  501    0 -0.25151081782E-03  0.14981692567E-03 -0.89546370012E+03  0.11045362935E+04  0.64664146590E+03 0.  0.
         13    1    3    3    0    0  0.12059001150E+02  0.27667415608E+03 -0.16271595752E+03  0.32120163603E+03  0.00000000000E+00 0.  1.
          1    1    3    3  501    0 -0.12059252660E+02 -0.27667400627E+03 -0.73274774259E+03  0.78333465747E+03  0.00000000000E+00 0.  1.
         21    1    1    2  502  501  0.25151081782E-03 -0.14981692571E-03  0.67068419881E-02  0.67132281546E-02  0.00000000000E+00 0. -1.
<mgrwt>
<rscale>  1 0.64664147E+03</rscale>
<asrwt>0</asrwt>
<pdfrwt beam="1">  1        1 0.38015719E+00 0.64664147E+03</pdfrwt>
<pdfrwt beam="2">0</pdfrwt>
<totfact> 0.16393654E+00</totfact>
</mgrwt>
</event>
<event>
 6    1  0.2552886E-003  0.6598030E+03  0.7818608E-02  0.9788557E-01
          1   -1    0    0  502    0  0.00000000000E+00  0.00000000000E+00  0.10884201734E+03  0.10884201734E+03  0.00000000000E+00 0.  1.
         13   -1    0    0    0    0 -0.00000000000E+00 -0.00000000000E+00 -0.10000000000E+04  0.10000000000E+04  0.00000000000E+00 0.  1.
    9000005    2    1    2  501    0 -0.28086584868E-02 -0.39196687388E-02 -0.89116408086E+03  0.11088342430E+04  0.65980297014E+03 0.  0.
         13    1    3    3    0    0 -0.22239942539E+02  0.32890375508E+03 -0.46693433163E+03  0.57157673606E+03  0.00000000000E+00 0.  1.
          1    1    3    3  501    0  0.22237133880E+02 -0.32890767474E+03 -0.42422974923E+03  0.53725750694E+03  0.00000000000E+00 0.  1.
         21    1    1    2  502  501  0.28086584868E-02  0.39196687387E-02  0.60981984285E-02  0.77743417464E-02  0.00000000000E+00 0.  1.
<mgrwt>
<rscale>  1 0.65980297E+03</rscale>
<asrwt>0</asrwt>
<pdfrwt beam="1">  1        1 0.39578999E+00 0.65980297E+03</pdfrwt>
<pdfrwt beam="2">0</pdfrwt>
<totfact> 0.13943134E+00</totfact>
</mgrwt>
</event>
<event>
 6    1  0.2552886E-003  0.6546862E+03  0.7818608E-02  0.9798025E-01
          1   -1    0    0  502    0  0.00000000000E+00  0.00000000000E+00  0.10715513139E+03  0.10715513139E+03  0.00000000000E+00 0.  1.
         13   -1    0    0    0    0 -0.00000000000E+00 -0.00000000000E+00 -0.10000000000E+04  0.10000000000E+04  0.00000000000E+00 0.  1.
    9000005    2    1    2  501    0 -0.90246051617E-03  0.42020718170E-03 -0.89284632569E+03  0.11071533667E+04  0.65468619669E+03 0.  0.
         13    1    3    3    0    0  0.11209419887E+03  0.32939834727E+02  0.70693061300E+02  0.13655640245E+03  0.00000000000E+00 0.  1.
          1    1    3    3  501    0 -0.11209510133E+03 -0.32939414519E+02 -0.96353938699E+03  0.97059696427E+03  0.00000000000E+00 0.  1.
         21    1    1    2  502  501  0.90246051617E-03 -0.42020718171E-03  0.14570724168E-02  0.17646725154E-02  0.00000000000E+00 0.  1.
<mgrwt>
<rscale>  1 0.65468620E+03</rscale>
<asrwt>0</asrwt>
<pdfrwt beam="1">  1        1 0.38965584E+00 0.65468620E+03</pdfrwt>
<pdfrwt beam="2">0</pdfrwt>
<totfact> 0.14859940E+00</totfact>
</mgrwt>
</event>
<event>
 6    1  0.2552886E-003  0.6011654E+03  0.7818608E-02  0.9902991E-01
          1   -1    0    0  502    0  0.00000000000E+00  0.00000000000E+00  0.90425008236E+02  0.90425008236E+02  0.00000000000E+00 0.  1.
         13   -1    0    0    0    0 -0.00000000000E+00 -0.00000000000E+00 -0.10000000000E+04  0.10000000000E+04  0.00000000000E+00 0.  1.
    9000005    2    1    2  501    0  0.11927596937E+00  0.26739472425E-01 -0.90959207831E+03  0.10903015833E+04  0.60116535060E+03 0.  0.
         13    1    3    3    0    0  0.17373147852E+03 -0.23349236508E+03 -0.31834896159E+03  0.43133209077E+03  0.00000000000E+00 0.  1.
          3    1    3    3  501    0 -0.17361220255E+03  0.23351910456E+03 -0.59124311672E+03  0.65896949257E+03  0.00000000000E+00 0.  1.
         21    1    1    2  502  501 -0.11927596937E+00 -0.26739472425E-01  0.17086545370E-01  0.12342490141E+00  0.00000000000E+00 0. -1.
<mgrwt>
<rscale>  1 0.60116536E+03</rscale>
<asrwt>0</asrwt>
<pdfrwt beam="1">  1        1 0.32881891E+00 0.60116536E+03</pdfrwt>
<pdfrwt beam="2">0</pdfrwt>
<totfact> 0.27695101E+00</totfact>
</mgrwt>
</event>
<event>
 6    1  0.2579147E-003  0.6318222E+03  0.7818608E-02  0.9841499E-01
          1   -1    0    0  502    0  0.00000000000E+00  0.00000000000E+00  0.99799851541E+02  0.99799851541E+02  0.00000000000E+00 0.  1.
         13   -1    0    0    0    0 -0.00000000000E+00 -0.00000000000E+00 -0.10000000000E+04  0.10000000000E+04  0.00000000000E+00 0.  1.
    9000005    2    1    2  501    0 -0.10648481634E-05 -0.43210303147E-04 -0.90020006851E+03  0.10997997607E+04  0.63182224573E+03 0.  0.
         13    1    3    3    0    0 -0.18870229193E+03 -0.15746636088E+03 -0.79559583967E+03  0.83269259027E+03  0.00000000000E+00 0.  1.
          1    1    3    3  501    0  0.18870229087E+03  0.15746631767E+03 -0.10460422884E+03  0.26710717038E+03  0.00000000000E+00 0.  1.
         21    1    1    2  502  501  0.10648481570E-05  0.43210303149E-04 -0.79948975187E-04  0.90885107874E-04  0.00000000000E+00 0.  1.
<mgrwt>
<rscale>  1 0.63182225E+03</rscale>
<asrwt>0</asrwt>
<pdfrwt beam="1">  1        1 0.36290932E+00 0.63182225E+03</pdfrwt>
<pdfrwt beam="2">0</pdfrwt>
<totfact> 0.19572913E+00</totfact>
</mgrwt>
</event>
<event>
 6    1  0.2552886E-003  0.5986173E+03  0.7818608E-02  0.9908279E-01
          1   -1    0    0  502    0  0.00000000000E+00  0.00000000000E+00  0.89587729287E+02  0.89587729287E+02  0.00000000000E+00 0.  1.
         13   -1    0    0    0    0 -0.00000000000E+00 -0.00000000000E+00 -0.10000000000E+04  0.10000000000E+04  0.00000000000E+00 0.  1.
    9000005    2    1    2  501    0  0.45598553572E-03 -0.68153171222E-02 -0.91040095025E+03  0.10895745077E+04  0.59861733825E+03 0.  0.
         13    1    3    3    0    0 -0.12347195913E+02 -0.29826610814E+03 -0.49477382135E+03  0.57785487694E+03  0.00000000000E+00 0.  1.
          3    1    3    3  501    0  0.12347651898E+02  0.29825929283E+03 -0.41562712890E+03  0.51171963080E+03  0.00000000000E+00 0.  1.
         21    1    1    2  502  501 -0.45598553572E-03  0.68153171221E-02 -0.11320460996E-01  0.13221547090E-01  0.00000000000E+00 0.  1.
<mgrwt>
<rscale>  1 0.59861734E+03</rscale>
<asrwt>0</asrwt>
<pdfrwt beam="1">  1        1 0.32577425E+00 0.59861734E+03</pdfrwt>
<pdfrwt beam="2">0</pdfrwt>
<totfact> 0.28561291E+00</totfact>
</mgrwt>
</event>
<event>
 6    1  0.2552886E-003  0.6624904E+03  0.7818608E-02  0.9783620E-01
          1   -1    0    0  502    0  0.00000000000E+00  0.00000000000E+00  0.11010270047E+03  0.11010270047E+03  0.00000000000E+00 0.  1.
         13   -1    0    0    0    0 -0.00000000000E+00 -0.00000000000E+00 -0.10000000000E+04  0.10000000000E+04  0.00000000000E+00 0.  1.
    9000005    2    1    2  501    0  0.14876932554E-02  0.92374039634E-02 -0.89027655473E+03  0.11097233299E+04  0.66249039606E+03 0.  0.
         13    1    3    3    0    0 -0.82861634977E+01  0.32063483580E+03 -0.30649701820E+03  0.44363924601E+03  0.00000000000E+00 0.  1.
          3    1    3    3  501    0  0.82876511910E+01 -0.32062559839E+03 -0.58377953653E+03  0.66608408386E+03  0.00000000000E+00 0.  1.
         21    1    1    2  502  501 -0.14876932554E-02 -0.92374039634E-02  0.37925519638E+00  0.37937059302E+00  0.00000000000E+00 0. -1.
<mgrwt>
<rscale>  1 0.66249040E+03</rscale>
<asrwt>0</asrwt>
<pdfrwt beam="1">  1        1 0.40037430E+00 0.66249040E+03</pdfrwt>
<pdfrwt beam="2">0</pdfrwt>
<totfact> 0.13296025E+00</totfact>
</mgrwt>
</event>
<event>
 6    1  0.2552886E-003  0.6281576E+03  0.7818608E-02  0.9848651E-01
          1   -1    0    0  502    0  0.00000000000E+00  0.00000000000E+00  0.98657884741E+02  0.98657884741E+02  0.00000000000E+00 0.  1.
         13   -1    0    0    0    0 -0.00000000000E+00 -0.00000000000E+00 -0.10000000000E+04  0.10000000000E+04  0.00000000000E+00 0.  1.
    9000005    2    1    2  501    0  0.15019529907E-02  0.16630496566E-03 -0.90135444209E+03  0.10986454656E+04  0.62815764652E+03 0.  0.
         13    1    3    3    0    0  0.59941644015E+02 -0.25798005529E+03 -0.15541873666E+03  0.30708580774E+03  0.00000000000E+00 0.  1.
          1    1    3    3  501    0 -0.59940142062E+02  0.25798022159E+03 -0.74593570543E+03  0.79155965789E+03  0.00000000000E+00 0.  1.
         21    1    1    2  502  501 -0.15019529907E-02 -0.16630496565E-03  0.12326830076E-01  0.12419108657E-01  0.00000000000E+00 0.  1.
<mgrwt>
<rscale>  1 0.62815765E+03</rscale>
<asrwt>0</asrwt>
<pdfrwt beam="1">  1        1 0.35875670E+00 0.62815765E+03</pdfrwt>
<pdfrwt beam="2">0</pdfrwt>
<totfact> 0.20422562E+00</totfact>
</mgrwt>
</event>
<event>
 6    1  0.2552886E-003  0.6543378E+03  0.7818608E-02  0.9798673E-01
          1   -1    0    0  502    0  0.00000000000E+00  0.00000000000E+00  0.10723353012E+03  0.10723353012E+03  0.00000000000E+00 0.  1.
         13   -1    0    0    0    0 -0.00000000000E+00 -0.00000000000E+00 -0.10000000000E+04  0.10000000000E+04  0.00000000000E+00 0.  1.
    9000005    2    1    2  501    0 -0.25514929183E-02  0.18846912237E-02 -0.89296048035E+03  0.11070394937E+04  0.65433784943E+03 0.  0.
         13    1    3    3    0    0  0.21400178204E+02 -0.74664037783E+02 -0.98417483499E+03  0.98723492240E+03  0.00000000000E+00 0.  1.
          1    1    3    3  501    0 -0.21402729697E+02  0.74665922474E+02  0.91214354646E+02  0.11980457133E+03  0.00000000000E+00 0.  1.
         21    1    1    2  502  501  0.25514929183E-02 -0.18846912236E-02  0.19401046745E+00  0.19403639777E+00  0.00000000000E+00 0. -1.
<mgrwt>
<rscale>  1 0.65433785E+03</rscale>
<asrwt>0</asrwt>
<pdfrwt beam="1">  1        1 0.38994093E+00 0.65433785E+03</pdfrwt>
<pdfrwt beam="2">0</pdfrwt>
<totfact> 0.14817705E+00</totfact>
</mgrwt>
</event>
<event>
 6    1  0.2552886E-003  0.6574092E+03  0.7818608E-02  0.9792975E-01
          1   -1    0    0  502    0  0.00000000000E+00  0.00000000000E+00  0.10804699424E+03  0.10804699424E+03  0.00000000000E+00 0.  1.
         13   -1    0    0    0    0 -0.00000000000E+00 -0.00000000000E+00 -0.10000000000E+04  0.10000000000E+04  0.00000000000E+00 0.  1.
    9000005    2    1    2  501    0 -0.53941731171E-03  0.16724491684E-03 -0.89195292147E+03  0.11080464232E+04  0.65740920431E+03 0.  0.
         13    1    3    3    0    0 -0.70091098665E+02 -0.32107122315E+03 -0.43439596170E+03  0.54470115108E+03  0.00000000000E+00 0.  1.
          1    1    3    3  501    0  0.70090559247E+02  0.32107139039E+03 -0.45755695977E+03  0.56334527215E+03  0.00000000000E+00 0.  1.
         21    1    1    2  502  501  0.53941731172E-03 -0.16724491688E-03 -0.84293205979E-04  0.57100546668E-03  0.00000000000E+00 0.  1.
<mgrwt>
<rscale>  1 0.65740920E+03</rscale>
<asrwt>0</asrwt>
<pdfrwt beam="1">  1        1 0.39289899E+00 0.65740920E+03</pdfrwt>
<pdfrwt beam="2">0</pdfrwt>
<totfact> 0.14368288E+00</totfact>
</mgrwt>
</event>
<event>
 6    1  0.2552886E-003  0.6704970E+03  0.7818608E-02  0.9769060E-01
          1   -1    0    0  502    0  0.00000000000E+00  0.00000000000E+00  0.11239945045E+03  0.11239945045E+03  0.00000000000E+00 0.  1.
         13   -1    0    0    0    0 -0.00000000000E+00 -0.00000000000E+00 -0.10000000000E+04  0.10000000000E+04  0.00000000000E+00 0.  1.
    9000005    2    1    2  501    0 -0.46176178131E-02 -0.27062975644E-02 -0.88760740779E+03  0.11123907509E+04  0.67049703381E+03 0.  0.
         13    1    3    3    0    0  0.33421326643E+03  0.26274394522E+02 -0.44205855286E+03  0.55480141981E+03  0.00000000000E+00 0.  1.
          3    1    3    3  501    0 -0.33421788404E+03 -0.26277100820E+02 -0.44554885493E+03  0.55758933111E+03  0.00000000000E+00 0.  1.
         21    1    1    2  502  501  0.46176178131E-02  0.27062975644E-02  0.68582396012E-02  0.86995339647E-02  0.00000000000E+00 0.  1.
<mgrwt>
<rscale>  1 0.67049703E+03</rscale>
<asrwt>0</asrwt>
<pdfrwt beam="1">  1        1 0.40872614E+00 0.67049703E+03</pdfrwt>
<pdfrwt beam="2">0</pdfrwt>
<totfact> 0.12182210E+00</totfact>
</mgrwt>
</event>
<event>
 6    1  0.2552886E-003  0.6581046E+03  0.7818608E-02  0.9791689E-01
          1   -1    0    0  502    0  0.00000000000E+00  0.00000000000E+00  0.10827567140E+03  0.10827567140E+03  0.00000000000E+00 0.  1.
         13   -1    0    0    0    0 -0.00000000000E+00 -0.00000000000E+00 -0.10000000000E+04  0.10000000000E+04  0.00000000000E+00 0.  1.
    9000005    2    1    2  501    0  0.16920869285E-04 -0.78845410485E-05 -0.89172459658E+03  0.11082754028E+04  0.65810456026E+03 0.  0.
         13    1    3    3    0    0 -0.19585269645E+03  0.19939357789E+03 -0.15340424422E+03  0.31882430860E+03  0.00000000000E+00 0.  1.
          1    1    3    3  501    0  0.19585271337E+03 -0.19939358577E+03 -0.73832035236E+03  0.78945109417E+03  0.00000000000E+00 0.  1.
         21    1    1    2  502  501 -0.16920869275E-04  0.78845410261E-05  0.26798389082E-03  0.26863329567E-03  0.00000000000E+00 0.  1.
<mgrwt>
<rscale>  1 0.65810456E+03</rscale>
<asrwt>0</asrwt>
<pdfrwt beam="1">  1        1 0.39373054E+00 0.65810456E+03</pdfrwt>
<pdfrwt beam="2">0</pdfrwt>
<totfact> 0.14244739E+00</totfact>
</mgrwt>
</event>
<event>
 6    1  0.2552886E-003  0.6433079E+03  0.7818608E-02  0.9819418E-01
          1   -1    0    0  502    0  0.00000000000E+00  0.00000000000E+00  0.10346130092E+03  0.10346130092E+03  0.00000000000E+00 0.  1.
         13   -1    0    0    0    0 -0.00000000000E+00 -0.00000000000E+00 -0.10000000000E+04  0.10000000000E+04  0.00000000000E+00 0.  1.
    9000005    2    1    2  501    0  0.31069809538E-04 -0.42739413288E-05 -0.89653874725E+03  0.11034612434E+04  0.64330785044E+03 0.  0.
         13    1    3    3    0    0 -0.11432385636E+03  0.15018465685E+03 -0.89502282645E+03  0.91470827871E+03  0.00000000000E+00 0.  1.
          3    1    3    3  501    0  0.11432388743E+03 -0.15018466113E+03 -0.15159208082E+01  0.18875296472E+03  0.00000000000E+00 0.  1.
         21    1    1    2  502  501 -0.31069809537E-04  0.42739413466E-05  0.48169680771E-04  0.57479716291E-04  0.00000000000E+00 0. -1.
<mgrwt>
<rscale>  1 0.64330785E+03</rscale>
<asrwt>0</asrwt>
<pdfrwt beam="1">  1        1 0.37622371E+00 0.64330785E+03</pdfrwt>
<pdfrwt beam="2">0</pdfrwt>
<totfact> 0.17071898E+00</totfact>
</mgrwt>
</event>
<event>
 6    1  0.2552886E-003  0.6546661E+03  0.7818608E-02  0.9798063E-01
          1   -1    0    0  502    0  0.00000000000E+00  0.00000000000E+00  0.10715862580E+03  0.10715862580E+03  0.00000000000E+00 0.  1.
         13   -1    0    0    0    0 -0.00000000000E+00 -0.00000000000E+00 -0.10000000000E+04  0.10000000000E+04  0.00000000000E+00 0.  1.
    9000005    2    1    2  501    0  0.41841758099E-02  0.18033979352E-02 -0.89285257568E+03  0.11071465331E+04  0.65466611636E+03 0.  0.
         13    1    3    3    0    0  0.20980581735E+03 -0.62591297427E+02 -0.85794550166E+03  0.88544149176E+03  0.00000000000E+00 0.  1.
          1    1    3    3  501    0 -0.20980163317E+03  0.62593100825E+02 -0.34907074016E+02  0.22170504137E+03  0.00000000000E+00 0.  1.
         21    1    1    2  502  501 -0.41841758099E-02 -0.18033979352E-02  0.11201472814E-01  0.12092665733E-01  0.00000000000E+00 0. -1.
<mgrwt>
<rscale>  1 0.65466612E+03</rscale>
<asrwt>0</asrwt>
<pdfrwt beam="1">  1        1 0.38966855E+00 0.65466612E+03</pdfrwt>
<pdfrwt beam="2">0</pdfrwt>
<totfact> 0.14858068E+00</totfact>
</mgrwt>
</event>
<event>
 6    1  0.2552886E-003  0.6476420E+03  0.7818608E-02  0.9811214E-01
          1   -1    0    0  502    0  0.00000000000E+00  0.00000000000E+00  0.10486127914E+03  0.10486127914E+03  0.00000000000E+00 0.  1.
         13   -1    0    0    0    0 -0.00000000000E+00 -0.00000000000E+00 -0.10000000000E+04  0.10000000000E+04  0.00000000000E+00 0.  1.
    9000005    2    1    2  501    0  0.94681860966E-03 -0.10401251469E-02 -0.89513951185E+03  0.11048596655E+04  0.64764198032E+03 0.  0.
         13    1    3    3    0    0 -0.26750954326E+02  0.21792781724E+03 -0.41520307360E+02  0.22345487913E+03  0.00000000000E+00 0.  1.
          1    1    3    3  501    0  0.26751901145E+02 -0.21792885736E+03 -0.85361920449E+03  0.88140478632E+03  0.00000000000E+00 0.  1.
         21    1    1    2  502  501 -0.94681860966E-03  0.10401251469E-02  0.79098709382E-03  0.16136872012E-02  0.00000000000E+00 0. -1.
<mgrwt>
<rscale>  1 0.64764198E+03</rscale>
<asrwt>0</asrwt>
<pdfrwt beam="1">  1        1 0.38131455E+00 0.64764198E+03</pdfrwt>
<pdfrwt beam="2">0</pdfrwt>
<totfact> 0.16198973E+00</totfact>
</mgrwt>
</event>
<event>
 6    1  0.2552886E-003  0.6801785E+03  0.7818608E-02  0.9751743E-01
          1   -1    0    0  502    0  0.00000000000E+00  0.00000000000E+00  0.11566096673E+03  0.11566096673E+03  0.00000000000E+00 0.  1.
         13   -1    0    0    0    0 -0.00000000000E+00 -0.00000000000E+00 -0.10000000000E+04  0.10000000000E+04  0.00000000000E+00 0.  1.
    9000005    2    1    2  501    0 -0.46011109873E-04 -0.58149974052E-04 -0.88433928005E+03  0.11156607091E+04  0.68017854677E+03 0.  0.
         13    1    3    3    0    0 -0.16561369693E+03  0.26752333946E+03 -0.23043115149E+03  0.38999378116E+03  0.00000000000E+00 0.  1.
          1    1    3    3  501    0  0.16561365092E+03 -0.26752339761E+03 -0.65390812856E+03  0.72566692789E+03  0.00000000000E+00 0.  1.
         21    1    1    2  502  501  0.46011109889E-04  0.58149974043E-04  0.24677633310E-03  0.25767615391E-03  0.00000000000E+00 0. -1.
<mgrwt>
<rscale>  1 0.68017855E+03</rscale>
<asrwt>0</asrwt>
<pdfrwt beam="1">  1        1 0.42058622E+00 0.68017855E+03</pdfrwt>
<pdfrwt beam="2">0</pdfrwt>
<totfact> 0.10753983E+00</totfact>
</mgrwt>
</event>
<event>
 6    1  0.2552886E-003  0.6515908E+03  0.7818608E-02  0.9803799E-01
          1   -1    0    0  502    0  0.00000000000E+00  0.00000000000E+00  0.10617836071E+03  0.10617836071E+03  0.00000000000E+00 0.  1.
         13   -1    0    0    0    0 -0.00000000000E+00 -0.00000000000E+00 -0.10000000000E+04  0.10000000000E+04  0.00000000000E+00 0.  1.
    9000005    2    1    2  501    0 -0.26540807391E-03  0.13914718110E-02 -0.89385734132E+03  0.11061426306E+04  0.65159080147E+03 0.  0.
         13    1    3    3    0    0  0.28838996855E+03  0.11070100587E+03 -0.62268803128E+03  0.69509989999E+03  0.00000000000E+00 0.  1.
          1    1    3    3  501    0 -0.28839023396E+03 -0.11069961440E+03 -0.27116931004E+03  0.41104273060E+03  0.00000000000E+00 0.  1.
         21    1    1    2  502  501  0.26540807391E-03 -0.13914718110E-02  0.35702035385E-01  0.35730126867E-01  0.00000000000E+00 0.  1.
<mgrwt>
<rscale>  1 0.65159080E+03</rscale>
<asrwt>0</asrwt>
<pdfrwt beam="1">  1        1 0.38610394E+00 0.65159080E+03</pdfrwt>
<pdfrwt beam="2">0</pdfrwt>
<totfact> 0.15417013E+00</totfact>
</mgrwt>
</event>
<event>
 6    1  0.2552886E-003  0.6565055E+03  0.7818608E-02  0.9794648E-01
          1   -1    0    0  502    0  0.00000000000E+00  0.00000000000E+00  0.10775110064E+03  0.10775110064E+03  0.00000000000E+00 0.  1.
         13   -1    0    0    0    0 -0.00000000000E+00 -0.00000000000E+00 -0.10000000000E+04  0.10000000000E+04  0.00000000000E+00 0.  1.
    9000005    2    1    2  501    0 -0.18629686787E-03 -0.26863924133E-02 -0.89224819179E+03  0.11077483164E+04  0.65650551916E+03 0.  0.
         13    1    3    3    0    0  0.28985705663E+03  0.80952482552E+02 -0.22496485078E+03  0.37573874141E+03  0.00000000000E+00 0.  1.
          1    1    3    3  501    0 -0.28985724293E+03 -0.80955168944E+02 -0.66728334101E+03  0.73200957497E+03  0.00000000000E+00 0.  1.
         21    1    1    2  502  501  0.18629686787E-03  0.26863924133E-02 -0.70756984032E-03  0.27842531853E-02  0.00000000000E+00 0. -1.
<mgrwt>
<rscale>  1 0.65650552E+03</rscale>
<asrwt>0</asrwt>
<pdfrwt beam="1">  1        1 0.39182301E+00 0.65650552E+03</pdfrwt>
<pdfrwt beam="2">0</pdfrwt>
<totfact> 0.14529669E+00</totfact>
</mgrwt>
</event>
<event>
 6    1  0.2552886E-003  0.6474556E+03  0.7818608E-02  0.9811565E-01
          1   -1    0    0  502    0  0.00000000000E+00  0.00000000000E+00  0.10480213362E+03  0.10480213362E+03  0.00000000000E+00 0.  1.
         13   -1    0    0    0    0 -0.00000000000E+00 -0.00000000000E+00 -0.10000000000E+04  0.10000000000E+04  0.00000000000E+00 0.  1.
    9000005    2    1    2  501    0 -0.55199869973E-02  0.33849484830E-02 -0.89519406896E+03  0.11047946271E+04  0.64745559448E+03 0.  0.
         13    1    3    3    0    0  0.30699301420E+03 -0.60106401537E+02 -0.58974748918E+03  0.66757740470E+03  0.00000000000E+00 0.  1.
          1    1    3    3  501    0 -0.30699853419E+03  0.60109786486E+02 -0.30544657978E+03  0.43721722236E+03  0.00000000000E+00 0.  1.
         21    1    1    2  502  501  0.55199869973E-02 -0.33849484830E-02 -0.37974138332E-02  0.75065627623E-02  0.00000000000E+00 0.  1.
<mgrwt>
<rscale>  1 0.64745559E+03</rscale>
<asrwt>0</asrwt>
<pdfrwt beam="1">  1        1 0.38109947E+00 0.64745559E+03</pdfrwt>
<pdfrwt beam="2">0</pdfrwt>
<totfact> 0.16234985E+00</totfact>
</mgrwt>
</event>
<event>
 6    1  0.2552886E-003  0.6516696E+03  0.7818608E-02  0.9803651E-01
          1   -1    0    0  502    0  0.00000000000E+00  0.00000000000E+00  0.10674768806E+03  0.10674768806E+03  0.00000000000E+00 0.  1.
         13   -1    0    0    0    0 -0.00000000000E+00 -0.00000000000E+00 -0.10000000000E+04  0.10000000000E+04  0.00000000000E+00 0.  1.
    9000005    2    1    2  501    0  0.10950197416E-01  0.71953083363E-01 -0.89382914431E+03  0.11061662822E+04  0.65166962445E+03 0.  0.
         13    1    3    3    0    0  0.57509552264E+02 -0.25936395619E+03 -0.76702764125E+03  0.81173173698E+03  0.00000000000E+00 0.  1.
          1    1    3    3  501    0 -0.57498602066E+02  0.25943590928E+03 -0.12680150306E+03  0.29443454526E+03  0.00000000000E+00 0.  1.
         21    1    1    2  502  501 -0.10950197416E-01 -0.71953083363E-01  0.57683236739E+00  0.58140582478E+00  0.00000000000E+00 0. -1.
<mgrwt>
<rscale>  1 0.65166963E+03</rscale>
<asrwt>0</asrwt>
<pdfrwt beam="1">  1        1 0.38817423E+00 0.65166963E+03</pdfrwt>
<pdfrwt beam="2">0</pdfrwt>
<totfact> 0.15094776E+00</totfact>
</mgrwt>
</event>
<event>
 6    1  0.2552886E-003  0.6590839E+03  0.7818608E-02  0.9789882E-01
          1   -1    0    0  502    0  0.00000000000E+00  0.00000000000E+00  0.10874333504E+03  0.10874333504E+03  0.00000000000E+00 0.  1.
         13   -1    0    0    0    0 -0.00000000000E+00 -0.00000000000E+00 -0.10000000000E+04  0.10000000000E+04  0.00000000000E+00 0.  1.
    9000005    2    1    2  501    0 -0.70495445156E-02 -0.69652607137E-01 -0.89139269331E+03  0.11085903485E+04  0.65908392644E+03 0.  0.
         13    1    3    3    0    0  0.18292374307E+03  0.66998793590E+02 -0.89274009767E+03  0.91374767639E+03  0.00000000000E+00 0.  1.
          1    1    3    3  501    0 -0.18293079261E+03 -0.67068446197E+02  0.13474043544E+01  0.19484267207E+03  0.00000000000E+00 0.  1.
         21    1    1    2  502  501  0.70495445156E-02  0.69652607137E-01  0.13602835401E+00  0.15298658390E+00  0.00000000000E+00 0. -1.
<mgrwt>
<rscale>  1 0.65908393E+03</rscale>
<asrwt>0</asrwt>
<pdfrwt beam="1">  1        1 0.39543114E+00 0.65908393E+03</pdfrwt>
<pdfrwt beam="2">0</pdfrwt>
<totfact> 0.13996351E+00</totfact>
</mgrwt>
</event>
<event>
 6    1  0.2552886E-003  0.6496180E+03  0.7818608E-02  0.9807496E-01
          1   -1    0    0  502    0  0.00000000000E+00  0.00000000000E+00  0.10550124928E+03  0.10550124928E+03  0.00000000000E+00 0.  1.
         13   -1    0    0    0    0 -0.00000000000E+00 -0.00000000000E+00 -0.10000000000E+04  0.10000000000E+04  0.00000000000E+00 0.  1.
    9000005    2    1    2  501    0 -0.95138885914E-03 -0.64221486792E-03 -0.89449696191E+03  0.11054991239E+04  0.64961796311E+03 0.  0.
         13    1    3    3    0    0 -0.15874197618E+03 -0.27614720170E+03 -0.55548097042E+03  0.64032444941E+03  0.00000000000E+00 0.  1.
          3    1    3    3  501    0  0.15874102479E+03  0.27614655948E+03 -0.33901599149E+03  0.46517467445E+03  0.00000000000E+00 0.  1.
         21    1    1    2  502  501  0.95138885912E-03  0.64221486790E-03 -0.17888078750E-02  0.21254209728E-02  0.00000000000E+00 0.  1.
<mgrwt>
<rscale>  1 0.64961796E+03</rscale>
<asrwt>0</asrwt>
<pdfrwt beam="1">  1        1 0.38364172E+00 0.64961796E+03</pdfrwt>
<pdfrwt beam="2">0</pdfrwt>
<totfact> 0.15814257E+00</totfact>
</mgrwt>
</event>
<event>
 6    1  0.2552886E-003  0.6454633E+03  0.7818608E-02  0.9815329E-01
          1   -1    0    0  502    0  0.00000000000E+00  0.00000000000E+00  0.10416085607E+03  0.10416085607E+03  0.00000000000E+00 0.  1.
         13   -1    0    0    0    0 -0.00000000000E+00 -0.00000000000E+00 -0.10000000000E+04  0.10000000000E+04  0.00000000000E+00 0.  1.
    9000005    2    1    2  501    0 -0.40019173278E-03  0.13738155445E-03 -0.89584426479E+03  0.11041557178E+04  0.64546332374E+03 0.  0.
         13    1    3    3    0    0  0.21125217454E+03  0.23965034319E+03 -0.52623696273E+03  0.61561766477E+03  0.00000000000E+00 0.  1.
          3    1    3    3  501    0 -0.21125257473E+03 -0.23965020581E+03 -0.36960730207E+03  0.48853805299E+03  0.00000000000E+00 0.  1.
         21    1    1    2  502  501  0.40019173278E-03 -0.13738155444E-03  0.51208655498E-02  0.51383159784E-02  0.00000000000E+00 0.  1.
<mgrwt>
<rscale>  1 0.64546332E+03</rscale>
<asrwt>0</asrwt>
<pdfrwt beam="1">  1        1 0.37876755E+00 0.64546332E+03</pdfrwt>
<pdfrwt beam="2">0</pdfrwt>
<totfact> 0.16630282E+00</totfact>
</mgrwt>
</event>
<event>
 6    1  0.2552886E-003  0.6225076E+03  0.7818608E-02  0.9859780E-01
          1   -1    0    0  502    0  0.00000000000E+00  0.00000000000E+00  0.96879166302E+02  0.96879166302E+02  0.00000000000E+00 0.  1.
         13   -1    0    0    0    0 -0.00000000000E+00 -0.00000000000E+00 -0.10000000000E+04  0.10000000000E+04  0.00000000000E+00 0.  1.
    9000005    2    1    2  501    0 -0.39390477986E-03 -0.25197164277E-04 -0.90312087703E+03  0.10968787692E+04  0.62250760304E+03 0.  0.
         13    1    3    3    0    0 -0.35589686789E+02  0.97333587774E+02  0.65584845333E+02  0.12264511834E+03  0.00000000000E+00 0.  1.
          3    1    3    3  501    0  0.35589292884E+02 -0.97333612971E+02 -0.96870572236E+03  0.97423365088E+03  0.00000000000E+00 0.  1.
         21    1    1    2  502  501  0.39390477986E-03  0.25197164285E-04  0.43329303091E-04  0.39708097561E-03  0.00000000000E+00 0.  1.
<mgrwt>
<rscale>  1 0.62250760E+03</rscale>
<asrwt>0</asrwt>
<pdfrwt beam="1">  1        1 0.35228862E+00 0.62250760E+03</pdfrwt>
<pdfrwt beam="2">0</pdfrwt>
<totfact> 0.21816808E+00</totfact>
</mgrwt>
</event>
<event>
 6    1  0.2552886E-003  0.6592344E+03  0.7818608E-02  0.9789604E-01
          1   -1    0    0  502    0  0.00000000000E+00  0.00000000000E+00  0.10864951120E+03  0.10864951120E+03  0.00000000000E+00 0.  1.
         13   -1    0    0    0    0 -0.00000000000E+00 -0.00000000000E+00 -0.10000000000E+04  0.10000000000E+04  0.00000000000E+00 0.  1.
    9000005    2    1    2  501    0 -0.62992165954E-03  0.37167029609E-03 -0.89135244085E+03  0.11086474266E+04  0.65923436104E+03 0.  0.
         13    1    3    3    0    0  0.16107859109E+03 -0.28703692567E+03 -0.47532219587E+03  0.57815888742E+03  0.00000000000E+00 0.  1.
          3    1    3    3  501    0 -0.16107922102E+03  0.28703729734E+03 -0.41603024497E+03  0.53048853922E+03  0.00000000000E+00 0.  1.
         21    1    1    2  502  501  0.62992165955E-03 -0.37167029611E-03  0.19520425739E-02  0.20845647787E-02  0.00000000000E+00 0.  1.
<mgrwt>
<rscale>  1 0.65923436E+03</rscale>
<asrwt>0</asrwt>
<pdfrwt beam="1">  1        1 0.39508996E+00 0.65923436E+03</pdfrwt>
<pdfrwt beam="2">0</pdfrwt>
<totfact> 0.14044945E+00</totfact>
</mgrwt>
</event>
<event>
 6    1  0.2552886E-003  0.6648804E+03  0.7818608E-02  0.9779251E-01
          1   -1    0    0  502    0  0.00000000000E+00  0.00000000000E+00  0.11238047213E+03  0.11238047213E+03  0.00000000000E+00 0.  1.
         13   -1    0    0    0    0 -0.00000000000E+00 -0.00000000000E+00 -0.10000000000E+04  0.10000000000E+04  0.00000000000E+00 0.  1.
    9000005    2    1    2  501    0 -0.34185080633E-01 -0.16224324703E-01 -0.88948330247E+03  0.11105163134E+04  0.66488039196E+03 0.  0.
         13    1    3    3    0    0 -0.59105134958E+02  0.22397167124E+03 -0.84300855162E+03  0.87425405038E+03  0.00000000000E+00 0.  1.
          3    1    3    3  501    0  0.59070949878E+02 -0.22398789557E+03 -0.46474750852E+02  0.23626226306E+03  0.00000000000E+00 0.  1.
         21    1    1    2  502  501  0.34185080633E-01  0.16224324703E-01  0.18637746015E+01  0.18641586879E+01  0.00000000000E+00 0.  1.
<mgrwt>
<rscale>  1 0.66488039E+03</rscale>
<asrwt>0</asrwt>
<pdfrwt beam="1">  1        1 0.40865712E+00 0.66488039E+03</pdfrwt>
<pdfrwt beam="2">0</pdfrwt>
<totfact> 0.12203840E+00</totfact>
</mgrwt>
</event>
<event>
 6    1  0.2552886E-003  0.6194445E+03  0.7818608E-02  0.9865866E-01
          1   -1    0    0  502    0  0.00000000000E+00  0.00000000000E+00  0.97032885426E+02  0.97032885426E+02  0.00000000000E+00 0.  1.
         13   -1    0    0    0    0 -0.00000000000E+00 -0.00000000000E+00 -0.10000000000E+04  0.10000000000E+04  0.00000000000E+00 0.  1.
    9000005    2    1    2  501    0 -0.35011089822E-02  0.47290451400E-01 -0.90407158347E+03  0.10959273990E+04  0.61944445566E+03 0.  0.
         13    1    3    3    0    0  0.27930524620E+02  0.59382507845E+02  0.83488613733E+02  0.10619201979E+03  0.00000000000E+00 0.  1.
          1    1    3    3  501    0 -0.27934025729E+02 -0.59335217394E+02 -0.98756019720E+03  0.98973537924E+03  0.00000000000E+00 0.  1.
         21    1    1    2  502  501  0.35011089822E-02 -0.47290451400E-01  0.11044688949E+01  0.11054864017E+01  0.00000000000E+00 0.  1.
<mgrwt>
<rscale>  1 0.61944446E+03</rscale>
<asrwt>0</asrwt>
<pdfrwt beam="1">  1        1 0.35284760E+00 0.61944446E+03</pdfrwt>
<pdfrwt beam="2">0</pdfrwt>
<totfact> 0.21706634E+00</totfact>
</mgrwt>
</event>
<event>
 6    1  0.2552886E-003  0.6570138E+03  0.7818608E-02  0.9793707E-01
          1   -1    0    0  502    0  0.00000000000E+00  0.00000000000E+00  0.10791701933E+03  0.10791701933E+03  0.00000000000E+00 0.  1.
         13   -1    0    0    0    0 -0.00000000000E+00 -0.00000000000E+00 -0.10000000000E+04  0.10000000000E+04  0.00000000000E+00 0.  1.
    9000005    2    1    2  501    0 -0.66164769748E-04  0.76642274742E-04 -0.89208321903E+03  0.11079167604E+04  0.65701375802E+03 0.  0.
         13    1    3    3    0    0  0.25720700062E+03 -0.61404733586E+02 -0.11736276673E+03  0.28930952540E+03  0.00000000000E+00 0.  1.
          3    1    3    3  501    0 -0.25720706678E+03  0.61404810228E+02 -0.77472045230E+03  0.81860723496E+03  0.00000000000E+00 0.  1.
         21    1    1    2  502  501  0.66164769753E-04 -0.76642274745E-04  0.23835792810E-03  0.25897165274E-03  0.00000000000E+00 0. -1.
<mgrwt>
<rscale>  1 0.65701376E+03</rscale>
<asrwt>0</asrwt>
<pdfrwt beam="1">  1        1 0.39242635E+00 0.65701376E+03</pdfrwt>
<pdfrwt beam="2">0</pdfrwt>
<totfact> 0.14438962E+00</totfact>
</mgrwt>
</event>
<event>
 6    1  0.2552886E-003  0.6428950E+03  0.7818608E-02  0.9820203E-01
          1   -1    0    0  502    0  0.00000000000E+00  0.00000000000E+00  0.10337368873E+03  0.10337368873E+03  0.00000000000E+00 0.  1.
         13   -1    0    0    0    0 -0.00000000000E+00 -0.00000000000E+00 -0.10000000000E+04  0.10000000000E+04  0.00000000000E+00 0.  1.
    9000005    2    1    2  501    0 -0.12547101145E-02  0.24998726440E-02 -0.89667144544E+03  0.11033284680E+04  0.64289503588E+03 0.  0.
         13    1    3    3    0    0 -0.11887194562E+03  0.40921525271E+02  0.59387454689E+02  0.13903949245E+03  0.00000000000E+00 0.  1.
          1    1    3    3  501    0  0.11887069091E+03 -0.40919025398E+02 -0.95605890013E+03  0.96428897552E+03  0.00000000000E+00 0.  1.
         21    1    1    2  502  501  0.12547101145E-02 -0.24998726440E-02  0.45134169239E-01  0.45220757331E-01  0.00000000000E+00 0.  1.
<mgrwt>
<rscale>  1 0.64289504E+03</rscale>
<asrwt>0</asrwt>
<pdfrwt beam="1">  1        1 0.37590512E+00 0.64289504E+03</pdfrwt>
<pdfrwt beam="2">0</pdfrwt>
<totfact> 0.17128435E+00</totfact>
</mgrwt>
</event>
<event>
 6    1  0.2552886E-003  0.6502517E+03  0.7818608E-02  0.9806307E-01
          1   -1    0    0  502    0  0.00000000000E+00  0.00000000000E+00  0.10570712169E+03  0.10570712169E+03  0.00000000000E+00 0.  1.
         13   -1    0    0    0    0 -0.00000000000E+00 -0.00000000000E+00 -0.10000000000E+04  0.10000000000E+04  0.00000000000E+00 0.  1.
    9000005    2    1    2  501    0  0.26471904775E-04 -0.12507202143E-04 -0.89429318266E+03  0.11057068159E+04  0.65025169454E+03 0.  0.
         13    1    3    3    0    0 -0.82593199151E+02  0.31287009077E+03 -0.39344208303E+03  0.50941731708E+03  0.00000000000E+00 0.  1.
          1    1    3    3  501    0  0.82593225623E+02 -0.31287010327E+03 -0.50085109963E+03  0.59628949885E+03  0.00000000000E+00 0.  1.
         21    1    1    2  502  501 -0.26471904780E-04  0.12507202131E-04  0.30435249158E-03  0.30575747084E-03  0.00000000000E+00 0. -1.
<mgrwt>
<rscale>  1 0.65025169E+03</rscale>
<asrwt>0</asrwt>
<pdfrwt beam="1">  1        1 0.38439034E+00 0.65025169E+03</pdfrwt>
<pdfrwt beam="2">0</pdfrwt>
<totfact> 0.15692361E+00</totfact>
</mgrwt>
</event>
<event>
 6    1  0.2552886E-003  0.6434082E+03  0.7818608E-02  0.9819227E-01
          1   -1    0    0  502    0  0.00000000000E+00  0.00000000000E+00  0.10349390827E+03  0.10349390827E+03  0.00000000000E+00 0.  1.
         13   -1    0    0    0    0 -0.00000000000E+00 -0.00000000000E+00 -0.10000000000E+04  0.10000000000E+04  0.00000000000E+00 0.  1.
    9000005    2    1    2  501    0  0.15743343567E-04  0.20174098609E-04 -0.89650647782E+03  0.11034935213E+04  0.64340818060E+03 0.  0.
         13    1    3    3    0    0 -0.15679365464E+03  0.19580258422E+03 -0.10280018737E+03  0.27109183066E+03  0.00000000000E+00 0.  1.
          1    1    3    3  501    0  0.15679367039E+03 -0.19580256405E+03 -0.79370629044E+03  0.83240169068E+03  0.00000000000E+00 0.  1.
         21    1    1    2  502  501 -0.15743343588E-04 -0.20174098593E-04  0.38608371459E-03  0.38693084885E-03  0.00000000000E+00 0.  1.
<mgrwt>
<rscale>  1 0.64340818E+03</rscale>
<asrwt>0</asrwt>
<pdfrwt beam="1">  1        1 0.37634228E+00 0.64340818E+03</pdfrwt>
<pdfrwt beam="2">0</pdfrwt>
<totfact> 0.17051068E+00</totfact>
</mgrwt>
</event>
<event>
 6    1  0.2552886E-003  0.6442860E+03  0.7818608E-02  0.9817561E-01
          1   -1    0    0  502    0  0.00000000000E+00  0.00000000000E+00  0.10512228750E+03  0.10512228750E+03  0.00000000000E+00 0.  1.
         13   -1    0    0    0    0 -0.00000000000E+00 -0.00000000000E+00 -0.10000000000E+04  0.10000000000E+04  0.00000000000E+00 0.  1.
    9000005    2    1    2  501    0  0.17454679690E-01  0.12426177706E-01 -0.89622378937E+03  0.11037760401E+04  0.64428601230E+03 0.  0.
         13    1    3    3    0    0 -0.10886308600E+03  0.29701695265E+03 -0.55243214281E+03  0.63659368051E+03  0.00000000000E+00 0.  1.
          1    1    3    3  501    0  0.10888054068E+03 -0.29700452647E+03 -0.34379164656E+03  0.46718235961E+03  0.00000000000E+00 0.  1.
         21    1    1    2  502  501 -0.17454679690E-01 -0.12426177706E-01  0.13460768687E+01  0.13462473815E+01  0.00000000000E+00 0.  1.
<mgrwt>
<rscale>  1 0.64428601E+03</rscale>
<asrwt>0</asrwt>
<pdfrwt beam="1">  1        1 0.38226367E+00 0.64428601E+03</pdfrwt>
<pdfrwt beam="2">0</pdfrwt>
<totfact> 0.16053337E+00</totfact>
</mgrwt>
</event>
<event>
 6    1  0.2552886E-003  0.6587430E+03  0.7818608E-02  0.9790511E-01
          1   -1    0    0  502    0  0.00000000000E+00  0.00000000000E+00  0.10848694669E+03  0.10848694669E+03  0.00000000000E+00 0.  1.
         13   -1    0    0    0    0 -0.00000000000E+00 -0.00000000000E+00 -0.10000000000E+04  0.10000000000E+04  0.00000000000E+00 0.  1.
    9000005    2    1    2  501    0 -0.10680113860E-06 -0.35128362910E-04 -0.89151442296E+03  0.11084855766E+04  0.65874297504E+03 0.  0.
         13    1    3    3    0    0 -0.20215130384E+03  0.81641628867E+02 -0.30307015232E+02  0.22011138176E+03  0.00000000000E+00 0.  1.
          1    1    3    3  501    0  0.20215130374E+03 -0.81641663995E+02 -0.86120740773E+03  0.88837419482E+03  0.00000000000E+00 0.  1.
         21    1    1    2  502  501  0.10680115351E-06  0.35128362910E-04  0.13696553279E-02  0.13701057370E-02  0.00000000000E+00 0. -1.
<mgrwt>
<rscale>  1 0.65874298E+03</rscale>
<asrwt>0</asrwt>
<pdfrwt beam="1">  1        1 0.39449882E+00 0.65874298E+03</pdfrwt>
<pdfrwt beam="2">0</pdfrwt>
<totfact> 0.14131497E+00</totfact>
</mgrwt>
</event>
<event>
 6    1  0.2552886E-003  0.6465750E+03  0.7818608E-02  0.9813227E-01
          1   -1    0    0  502    0  0.00000000000E+00  0.00000000000E+00  0.10451482812E+03  0.10451482812E+03  0.00000000000E+00 0.  1.
         13   -1    0    0    0    0 -0.00000000000E+00 -0.00000000000E+00 -0.10000000000E+04  0.10000000000E+04  0.00000000000E+00 0.  1.
    9000005    2    1    2  501    0 -0.17996474739E-04  0.31890605214E-04 -0.89548512968E+03  0.11045147723E+04  0.64657502631E+03 0.  0.
         13    1    3    3    0    0  0.80476961375E+02 -0.30498429803E+03 -0.56880997700E+03  0.65041275609E+03  0.00000000000E+00 0.  1.
          3    1    3    3  501    0 -0.80476979372E+02  0.30498432992E+03 -0.32667515269E+03  0.45410201617E+03  0.00000000000E+00 0.  1.
         21    1    1    2  502  501  0.17996474738E-04 -0.31890605223E-04 -0.42191687928E-04  0.55866110789E-04  0.00000000000E+00 0. -1.
<mgrwt>
<rscale>  1 0.64657503E+03</rscale>
<asrwt>0</asrwt>
<pdfrwt beam="1">  1        1 0.38005472E+00 0.64657503E+03</pdfrwt>
<pdfrwt beam="2">0</pdfrwt>
<totfact> 0.16410931E+00</totfact>
</mgrwt>
</event>
<event>
 6    1  0.2552886E-003  0.6404710E+03  0.7818608E-02  0.9824826E-01
          1   -1    0    0  502    0  0.00000000000E+00  0.00000000000E+00  0.10255710489E+03  0.10255710489E+03  0.00000000000E+00 0.  1.
         13   -1    0    0    0    0 -0.00000000000E+00 -0.00000000000E+00 -0.10000000000E+04  0.10000000000E+04  0.00000000000E+00 0.  1.
    9000005    2    1    2  501    0 -0.52031641644E-04  0.10346923283E-03 -0.89744922186E+03  0.11025507771E+04  0.64047100654E+03 0.  0.
         13    1    3    3    0    0 -0.31111668786E+03  0.50279250114E+02 -0.54654896123E+03  0.63090202368E+03  0.00000000000E+00 0.  1.
          3    1    3    3  501    0  0.31111663583E+03 -0.50279146645E+02 -0.35090026063E+03  0.47164875340E+03  0.00000000000E+00 0.  1.
         21    1    1    2  502  501  0.52031641643E-04 -0.10346923283E-03  0.63267494366E-02  0.63278093846E-02  0.00000000000E+00 0.  1.
<mgrwt>
<rscale>  1 0.64047101E+03</rscale>
<asrwt>0</asrwt>
<pdfrwt beam="1">  1        1 0.37293571E+00 0.64047101E+03</pdfrwt>
<pdfrwt beam="2">0</pdfrwt>
<totfact> 0.17659462E+00</totfact>
</mgrwt>
</event>
<event>
 6    1  0.2552886E-003  0.6310790E+03  0.7818608E-02  0.9842945E-01
          1   -1    0    0  502    0  0.00000000000E+00  0.00000000000E+00  0.10163740950E+03  0.10163740950E+03  0.00000000000E+00 0.  1.
         13   -1    0    0    0    0 -0.00000000000E+00 -0.00000000000E+00 -0.10000000000E+04  0.10000000000E+04  0.00000000000E+00 0.  1.
    9000005    2    1    2  501    0  0.25020200042E+00 -0.20284149789E+00 -0.90042104451E+03  0.10995539080E+04  0.63107894543E+03 0.  0.
         13    1    3    3    0    0 -0.15339711707E+03  0.21857539172E+03 -0.74249030181E+03  0.78904862061E+03  0.00000000000E+00 0.  1.
          3    1    3    3  501    0  0.15364731907E+03 -0.21877823322E+03 -0.15793074270E+03  0.31050528736E+03  0.00000000000E+00 0.  1.
         21    1    1    2  502  501 -0.25020200042E+00  0.20284149789E+00  0.20584540164E+01  0.20835015363E+01  0.00000000000E+00 0.  1.
<mgrwt>
<rscale>  1 0.63107903E+03</rscale>
<asrwt>0</asrwt>
<pdfrwt beam="1">  1        1 0.36959136E+00 0.63107903E+03</pdfrwt>
<pdfrwt beam="2">0</pdfrwt>
<totfact> 0.18298645E+00</totfact>
</mgrwt>
</event>
<event>
 6    1  0.2552886E-003  0.6444217E+03  0.7818608E-02  0.9817303E-01
          1   -1    0    0  502    0  0.00000000000E+00  0.00000000000E+00  0.10381984330E+03  0.10381984330E+03  0.00000000000E+00 0.  1.
         13   -1    0    0    0    0 -0.00000000000E+00 -0.00000000000E+00 -0.10000000000E+04  0.10000000000E+04  0.00000000000E+00 0.  1.
    9000005    2    1    2  501    0 -0.19596727952E-04  0.10168052285E-04 -0.89618016353E+03  0.11038198202E+04  0.64442168643E+03 0.  0.
         13    1    3    3    0    0 -0.11324550917E+03 -0.10675879235E+03 -0.93134768324E+03  0.94426187690E+03  0.00000000000E+00 0.  1.
          3    1    3    3  501    0  0.11324548958E+03  0.10675880252E+03  0.35167519709E+02  0.15955794329E+03  0.00000000000E+00 0.  1.
         21    1    1    2  502  501  0.19596727954E-04 -0.10168052290E-04  0.68335242469E-05  0.23110994948E-04  0.00000000000E+00 0.  1.
<mgrwt>
<rscale>  1 0.64442169E+03</rscale>
<asrwt>0</asrwt>
<pdfrwt beam="1">  1        1 0.37752750E+00 0.64442169E+03</pdfrwt>
<pdfrwt beam="2">0</pdfrwt>
<totfact> 0.16844151E+00</totfact>
</mgrwt>
</event>
<event>
 6    1  0.2552886E-003  0.6516657E+03  0.7818608E-02  0.9803659E-01
          1   -1    0    0  502    0  0.00000000000E+00  0.00000000000E+00  0.10616721801E+03  0.10616721801E+03  0.00000000000E+00 0.  1.
         13   -1    0    0    0    0 -0.00000000000E+00 -0.00000000000E+00 -0.10000000000E+04  0.10000000000E+04  0.00000000000E+00 0.  1.
    9000005    2    1    2  501    0 -0.73258829616E-05  0.29218977147E-04 -0.89383294080E+03  0.11061670564E+04  0.65166573528E+03 0.  0.
         13    1    3    3    0    0  0.31411045037E+03  0.75212244419E+02 -0.51982369572E+03  0.61199585895E+03  0.00000000000E+00 0.  1.
          1    1    3    3  501    0 -0.31411045770E+03 -0.75212215200E+02 -0.37400924508E+03  0.49417119742E+03  0.00000000000E+00 0.  1.
         21    1    1    2  502  501  0.73258829581E-05 -0.29218977143E-04  0.15880623537E-03  0.16163798310E-03  0.00000000000E+00 0. -1.
<mgrwt>
<rscale>  1 0.65166574E+03</rscale>
<asrwt>0</asrwt>
<pdfrwt beam="1">  1        1 0.38606343E+00 0.65166574E+03</pdfrwt>
<pdfrwt beam="2">0</pdfrwt>
<totfact> 0.15423167E+00</totfact>
</mgrwt>
</event>
<event>
 6    1  0.2552886E-003  0.6368704E+03  0.7818608E-02  0.9831733E-01
          1   -1    0    0  502    0  0.00000000000E+00  0.00000000000E+00  0.10166959132E+03  0.10166959132E+03  0.00000000000E+00 0.  1.
         13   -1    0    0    0    0 -0.00000000000E+00 -0.00000000000E+00 -0.10000000000E+04  0.10000000000E+04  0.00000000000E+00 0.  1.
    9000005    2    1    2  501    0 -0.85356807493E-01 -0.35048357735E-02 -0.89859153701E+03  0.11013948440E+04  0.63687035162E+03 0.  0.
         13    1    3    3    0    0 -0.22111216123E+03 -0.51803146823E+02 -0.83544398083E+03  0.86576024336E+03  0.00000000000E+00 0.  1.
          1    1    3    3  501    0  0.22102680442E+03  0.51799641987E+02 -0.63147556175E+02  0.23563460067E+03  0.00000000000E+00 0.  1.
         21    1    1    2  502  501  0.85356807493E-01  0.35048357735E-02  0.26112832546E+00  0.27474728537E+00  0.00000000000E+00 0. -1.
<mgrwt>
<rscale>  1 0.63687036E+03</rscale>
<asrwt>0</asrwt>
<pdfrwt beam="1">  1        1 0.36970838E+00 0.63687036E+03</pdfrwt>
<pdfrwt beam="2">0</pdfrwt>
<totfact> 0.18257650E+00</totfact>
</mgrwt>
</event>
<event>
 6    1  0.2552886E-003  0.6762115E+03  0.7818608E-02  0.9758801E-01
          1   -1    0    0  502    0  0.00000000000E+00  0.00000000000E+00  0.11950909734E+03  0.11950909734E+03  0.00000000000E+00 0.  1.
         13   -1    0    0    0    0 -0.00000000000E+00 -0.00000000000E+00 -0.10000000000E+04  0.10000000000E+04  0.00000000000E+00 0.  1.
    9000005    2    1    2  501    0  0.26280022383E-01  0.13680150886E+00 -0.88568346766E+03  0.11143146641E+04  0.67621146571E+03 0.  0.
         13    1    3    3    0    0  0.21960212240E+02 -0.88594372344E+02  0.93622130282E+02  0.13075288529E+03  0.00000000000E+00 0.  1.
          1    1    3    3  501    0 -0.21933932218E+02  0.88731173853E+02 -0.97930559794E+03  0.98356177882E+03  0.00000000000E+00 0.  1.
         21    1    1    2  502  501 -0.26280022383E-01 -0.13680150886E+00  0.51925650048E+01  0.51944332339E+01  0.00000000000E+00 0.  1.
<mgrwt>
<rscale>  1 0.67621148E+03</rscale>
<asrwt>0</asrwt>
<pdfrwt beam="1">  1        1 0.43457945E+00 0.67621148E+03</pdfrwt>
<pdfrwt beam="2">0</pdfrwt>
<totfact> 0.92986232E-01</totfact>
</mgrwt>
</event>
<event>
 6    1  0.2552886E-003  0.6214279E+03  0.7818608E-02  0.9861921E-01
          1   -1    0    0  502    0  0.00000000000E+00  0.00000000000E+00  0.96544616068E+02  0.96544616068E+02  0.00000000000E+00 0.  1.
         13   -1    0    0    0    0 -0.00000000000E+00 -0.00000000000E+00 -0.10000000000E+04  0.10000000000E+04  0.00000000000E+00 0.  1.
    9000005    2    1    2  501    0  0.80868436176E-03  0.12004618422E-02 -0.90345645339E+03  0.10965428164E+04  0.62142785986E+03 0.  0.
         13    1    3    3    0    0  0.56564166879E+02  0.29285006136E+03 -0.29807229055E+03  0.42167256705E+03  0.00000000000E+00 0.  1.
          3    1    3    3  501    0 -0.56563358194E+02 -0.29284886090E+03 -0.60538416285E+03  0.67487024934E+03  0.00000000000E+00 0.  1.
         21    1    1    2  502  501 -0.80868436175E-03 -0.12004618423E-02  0.10694608248E-02  0.17996737169E-02  0.00000000000E+00 0.  1.
<mgrwt>
<rscale>  1 0.62142786E+03</rscale>
<asrwt>0</asrwt>
<pdfrwt beam="1">  1        1 0.35107207E+00 0.62142786E+03</pdfrwt>
<pdfrwt beam="2">0</pdfrwt>
<totfact> 0.22089163E+00</totfact>
</mgrwt>
</event>
<event>
 6    1  0.2552886E-003  0.6541966E+03  0.7818608E-02  0.9798936E-01
          1   -1    0    0  502    0  0.00000000000E+00  0.00000000000E+00  0.10702674699E+03  0.10702674699E+03  0.00000000000E+00 0.  1.
         13   -1    0    0    0    0 -0.00000000000E+00 -0.00000000000E+00 -0.10000000000E+04  0.10000000000E+04  0.00000000000E+00 0.  1.
    9000005    2    1    2  501    0  0.85038984665E-04 -0.16783802993E-01 -0.89300435654E+03  0.11069914039E+04  0.65419659679E+03 0.  0.
         13    1    3    3    0    0 -0.11792681181E+03  0.28933246993E+03 -0.61027514215E+03  0.68560612616E+03  0.00000000000E+00 0.  1.
          1    1    3    3  501    0  0.11792689685E+03 -0.28934925373E+03 -0.28272921439E+03  0.42138527775E+03  0.00000000000E+00 0.  1.
         21    1    1    2  502  501 -0.85038984666E-04  0.16783802993E-01  0.31103531442E-01  0.35343074891E-01  0.00000000000E+00 0.  1.
<mgrwt>
<rscale>  1 0.65419660E+03</rscale>
<asrwt>0</asrwt>
<pdfrwt beam="1">  1        1 0.38918899E+00 0.65419660E+03</pdfrwt>
<pdfrwt beam="2">0</pdfrwt>
<totfact> 0.14932283E+00</totfact>
</mgrwt>
</event>
<event>
 6    1  0.2552886E-003  0.5821438E+03  0.7818608E-02  0.9943161E-01
          1   -1    0    0  502    0  0.00000000000E+00  0.00000000000E+00  0.12673483106E+03  0.12673483106E+03  0.00000000000E+00 0.  1.
         13   -1    0    0    0    0 -0.00000000000E+00 -0.00000000000E+00 -0.10000000000E+04  0.10000000000E+04  0.00000000000E+00 0.  1.
    9000005    2    1    2  501    0 -0.59667141026E+01  0.10911978652E+02 -0.91427683121E+03  0.10838789167E+04  0.58201091826E+03 0.  0.
         13    1    3    3    0    0  0.33044457499E+02  0.30119493336E+02 -0.99296731953E+03  0.99397344920E+03  0.00000000000E+00 0.  1.
          3    1    3    3  501    0 -0.39011171601E+02 -0.19207514684E+02  0.78690488324E+02  0.89905467479E+02  0.00000000000E+00 0.  1.
         21    1    1    2  502  501  0.59667141026E+01 -0.10911978652E+02  0.41011662265E+02  0.42855914377E+02  0.00000000000E+00 0.  1.
<mgrwt>
<rscale>  1 0.58214378E+03</rscale>
<asrwt>0</asrwt>
<pdfrwt beam="1">  1        1 0.46085490E+00 0.58214378E+03</pdfrwt>
<pdfrwt beam="2">0</pdfrwt>
<totfact> 0.71865081E-01</totfact>
</mgrwt>
</event>
<event>
 6    1  0.2552886E-003  0.6509965E+03  0.7818608E-02  0.9804911E-01
          1   -1    0    0  502    0  0.00000000000E+00  0.00000000000E+00  0.10835990786E+03  0.10835990786E+03  0.00000000000E+00 0.  1.
         13   -1    0    0    0    0 -0.00000000000E+00 -0.00000000000E+00 -0.10000000000E+04  0.10000000000E+04  0.00000000000E+00 0.  1.
    9000005    2    1    2  501    0  0.16052605830E-01  0.19892254957E+00 -0.89404633180E+03  0.11059454064E+04  0.65099643530E+03 0.  0.
         13    1    3    3    0    0 -0.20875711426E+03  0.20399907446E+03 -0.20214210717E+03  0.35504448542E+03  0.00000000000E+00 0.  1.
          3    1    3    3  501    0  0.20877316687E+03 -0.20380015191E+03 -0.69190422463E+03  0.75090092101E+03  0.00000000000E+00 0.  1.
         21    1    1    2  502  501 -0.16052605830E-01 -0.19892254957E+00  0.24062396616E+01  0.24145014343E+01  0.00000000000E+00 0.  1.
<mgrwt>
<rscale>  1 0.65099647E+03</rscale>
<asrwt>0</asrwt>
<pdfrwt beam="1">  1        1 0.39403686E+00 0.65099647E+03</pdfrwt>
<pdfrwt beam="2">0</pdfrwt>
<totfact> 0.14219042E+00</totfact>
</mgrwt>
</event>
<event>
 6    1  0.2552886E-003  0.6554021E+03  0.7818608E-02  0.9796695E-01
          1   -1    0    0  502    0  0.00000000000E+00  0.00000000000E+00  0.10739046611E+03  0.10739046611E+03  0.00000000000E+00 0.  1.
         13   -1    0    0    0    0 -0.00000000000E+00 -0.00000000000E+00 -0.10000000000E+04  0.10000000000E+04  0.00000000000E+00 0.  1.
    9000005    2    1    2  501    0 -0.19469729684E-02 -0.20784621497E-02 -0.89261109341E+03  0.11073872191E+04  0.65540208195E+03 0.  0.
         13    1    3    3    0    0 -0.16390749290E+03 -0.25551625341E+03 -0.65485588755E+03  0.72179668567E+03  0.00000000000E+00 0.  1.
          3    1    3    3  501    0  0.16390554592E+03  0.25551417495E+03 -0.23775520586E+03  0.38559053347E+03  0.00000000000E+00 0.  1.
         21    1    1    2  502  501  0.19469729684E-02  0.20784621497E-02  0.15595258478E-02  0.32469723617E-02  0.00000000000E+00 0. -1.
<mgrwt>
<rscale>  1 0.65540208E+03</rscale>
<asrwt>0</asrwt>
<pdfrwt beam="1">  1        1 0.39051161E+00 0.65540208E+03</pdfrwt>
<pdfrwt beam="2">0</pdfrwt>
<totfact> 0.14728689E+00</totfact>
</mgrwt>
</event>
<event>
 6    1  0.2552886E-003  0.5478211E+03  0.7818608E-02  0.1002000E+00
          1   -1    0    0  502    0  0.00000000000E+00  0.00000000000E+00  0.96418449448E+02  0.96418449448E+02  0.00000000000E+00 0.  1.
         13   -1    0    0    0    0 -0.00000000000E+00 -0.00000000000E+00 -0.10000000000E+04  0.10000000000E+04  0.00000000000E+00 0.  1.
    9000005    2    1    2  501    0  0.13496310209E+01 -0.76618150311E+00 -0.92494274068E+03  0.10750009570E+04  0.54781892585E+03 0.  0.
         13    1    3    3    0    0  0.17867982644E+03 -0.20126272436E+03 -0.35641159890E+03  0.44661212749E+03  0.00000000000E+00 0.  1.
          3    1    3    3  501    0 -0.17733019542E+03  0.20049654285E+03 -0.56853114178E+03  0.62838882953E+03  0.00000000000E+00 0.  1.
         21    1    1    2  502  501 -0.13496310209E+01  0.76618150311E+00  0.21361190131E+02  0.21417492426E+02  0.00000000000E+00 0.  1.
<mgrwt>
<rscale>  1 0.54782112E+03</rscale>
<asrwt>0</asrwt>
<pdfrwt beam="1">  1        1 0.35061328E+00 0.54782112E+03</pdfrwt>
<pdfrwt beam="2">0</pdfrwt>
<totfact> 0.22510270E+00</totfact>
</mgrwt>
</event>
<event>
 6    1  0.2552886E-003  0.6447580E+03  0.7818608E-02  0.9816665E-01
          1   -1    0    0  502    0  0.00000000000E+00  0.00000000000E+00  0.10392823661E+03  0.10392823661E+03  0.00000000000E+00 0.  1.
         13   -1    0    0    0    0 -0.00000000000E+00 -0.00000000000E+00 -0.10000000000E+04  0.10000000000E+04  0.00000000000E+00 0.  1.
    9000005    2    1    2  501    0  0.34636616419E-05  0.61247574763E-05 -0.89607176557E+03  0.11039282292E+04  0.64475803699E+03 0.  0.
         13    1    3    3    0    0 -0.28392882994E+03  0.14486937251E+03 -0.53060235541E+03  0.61898430927E+03  0.00000000000E+00 0.  1.
          1    1    3    3  501    0  0.28392883340E+03 -0.14486936638E+03 -0.36546941016E+03  0.48494391997E+03  0.00000000000E+00 0.  1.
         21    1    1    2  502  501 -0.34636616197E-05 -0.61247574785E-05  0.21888556761E-05  0.73689005393E-05  0.00000000000E+00 0.  1.
<mgrwt>
<rscale>  1 0.64475804E+03</rscale>
<asrwt>0</asrwt>
<pdfrwt beam="1">  1        1 0.37792166E+00 0.64475804E+03</pdfrwt>
<pdfrwt beam="2">0</pdfrwt>
<totfact> 0.16775872E+00</totfact>
</mgrwt>
</event>
<event>
 6    1  0.2552886E-003  0.6446860E+03  0.7818608E-02  0.9816802E-01
          1   -1    0    0  502    0  0.00000000000E+00  0.00000000000E+00  0.10390506362E+03  0.10390506362E+03  0.00000000000E+00 0.  1.
         13   -1    0    0    0    0 -0.00000000000E+00 -0.00000000000E+00 -0.10000000000E+04  0.10000000000E+04  0.00000000000E+00 0.  1.
    9000005    2    1    2  501    0 -0.60934660215E-05 -0.19034644367E-04 -0.89609498283E+03  0.11039050131E+04  0.64468601629E+03 0.  0.
         13    1    3    3    0    0 -0.12112647265E+02  0.29395666238E+03 -0.67357800442E+03  0.73502691354E+03  0.00000000000E+00 0.  1.
          3    1    3    3  501    0  0.12112641172E+02 -0.29395668141E+03 -0.22251697841E+03  0.36887809952E+03  0.00000000000E+00 0.  1.
         21    1    1    2  502  501  0.60934660216E-05  0.19034644373E-04  0.46451433664E-04  0.50568603935E-04  0.00000000000E+00 0.  1.
<mgrwt>
<rscale>  1 0.64468602E+03</rscale>
<asrwt>0</asrwt>
<pdfrwt beam="1">  1        1 0.37783739E+00 0.64468602E+03</pdfrwt>
<pdfrwt beam="2">0</pdfrwt>
<totfact> 0.16790447E+00</totfact>
</mgrwt>
</event>
<event>
 6    1  0.2552886E-003  0.6400890E+03  0.7818608E-02  0.9825556E-01
          1   -1    0    0  502    0  0.00000000000E+00  0.00000000000E+00  0.10242898451E+03  0.10242898451E+03  0.00000000000E+00 0.  1.
         13   -1    0    0    0    0 -0.00000000000E+00 -0.00000000000E+00 -0.10000000000E+04  0.10000000000E+04  0.00000000000E+00 0.  1.
    9000005    2    1    2  501    0 -0.11964891990E-02 -0.27206714429E-03 -0.89757050773E+03  0.11024276566E+04  0.64008899507E+03 0.  0.
         13    1    3    3    0    0 -0.20131197237E+03  0.15614679078E+02 -0.21118689091E+02  0.20301804711E+03  0.00000000000E+00 0.  1.
          3    1    3    3  501    0  0.20131077588E+03 -0.15614951146E+02 -0.87645181864E+03  0.89940960946E+03  0.00000000000E+00 0.  1.
         21    1    1    2  502  501  0.11964891990E-02  0.27206714429E-03 -0.50775669665E-03  0.13279396813E-02  0.00000000000E+00 0. -1.
<mgrwt>
<rscale>  1 0.64008900E+03</rscale>
<asrwt>0</asrwt>
<pdfrwt beam="1">  1        1 0.37246982E+00 0.64008900E+03</pdfrwt>
<pdfrwt beam="2">0</pdfrwt>
<totfact> 0.17744199E+00</totfact>
</mgrwt>
</event>
<event>
 6    1  0.4157079E-003  0.5960278E+03  0.7818608E-02  0.9913682E-01
          1   -1    0    0  502    0  0.00000000000E+00  0.00000000000E+00  0.88812288961E+02  0.88812288961E+02  0.00000000000E+00 0.  1.
         13   -1    0    0    0    0 -0.00000000000E+00 -0.00000000000E+00 -0.10000000000E+04  0.10000000000E+04  0.00000000000E+00 0.  1.
    9000005    2    1    2  501    0  0.79807308815E-05 -0.89022533984E-05 -0.91118771475E+03  0.10888122764E+04  0.59602778612E+03 0.  0.
         13    1    3    3    0    0  0.19557538026E+02 -0.18181048802E+03 -0.88546899045E+03  0.90415313077E+03  0.00000000000E+00 0.  1.
          3    1    3    3  501    0 -0.19557530045E+02  0.18181047912E+03 -0.25718724304E+02  0.18465914567E+03  0.00000000000E+00 0.  1.
         21    1    1    2  502  501 -0.79807308819E-05  0.89022533982E-05  0.37102159796E-05  0.12518301945E-04  0.00000000000E+00 0.  1.
<mgrwt>
<rscale>  1 0.59602779E+03</rscale>
<asrwt>0</asrwt>
<pdfrwt beam="1">  1        1 0.32295446E+00 0.59602779E+03</pdfrwt>
<pdfrwt beam="2">0</pdfrwt>
<totfact> 0.29388346E+00</totfact>
</mgrwt>
</event>
<event>
 6    1  0.2552886E-003  0.6295126E+03  0.7818608E-02  0.9846000E-01
          1   -1    0    0  502    0  0.00000000000E+00  0.00000000000E+00  0.10597335441E+03  0.10597335441E+03  0.00000000000E+00 0.  1.
         13   -1    0    0    0    0 -0.00000000000E+00 -0.00000000000E+00 -0.10000000000E+04  0.10000000000E+04  0.00000000000E+00 0.  1.
    9000005    2    1    2  501    0  0.82677790106E-01 -0.90066884571E-01 -0.90092788365E+03  0.10990710335E+04  0.62951256549E+03 0.  0.
         13    1    3    3    0    0  0.29310860617E+03 -0.49185627043E+02 -0.26935549793E+03  0.40110380849E+03  0.00000000000E+00 0.  1.
          1    1    3    3  501    0 -0.29302592838E+03  0.49095560158E+02 -0.63157238572E+03  0.69796722498E+03  0.00000000000E+00 0.  1.
         21    1    1    2  502  501 -0.82677790106E-01  0.90066884571E-01  0.69012380652E+01  0.69023209498E+01  0.00000000000E+00 0.  1.
<mgrwt>
<rscale>  1 0.62951258E+03</rscale>
<asrwt>0</asrwt>
<pdfrwt beam="1">  1        1 0.38535847E+00 0.62951258E+03</pdfrwt>
<pdfrwt beam="2">0</pdfrwt>
<totfact> 0.15598930E+00</totfact>
</mgrwt>
</event>
<event>
 6    1  0.2552886E-003  0.6635486E+03  0.7818608E-02  0.9781683E-01
          1   -1    0    0  502    0  0.00000000000E+00  0.00000000000E+00  0.11040258440E+03  0.11040258440E+03  0.00000000000E+00 0.  1.
         13   -1    0    0    0    0 -0.00000000000E+00 -0.00000000000E+00 -0.10000000000E+04  0.10000000000E+04  0.00000000000E+00 0.  1.
    9000005    2    1    2  501    0  0.44100117289E+00 -0.17422487473E+00 -0.88972343397E+03  0.11099119552E+04  0.66354844179E+03 0.  0.
         13    1    3    3    0    0 -0.22652689169E+03 -0.10126769128E+03 -0.76618587060E+02  0.25969209814E+03  0.00000000000E+00 0.  1.
          1    1    3    3  501    0  0.22696789286E+03  0.10109346641E+03 -0.81310484691E+03  0.85021985710E+03  0.00000000000E+00 0.  1.
         21    1    1    2  502  501 -0.44100117289E+00  0.17422487473E+00  0.12601836419E+00  0.49062915687E+00  0.00000000000E+00 0.  1.
<mgrwt>
<rscale>  1 0.66354861E+03</rscale>
<asrwt>0</asrwt>
<pdfrwt beam="1">  1        1 0.40146479E+00 0.66354861E+03</pdfrwt>
<pdfrwt beam="2">0</pdfrwt>
<totfact> 0.13145298E+00</totfact>
</mgrwt>
</event>
<event>
 6    1  0.2552886E-003  0.6541366E+03  0.7818608E-02  0.9799048E-01
          1   -1    0    0  502    0  0.00000000000E+00  0.00000000000E+00  0.10983982599E+03  0.10983982599E+03  0.00000000000E+00 0.  1.
         13   -1    0    0    0    0 -0.00000000000E+00 -0.00000000000E+00 -0.10000000000E+04  0.10000000000E+04  0.00000000000E+00 0.  1.
    9000005    2    1    2  501    0 -0.64162946500E+01 -0.56344071113E+01 -0.88128815005E+03  0.10975260861E+04  0.65408087489E+03 0.  0.
         13    1    3    3    0    0 -0.29431715268E+03  0.13644605367E+03 -0.53196540165E+03  0.62307888784E+03  0.00000000000E+00 0.  1.
          1    1    3    3  501    0  0.28790085803E+03 -0.14208046078E+03 -0.34932274840E+03  0.47444719826E+03  0.00000000000E+00 0.  1.
         21    1    1    2  502  501  0.64162946500E+01  0.56344071113E+01 -0.88720239662E+01  0.12313739878E+02  0.00000000000E+00 0.  1.
<mgrwt>
<rscale>  1 0.65413661E+03</rscale>
<asrwt>0</asrwt>
<pdfrwt beam="1">  1        1 0.39941839E+00 0.65413661E+03</pdfrwt>
<pdfrwt beam="2">0</pdfrwt>
<totfact> 0.13448265E+00</totfact>
</mgrwt>
</event>
<event>
 6    1  0.2552886E-003  0.6363695E+03  0.7818608E-02  0.9832698E-01
          1   -1    0    0  502    0  0.00000000000E+00  0.00000000000E+00  0.10322210156E+03  0.10322210156E+03  0.00000000000E+00 0.  1.
         13   -1    0    0    0    0 -0.00000000000E+00 -0.00000000000E+00 -0.10000000000E+04  0.10000000000E+04  0.00000000000E+00 0.  1.
    9000005    2    1    2  501    0  0.39743800736E-01  0.10114548433E+00 -0.89875683710E+03  0.11012401812E+04  0.63636944670E+03 0.  0.
         13    1    3    3    0    0 -0.20521908602E+03 -0.99738442889E+02 -0.83302881016E+03  0.86371270039E+03  0.00000000000E+00 0.  1.
          1    1    3    3  501    0  0.20525882982E+03  0.99839588373E+02 -0.65728026948E+02  0.23752748084E+03  0.00000000000E+00 0.  1.
         21    1    1    2  502  501 -0.39743800736E-01 -0.10114548433E+00  0.19789386669E+01  0.19819203379E+01  0.00000000000E+00 0. -1.
<mgrwt>
<rscale>  1 0.63636946E+03</rscale>
<asrwt>0</asrwt>
<pdfrwt beam="1">  1        1 0.37535389E+00 0.63636946E+03</pdfrwt>
<pdfrwt beam="2">0</pdfrwt>
<totfact> 0.17245091E+00</totfact>
</mgrwt>
</event>
<event>
 6    1  0.2552886E-003  0.6475171E+03  0.7818608E-02  0.9811449E-01
          1   -1    0    0  502    0  0.00000000000E+00  0.00000000000E+00  0.10569577757E+03  0.10569577757E+03  0.00000000000E+00 0.  1.
         13   -1    0    0    0    0 -0.00000000000E+00 -0.00000000000E+00 -0.10000000000E+04  0.10000000000E+04  0.00000000000E+00 0.  1.
    9000005    2    1    2  501    0 -0.56905473711E-02  0.12301127165E-01 -0.89518033357E+03  0.11048195616E+04  0.64751713019E+03 0.  0.
         13    1    3    3    0    0  0.11509996764E+03 -0.21045016806E+03 -0.81858386684E+03  0.85300458548E+03  0.00000000000E+00 0.  1.
          3    1    3    3  501    0 -0.11510565818E+03  0.21046246919E+03 -0.76596466726E+02  0.25181497612E+03  0.00000000000E+00 0.  1.
         21    1    1    2  502  501  0.56905473711E-02 -0.12301127165E-01  0.87611114369E+00  0.87621597574E+00  0.00000000000E+00 0.  1.
<mgrwt>
<rscale>  1 0.64751713E+03</rscale>
<asrwt>0</asrwt>
<pdfrwt beam="1">  1        1 0.38434909E+00 0.64751713E+03</pdfrwt>
<pdfrwt beam="2">0</pdfrwt>
<totfact> 0.15706888E+00</totfact>
</mgrwt>
</event>
<event>
 6    1  0.2552886E-003  0.6519562E+03  0.7818608E-02  0.9803115E-01
          1   -1    0    0  502    0  0.00000000000E+00  0.00000000000E+00  0.10747882402E+03  0.10747882402E+03  0.00000000000E+00 0.  1.
         13   -1    0    0    0    0 -0.00000000000E+00 -0.00000000000E+00 -0.10000000000E+04  0.10000000000E+04  0.00000000000E+00 0.  1.
    9000005    2    1    2  501    0  0.22850806076E+00 -0.39622427383E+00 -0.89369056444E+03  0.11062231652E+04  0.65195602392E+03 0.  0.
         13    1    3    3    0    0  0.44157500272E+02  0.18724266825E+03 -0.89302290454E+03  0.91350950169E+03  0.00000000000E+00 0.  1.
          1    1    3    3  501    0 -0.43928992212E+02 -0.18763889253E+03 -0.66765989826E+00  0.19271366354E+03  0.00000000000E+00 0.  1.
         21    1    1    2  502  501 -0.22850806076E+00  0.39622427383E+00  0.11693884639E+01  0.12556587866E+01  0.00000000000E+00 0.  1.
<mgrwt>
<rscale>  1 0.65195618E+03</rscale>
<asrwt>0</asrwt>
<pdfrwt beam="1">  1        1 0.39083291E+00 0.65195618E+03</pdfrwt>
<pdfrwt beam="2">0</pdfrwt>
<totfact> 0.14689838E+00</totfact>
</mgrwt>
</event>
<event>
 6    1  0.2552886E-003  0.6689845E+03  0.7818608E-02  0.9771794E-01
          1   -1    0    0  502    0  0.00000000000E+00  0.00000000000E+00  0.11188561892E+03  0.11188561892E+03  0.00000000000E+00 0.  1.
         13   -1    0    0    0    0 -0.00000000000E+00 -0.00000000000E+00 -0.10000000000E+04  0.10000000000E+04  0.00000000000E+00 0.  1.
    9000005    2    1    2  501    0 -0.29045972951E-04  0.12328179839E-02 -0.88811401157E+03  0.11118843316E+04  0.66898450602E+03 0.  0.
         13    1    3    3    0    0 -0.26313277913E+03 -0.17183276271E+03 -0.25368494748E+03  0.40388291666E+03  0.00000000000E+00 0.  1.
          3    1    3    3  501    0  0.26313275008E+03  0.17183399553E+03 -0.63442906409E+03  0.70800141493E+03  0.00000000000E+00 0.  1.
         21    1    1    2  502  501  0.29045972913E-04 -0.12328179839E-02 -0.36951173180E-03  0.12873316472E-02  0.00000000000E+00 0.  1.
<mgrwt>
<rscale>  1 0.66898451E+03</rscale>
<asrwt>0</asrwt>
<pdfrwt beam="1">  1        1 0.40685765E+00 0.66898451E+03</pdfrwt>
<pdfrwt beam="2">0</pdfrwt>
<totfact> 0.12422824E+00</totfact>
</mgrwt>
</event>
<event>
 6    1  0.2552886E-003  0.6479340E+03  0.7818608E-02  0.9810664E-01
          1   -1    0    0  502    0  0.00000000000E+00  0.00000000000E+00  0.10495468133E+03  0.10495468133E+03  0.00000000000E+00 0.  1.
         13   -1    0    0    0    0 -0.00000000000E+00 -0.00000000000E+00 -0.10000000000E+04  0.10000000000E+04  0.00000000000E+00 0.  1.
    9000005    2    1    2  501    0  0.73105249541E-04 -0.15141466520E-04 -0.89504534021E+03  0.11049546036E+04  0.64793403602E+03 0.  0.
         13    1    3    3    0    0  0.12770548750E+03 -0.19288672099E+03 -0.60740105964E+02  0.23917219559E+03  0.00000000000E+00 0.  1.
          1    1    3    3  501    0 -0.12770541439E+03  0.19288670585E+03 -0.83430523425E+03  0.86578240803E+03  0.00000000000E+00 0.  1.
         21    1    1    2  502  501 -0.73105249543E-04  0.15141466501E-04  0.21537493603E-04  0.77701384475E-04  0.00000000000E+00 0.  1.
<mgrwt>
<rscale>  1 0.64793404E+03</rscale>
<asrwt>0</asrwt>
<pdfrwt beam="1">  1        1 0.38165419E+00 0.64793404E+03</pdfrwt>
<pdfrwt beam="2">0</pdfrwt>
<totfact> 0.16142264E+00</totfact>
</mgrwt>
</event>
<event>
 6    1  0.2552886E-003  0.6168291E+03  0.7818608E-02  0.9871093E-01
          1   -1    0    0  502    0  0.00000000000E+00  0.00000000000E+00  0.95119696412E+02  0.95119696412E+02  0.00000000000E+00 0.  1.
         13   -1    0    0    0    0 -0.00000000000E+00 -0.00000000000E+00 -0.10000000000E+04  0.10000000000E+04  0.00000000000E+00 0.  1.
    9000005    2    1    2  501    0 -0.12615957196E-04 -0.23833772332E-04 -0.90488047293E+03  0.10951195249E+04  0.61682907164E+03 0.  0.
         13    1    3    3    0    0  0.40596256739E+02  0.30558077017E+03 -0.43542459002E+03  0.53349998758E+03  0.00000000000E+00 0.  1.
          1    1    3    3  501    0 -0.40596269355E+02 -0.30558079400E+03 -0.46945588291E+03  0.56161953736E+03  0.00000000000E+00 0.  1.
         21    1    1    2  502  501  0.12615957191E-04  0.23833772352E-04  0.16933692431E-03  0.17147071183E-03  0.00000000000E+00 0.  1.
<mgrwt>
<rscale>  1 0.61682907E+03</rscale>
<asrwt>0</asrwt>
<pdfrwt beam="1">  1        1 0.34589053E+00 0.61682907E+03</pdfrwt>
<pdfrwt beam="2">0</pdfrwt>
<totfact> 0.23286382E+00</totfact>
</mgrwt>
</event>
<event>
 6    1  0.2552886E-003  0.6504534E+03  0.7818608E-02  0.9805929E-01
          1   -1    0    0  502    0  0.00000000000E+00  0.00000000000E+00  0.10619720446E+03  0.10619720446E+03  0.00000000000E+00 0.  1.
         13   -1    0    0    0    0 -0.00000000000E+00 -0.00000000000E+00 -0.10000000000E+04  0.10000000000E+04  0.00000000000E+00 0.  1.
    9000005    2    1    2  501    0 -0.73638894976E-01 -0.25986082240E-01 -0.89422363143E+03  0.11057691848E+04  0.65045336573E+03 0.  0.
         13    1    3    3    0    0  0.15615270007E+02 -0.27886041773E+03 -0.16382366771E+03  0.32379802861E+03  0.00000000000E+00 0.  1.
          1    1    3    3  501    0 -0.15688908902E+02  0.27883443164E+03 -0.73039996373E+03  0.78197115621E+03  0.00000000000E+00 0.  1.
         21    1    1    2  502  501  0.73638894976E-01  0.25986082240E-01  0.42083589245E+00  0.42801963938E+00  0.00000000000E+00 0.  1.
<mgrwt>
<rscale>  1 0.65045337E+03</rscale>
<asrwt>0</asrwt>
<pdfrwt beam="1">  1        1 0.38617247E+00 0.65045337E+03</pdfrwt>
<pdfrwt beam="2">0</pdfrwt>
<totfact> 0.15409492E+00</totfact>
</mgrwt>
</event>
<event>
 6    1  0.2552886E-003  0.6424838E+03  0.7818608E-02  0.9820986E-01
          1   -1    0    0  502    0  0.00000000000E+00  0.00000000000E+00  0.10344704586E+03  0.10344704586E+03  0.00000000000E+00 0.  1.
         13   -1    0    0    0    0 -0.00000000000E+00 -0.00000000000E+00 -0.10000000000E+04  0.10000000000E+04  0.00000000000E+00 0.  1.
    9000005    2    1    2  501    0  0.29455450185E-01 -0.57856809618E-01 -0.89679900261E+03  0.11031925760E+04  0.64248377765E+03 0.  0.
         13    1    3    3    0    0  0.24313922898E+03 -0.20738380688E+03 -0.39173128651E+03  0.50554735570E+03  0.00000000000E+00 0.  1.
          3    1    3    3  501    0 -0.24310977353E+03  0.20732595007E+03 -0.50506771610E+03  0.59764522035E+03  0.00000000000E+00 0.  1.
         21    1    1    2  502  501 -0.29455450185E-01  0.57856809618E-01  0.24604847031E+00  0.25446980902E+00  0.00000000000E+00 0. -1.
<mgrwt>
<rscale>  1 0.64248378E+03</rscale>
<asrwt>0</asrwt>
<pdfrwt beam="1">  1        1 0.37617187E+00 0.64248378E+03</pdfrwt>
<pdfrwt beam="2">0</pdfrwt>
<totfact> 0.17083454E+00</totfact>
</mgrwt>
</event>
<event>
 6    1  0.2552886E-003  0.6380585E+03  0.7818608E-02  0.9829448E-01
          1   -1    0    0  502    0  0.00000000000E+00  0.00000000000E+00  0.10178005929E+03  0.10178005929E+03  0.00000000000E+00 0.  1.
         13   -1    0    0    0    0 -0.00000000000E+00 -0.00000000000E+00 -0.10000000000E+04  0.10000000000E+04  0.00000000000E+00 0.  1.
    9000005    2    1    2  501    0  0.12102144865E-04 -0.20016522058E-04 -0.89822033307E+03  0.11017796662E+04  0.63805851315E+03 0.  0.
         13    1    3    3    0    0  0.40049030913E+02  0.30414784558E+03 -0.29788398620E+03  0.42760344489E+03  0.00000000000E+00 0.  1.
          1    1    3    3  501    0 -0.40049018811E+02 -0.30414786560E+03 -0.60033634687E+03  0.67417622134E+03  0.00000000000E+00 0.  1.
         21    1    1    2  502  501 -0.12102144862E-04  0.20016522061E-04  0.39235994456E-03  0.39305654703E-03  0.00000000000E+00 0. -1.
<mgrwt>
<rscale>  1 0.63805851E+03</rscale>
<asrwt>0</asrwt>
<pdfrwt beam="1">  1        1 0.37011009E+00 0.63805851E+03</pdfrwt>
<pdfrwt beam="2">0</pdfrwt>
<totfact> 0.18179702E+00</totfact>
</mgrwt>
</event>
<event>
 6    1  0.2552886E-003  0.6501977E+03  0.7818608E-02  0.9806408E-01
          1   -1    0    0  502    0  0.00000000000E+00  0.00000000000E+00  0.10569901009E+03  0.10569901009E+03  0.00000000000E+00 0.  1.
         13   -1    0    0    0    0 -0.00000000000E+00 -0.00000000000E+00 -0.10000000000E+04  0.10000000000E+04  0.00000000000E+00 0.  1.
    9000005    2    1    2  501    0  0.17767255207E-02  0.61089202978E-03 -0.89431063338E+03  0.11056891853E+04  0.65019771265E+03 0.  0.
         13    1    3    3    0    0  0.42288516088E+02 -0.42832855937E+02  0.96131065508E+02  0.11342025347E+03  0.00000000000E+00 0.  1.
          3    1    3    3  501    0 -0.42286739363E+02  0.42833466829E+02 -0.99044169888E+03  0.99226893184E+03  0.00000000000E+00 0.  1.
         21    1    1    2  502  501 -0.17767255207E-02 -0.61089202978E-03  0.96434706298E-02  0.98247884678E-02  0.00000000000E+00 0. -1.
<mgrwt>
<rscale>  1 0.65019771E+03</rscale>
<asrwt>0</asrwt>
<pdfrwt beam="1">  1        1 0.38436085E+00 0.65019771E+03</pdfrwt>
<pdfrwt beam="2">0</pdfrwt>
<totfact> 0.15697231E+00</totfact>
</mgrwt>
</event>
<event>
 6    1  0.2552886E-003  0.6509227E+03  0.7818608E-02  0.9805049E-01
          3   -1    0    0  502    0  0.00000000000E+00  0.00000000000E+00  0.10649802183E+03  0.10649802183E+03  0.00000000000E+00 0.  1.
         13   -1    0    0    0    0 -0.00000000000E+00 -0.00000000000E+00 -0.10000000000E+04  0.10000000000E+04  0.00000000000E+00 0.  1.
    9000005    2    1    2  501    0 -0.99110761412E-01  0.90939359469E-01 -0.89406616645E+03  0.11059180207E+04  0.65092268389E+03 0.  0.
         13    1    3    3    0    0  0.53424407457E+02 -0.13474384776E+03 -0.94203669361E+03  0.95312286927E+03  0.00000000000E+00 0.  1.
          1    1    3    3  501    0 -0.53523518218E+02  0.13483478712E+03  0.47970527163E+02  0.15279515141E+03  0.00000000000E+00 0.  1.
         21    1    1    2  502  501  0.99110761412E-01 -0.90939359469E-01  0.56418827784E+00  0.58000114050E+00  0.00000000000E+00 0. -1.
<mgrwt>
<rscale>  1 0.65092270E+03</rscale>
<asrwt>0</asrwt>
<pdfrwt beam="1">  1        3 0.38726635E+00 0.65092270E+03</pdfrwt>
<pdfrwt beam="2">0</pdfrwt>
<totfact> 0.69092475E-02</totfact>
</mgrwt>
</event>
<event>
 6    1  0.2552886E-003  0.6596552E+03  0.7818608E-02  0.9788829E-01
          1   -1    0    0  502    0  0.00000000000E+00  0.00000000000E+00  0.10878671739E+03  0.10878671739E+03  0.00000000000E+00 0.  1.
         13   -1    0    0    0    0 -0.00000000000E+00 -0.00000000000E+00 -0.10000000000E+04  0.10000000000E+04  0.00000000000E+00 0.  1.
    9000005    2    1    2  501    0  0.13113471937E-02  0.46739868958E-03 -0.89121109367E+03  0.11087841232E+04  0.65965522699E+03 0.  0.
         13    1    3    3    0    0  0.62928453558E+02  0.29027143468E+03 -0.20453978688E+03  0.36063003268E+03  0.00000000000E+00 0.  1.
          1    1    3    3  501    0 -0.62927142211E+02 -0.29027096728E+03 -0.68667130678E+03  0.74815409057E+03  0.00000000000E+00 0.  1.
         21    1    1    2  502  501 -0.13113471938E-02 -0.46739868960E-03 -0.21889442517E-02  0.25941414639E-02  0.00000000000E+00 0. -1.
<mgrwt>
<rscale>  1 0.65965523E+03</rscale>
<asrwt>0</asrwt>
<pdfrwt beam="1">  1        1 0.39558890E+00 0.65965523E+03</pdfrwt>
<pdfrwt beam="2">0</pdfrwt>
<totfact> 0.13972268E+00</totfact>
</mgrwt>
</event>
<event>
 6    1  0.2552886E-003  0.6843282E+03  0.7818608E-02  0.9744415E-01
          1   -1    0    0  502    0  0.00000000000E+00  0.00000000000E+00  0.11735119867E+03  0.11735119867E+03  0.00000000000E+00 0.  1.
         13   -1    0    0    0    0 -0.00000000000E+00 -0.00000000000E+00 -0.10000000000E+04  0.10000000000E+04  0.00000000000E+00 0.  1.
    9000005    2    1    2  501    0 -0.42246782183E-02  0.47531174685E-02 -0.88292367391E+03  0.11170762525E+04  0.68432823996E+03 0.  0.
         13    1    3    3    0    0 -0.43383768502E+02 -0.26834200125E+03 -0.78068481240E+03  0.82665492033E+03  0.00000000000E+00 0.  1.
          3    1    3    3  501    0  0.43379543824E+02  0.26834675436E+03 -0.10223886151E+03  0.29042133221E+03  0.00000000000E+00 0.  1.
         21    1    1    2  502  501  0.42246782183E-02 -0.47531174685E-02  0.27487257676E+00  0.27494612833E+00  0.00000000000E+00 0.  1.
<mgrwt>
<rscale>  1 0.68432824E+03</rscale>
<asrwt>0</asrwt>
<pdfrwt beam="1">  1        1 0.42673253E+00 0.68432824E+03</pdfrwt>
<pdfrwt beam="2">0</pdfrwt>
<totfact> 0.10078824E+00</totfact>
</mgrwt>
</event>
<event>
 6    1  0.2552886E-003  0.6549045E+03  0.7818608E-02  0.9797619E-01
          1   -1    0    0  502    0  0.00000000000E+00  0.00000000000E+00  0.10723349085E+03  0.10723349085E+03  0.00000000000E+00 0.  1.
         13   -1    0    0    0    0 -0.00000000000E+00 -0.00000000000E+00 -0.10000000000E+04  0.10000000000E+04  0.00000000000E+00 0.  1.
    9000005    2    1    2  501    0 -0.41995337369E-03  0.41279629382E-02 -0.89277444934E+03  0.11072245319E+04  0.65490453244E+03 0.  0.
         13    1    3    3    0    0 -0.85854233025E+02  0.29217090675E+03 -0.64991280540E+03  0.71771961287E+03  0.00000000000E+00 0.  1.
          1    1    3    3  501    0  0.85853813072E+02 -0.29216677878E+03 -0.24286164394E+03  0.38950491902E+03  0.00000000000E+00 0.  1.
         21    1    1    2  502  501  0.41995337369E-03 -0.41279629383E-02  0.79401892350E-02  0.89589644459E-02  0.00000000000E+00 0.  1.
<mgrwt>
<rscale>  1 0.65490453E+03</rscale>
<asrwt>0</asrwt>
<pdfrwt beam="1">  1        1 0.38994079E+00 0.65490453E+03</pdfrwt>
<pdfrwt beam="2">0</pdfrwt>
<totfact> 0.14816170E+00</totfact>
</mgrwt>
</event>
<event>
 6    1  0.2552886E-003  0.6478156E+03  0.7818608E-02  0.9810887E-01
          1   -1    0    0  502    0  0.00000000000E+00  0.00000000000E+00  0.10491676536E+03  0.10491676536E+03  0.00000000000E+00 0.  1.
         13   -1    0    0    0    0 -0.00000000000E+00 -0.00000000000E+00 -0.10000000000E+04  0.10000000000E+04  0.00000000000E+00 0.  1.
    9000005    2    1    2  501    0  0.24838939751E-03  0.15701388319E-02 -0.89508134955E+03  0.11049142995E+04  0.64781555003E+03 0.  0.
         13    1    3    3    0    0  0.58037666298E+02  0.23028420750E+03 -0.82322845779E+03  0.85679885658E+03  0.00000000000E+00 0.  1.
          3    1    3    3  501    0 -0.58037417908E+02 -0.23028263736E+03 -0.71852891766E+02  0.24811544289E+03  0.00000000000E+00 0.  1.
         21    1    1    2  502  501 -0.24838939751E-03 -0.15701388319E-02 -0.18850877553E-02  0.24658850519E-02  0.00000000000E+00 0.  1.
<mgrwt>
<rscale>  1 0.64781555E+03</rscale>
<asrwt>0</asrwt>
<pdfrwt beam="1">  1        1 0.38151631E+00 0.64781555E+03</pdfrwt>
<pdfrwt beam="2">0</pdfrwt>
<totfact> 0.16165261E+00</totfact>
</mgrwt>
</event>
<event>
 6    1  0.2552886E-003  0.6530391E+03  0.7818608E-02  0.9801093E-01
          3   -1    0    0  502    0  0.00000000000E+00  0.00000000000E+00  0.10661506348E+03  0.10661506348E+03  0.00000000000E+00 0.  1.
         13   -1    0    0    0    0 -0.00000000000E+00 -0.00000000000E+00 -0.10000000000E+04  0.10000000000E+04  0.00000000000E+00 0.  1.
    9000005    2    1    2  501    0  0.24422882802E-04 -0.21694741946E-04 -0.89338497876E+03  0.11066150101E+04  0.65303909552E+03 0.  0.
         13    1    3    3    0    0  0.22640974867E+03  0.44423480853E+02 -0.55178340902E+02  0.23723294301E+03  0.00000000000E+00 0.  1.
          1    1    3    3  501    0 -0.22640972424E+03 -0.44423502547E+02 -0.83820663786E+03  0.86938206708E+03  0.00000000000E+00 0.  1.
         21    1    1    2  502  501 -0.24422882799E-04  0.21694741947E-04  0.42238763340E-04  0.53397117533E-04  0.00000000000E+00 0.  1.
<mgrwt>
<rscale>  1 0.65303910E+03</rscale>
<asrwt>0</asrwt>
<pdfrwt beam="1">  1        3 0.38769196E+00 0.65303910E+03</pdfrwt>
<pdfrwt beam="2">0</pdfrwt>
<totfact> 0.68712493E-02</totfact>
</mgrwt>
</event>
<event>
 6    1  0.2552886E-003  0.6520306E+03  0.7818608E-02  0.9802976E-01
          1   -1    0    0  502    0  0.00000000000E+00  0.00000000000E+00  0.11296168225E+03  0.11296168225E+03  0.00000000000E+00 0.  1.
         13   -1    0    0    0    0 -0.00000000000E+00 -0.00000000000E+00 -0.10000000000E+04  0.10000000000E+04  0.00000000000E+00 0.  1.
    9000005    2    1    2  501    0 -0.37541218184E-01  0.20890745307E+00 -0.89371217353E+03  0.11062844521E+04  0.65203051674E+03 0.  0.
         13    1    3    3    0    0 -0.11009047308E+02 -0.10439566773E+03 -0.97043525265E+03  0.97609642666E+03  0.00000000000E+00 0.  1.
          1    1    3    3  501    0  0.10971506090E+02  0.10460457518E+03  0.76723079119E+02  0.13018802542E+03  0.00000000000E+00 0.  1.
         21    1    1    2  502  501  0.37541218184E-01 -0.20890745307E+00  0.66738557765E+01  0.66772301588E+01  0.00000000000E+00 0. -1.
<mgrwt>
<rscale>  1 0.65203055E+03</rscale>
<asrwt>0</asrwt>
<pdfrwt beam="1">  1        1 0.41077062E+00 0.65203055E+03</pdfrwt>
<pdfrwt beam="2">0</pdfrwt>
<totfact> 0.11969922E+00</totfact>
</mgrwt>
</event>
<event>
 6    1  0.2552886E-003  0.6525168E+03  0.7818608E-02  0.9802068E-01
          1   -1    0    0  502    0  0.00000000000E+00  0.00000000000E+00  0.10882329231E+03  0.10882329231E+03  0.00000000000E+00 0.  1.
         13   -1    0    0    0    0 -0.00000000000E+00 -0.00000000000E+00 -0.10000000000E+04  0.10000000000E+04  0.00000000000E+00 0.  1.
    9000005    2    1    2  501    0 -0.87518252452E+00  0.20937478789E+01 -0.89294131846E+03  0.11059486487E+04  0.65251288543E+03 0.  0.
         13    1    3    3    0    0  0.26560949241E+03 -0.97917623888E+02 -0.17294485512E+03  0.33173210040E+03  0.00000000000E+00 0.  1.
          3    1    3    3  501    0 -0.26648467493E+03  0.10001137177E+03 -0.71999646334E+03  0.77421654831E+03  0.00000000000E+00 0.  1.
         21    1    1    2  502  501  0.87518252452E+00 -0.20937478789E+01  0.17646107691E+01  0.28746435950E+01  0.00000000000E+00 0. -1.
<mgrwt>
<rscale>  1 0.65251683E+03</rscale>
<asrwt>0</asrwt>
<pdfrwt beam="1">  1        1 0.39572190E+00 0.65251683E+03</pdfrwt>
<pdfrwt beam="2">0</pdfrwt>
<totfact> 0.13971904E+00</totfact>
</mgrwt>
</event>
<event>
 6    1  0.2552886E-003  0.6478056E+03  0.7818608E-02  0.9810906E-01
          1   -1    0    0  502    0  0.00000000000E+00  0.00000000000E+00  0.10491346327E+03  0.10491346327E+03  0.00000000000E+00 0.  1.
         13   -1    0    0    0    0 -0.00000000000E+00 -0.00000000000E+00 -0.10000000000E+04  0.10000000000E+04  0.00000000000E+00 0.  1.
    9000005    2    1    2  501    0 -0.16904617813E-03 -0.83976794230E-04 -0.89508695213E+03  0.11049130070E+04  0.64780560446E+03 0.  0.
         13    1    3    3    0    0  0.10553500739E+03 -0.20869553852E+03 -0.65310208840E+02  0.24281039715E+03  0.00000000000E+00 0.  1.
          1    1    3    3  501    0 -0.10553517644E+03  0.20869545455E+03 -0.82977674329E+03  0.86210260985E+03  0.00000000000E+00 0.  1.
         21    1    1    2  502  501  0.16904617814E-03  0.83976794235E-04  0.41539586554E-03  0.45627013646E-03  0.00000000000E+00 0. -1.
<mgrwt>
<rscale>  1 0.64780560E+03</rscale>
<asrwt>0</asrwt>
<pdfrwt beam="1">  1        1 0.38150431E+00 0.64780560E+03</pdfrwt>
<pdfrwt beam="2">0</pdfrwt>
<totfact> 0.16167265E+00</totfact>
</mgrwt>
</event>
<event>
 6    1  0.2552886E-003  0.6570406E+03  0.7818608E-02  0.9793657E-01
          1   -1    0    0  502    0  0.00000000000E+00  0.00000000000E+00  0.10816625525E+03  0.10816625525E+03  0.00000000000E+00 0.  1.
         13   -1    0    0    0    0 -0.00000000000E+00 -0.00000000000E+00 -0.10000000000E+04  0.10000000000E+04  0.00000000000E+00 0.  1.
    9000005    2    1    2  501    0 -0.22560935052E-01 -0.10376806587E-01 -0.89207370506E+03  0.11079250134E+04  0.65704059195E+03 0.  0.
         13    1    3    3    0    0 -0.16149600364E+03  0.28606541705E+03 -0.45184970515E+03  0.55864348029E+03  0.00000000000E+00 0.  1.
          1    1    3    3  501    0  0.16147344271E+03 -0.28607579386E+03 -0.44022399991E+03  0.54928153313E+03  0.00000000000E+00 0.  1.
         21    1    1    2  502  501  0.22560935052E-01  0.10376806587E-01  0.23996030700E+00  0.24124183477E+00  0.00000000000E+00 0.  1.
<mgrwt>
<rscale>  1 0.65704059E+03</rscale>
<asrwt>0</asrwt>
<pdfrwt beam="1">  1        1 0.39333267E+00 0.65704059E+03</pdfrwt>
<pdfrwt beam="2">0</pdfrwt>
<totfact> 0.14305673E+00</totfact>
</mgrwt>
</event>
<event>
 6    1  0.2552886E-003  0.6208439E+03  0.7818608E-02  0.9863081E-01
          1   -1    0    0  502    0  0.00000000000E+00  0.00000000000E+00  0.96364427372E+02  0.96364427372E+02  0.00000000000E+00 0.  1.
         13   -1    0    0    0    0 -0.00000000000E+00 -0.00000000000E+00 -0.10000000000E+04  0.10000000000E+04  0.00000000000E+00 0.  1.
    9000005    2    1    2  501    0 -0.58618315610E-02 -0.56310296388E-02 -0.90361884063E+03  0.10963458255E+04  0.62084390945E+03 0.  0.
         13    1    3    3    0    0 -0.17242555002E+03  0.20644160128E+03 -0.72545421016E+03  0.77371345864E+03  0.00000000000E+00 0.  1.
          3    1    3    3  501    0  0.17241968819E+03 -0.20644723231E+03 -0.17816463046E+03  0.32263236687E+03  0.00000000000E+00 0.  1.
         21    1    1    2  502  501  0.58618315610E-02  0.56310296388E-02 -0.16732001816E-01  0.18601866810E-01  0.00000000000E+00 0. -1.
<mgrwt>
<rscale>  1 0.62084391E+03</rscale>
<asrwt>0</asrwt>
<pdfrwt beam="1">  1        1 0.35041684E+00 0.62084391E+03</pdfrwt>
<pdfrwt beam="2">0</pdfrwt>
<totfact> 0.22237218E+00</totfact>
</mgrwt>
</event>
<event>
 6    1  0.2552886E-003  0.6469954E+03  0.7818608E-02  0.9812433E-01
          1   -1    0    0  502    0  0.00000000000E+00  0.00000000000E+00  0.11245094808E+03  0.11245094808E+03  0.00000000000E+00 0.  1.
         13   -1    0    0    0    0 -0.00000000000E+00 -0.00000000000E+00 -0.10000000000E+04  0.10000000000E+04  0.00000000000E+00 0.  1.
    9000005    2    1    2  501    0  0.13183844732E+00  0.45397732841E-01 -0.89534854491E+03  0.11046502088E+04  0.64699539990E+03 0.  0.
         13    1    3    3    0    0  0.20069089229E+03  0.96445815957E+02 -0.46955570762E+02  0.22755978399E+03  0.00000000000E+00 0.  1.
          3    1    3    3  501    0 -0.20055905384E+03 -0.96400418224E+02 -0.84839297415E+03  0.87709042481E+03  0.00000000000E+00 0.  1.
         21    1    1    2  502  501 -0.13183844732E+00 -0.45397732841E-01  0.77994929938E+01  0.78007392784E+01  0.00000000000E+00 0.  1.
<mgrwt>
<rscale>  1 0.64699541E+03</rscale>
<asrwt>0</asrwt>
<pdfrwt beam="1">  1        1 0.40891340E+00 0.64699541E+03</pdfrwt>
<pdfrwt beam="2">0</pdfrwt>
<totfact> 0.12213492E+00</totfact>
</mgrwt>
</event>
<event>
 6    1  0.2552886E-003  0.6177995E+03  0.7818608E-02  0.9869151E-01
          3   -1    0    0  502    0  0.00000000000E+00  0.00000000000E+00  0.95419715337E+02  0.95419715337E+02  0.00000000000E+00 0.  1.
         13   -1    0    0    0    0 -0.00000000000E+00 -0.00000000000E+00 -0.10000000000E+04  0.10000000000E+04  0.00000000000E+00 0.  1.
    9000005    2    1    2  501    0 -0.18210055310E-03  0.10712111791E-03 -0.90458093075E+03  0.10954190356E+04  0.61779948466E+03 0.  0.
         13    1    3    3    0    0  0.20320516674E+03  0.22908890623E+03 -0.38037668442E+03  0.48832416364E+03  0.00000000000E+00 0.  1.
          1    1    3    3  501    0 -0.20320534884E+03 -0.22908879911E+03 -0.52420424633E+03  0.60709487195E+03  0.00000000000E+00 0.  1.
         21    1    1    2  502  501  0.18210055310E-03 -0.10712111789E-03  0.64608580622E-03  0.67975172992E-03  0.00000000000E+00 0.  1.
<mgrwt>
<rscale>  1 0.61779948E+03</rscale>
<asrwt>0</asrwt>
<pdfrwt beam="1">  1        3 0.34698151E+00 0.61779948E+03</pdfrwt>
<pdfrwt beam="2">0</pdfrwt>
<totfact> 0.11358473E-01</totfact>
</mgrwt>
</event>
<event>
 6    1  0.2552886E-003  0.6422135E+03  0.7818608E-02  0.9821501E-01
          1   -1    0    0  502    0  0.00000000000E+00  0.00000000000E+00  0.10310959478E+03  0.10310959478E+03  0.00000000000E+00 0.  1.
         13   -1    0    0    0    0 -0.00000000000E+00 -0.00000000000E+00 -0.10000000000E+04  0.10000000000E+04  0.00000000000E+00 0.  1.
    9000005    2    1    2  501    0 -0.14530033539E-04  0.87308217189E-06 -0.89689045095E+03  0.11031095468E+04  0.64221350906E+03 0.  0.
         13    1    3    3    0    0 -0.10443757757E+03  0.25358765628E+03 -0.73532993165E+03  0.78480826665E+03  0.00000000000E+00 0.  1.
          3    1    3    3  501    0  0.10443756304E+03 -0.25358765540E+03 -0.16156051930E+03  0.31830128015E+03  0.00000000000E+00 0.  1.
         21    1    1    2  502  501  0.14530033533E-04 -0.87308214952E-06  0.45725147043E-04  0.47986177375E-04  0.00000000000E+00 0.  1.
<mgrwt>
<rscale>  1 0.64221351E+03</rscale>
<asrwt>0</asrwt>
<pdfrwt beam="1">  1        1 0.37494477E+00 0.64221351E+03</pdfrwt>
<pdfrwt beam="2">0</pdfrwt>
<totfact> 0.17298161E+00</totfact>
</mgrwt>
</event>
<event>
 6    1  0.2552886E-003  0.6149696E+03  0.7818608E-02  0.9874827E-01
          1   -1    0    0  502    0  0.00000000000E+00  0.00000000000E+00  0.94560048335E+02  0.94560048335E+02  0.00000000000E+00 0.  1.
         13   -1    0    0    0    0 -0.00000000000E+00 -0.00000000000E+00 -0.10000000000E+04  0.10000000000E+04  0.00000000000E+00 0.  1.
    9000005    2    1    2  501    0 -0.13556571297E-02 -0.60196375017E-03 -0.90545306646E+03  0.10945468499E+04  0.61496955299E+03 0.  0.
         13    1    3    3    0    0  0.39622847397E+02  0.29396183679E+03 -0.59691629843E+03  0.66655277275E+03  0.00000000000E+00 0.  1.
          3    1    3    3  501    0 -0.39624203054E+02 -0.29396243876E+03 -0.30853676803E+03  0.42799407717E+03  0.00000000000E+00 0.  1.
         21    1    1    2  502  501  0.13556571297E-02  0.60196375016E-03  0.13114798317E-01  0.13198412841E-01  0.00000000000E+00 0. -1.
<mgrwt>
<rscale>  1 0.61496955E+03</rscale>
<asrwt>0</asrwt>
<pdfrwt beam="1">  1        1 0.34385545E+00 0.61496955E+03</pdfrwt>
<pdfrwt beam="2">0</pdfrwt>
<totfact> 0.23773775E+00</totfact>
</mgrwt>
</event>
<event>
 6    1  0.2552886E-003  0.6404317E+03  0.7818608E-02  0.9824901E-01
          1   -1    0    0  502    0  0.00000000000E+00  0.00000000000E+00  0.10253945423E+03  0.10253945423E+03  0.00000000000E+00 0.  1.
         13   -1    0    0    0    0 -0.00000000000E+00 -0.00000000000E+00 -0.10000000000E+04  0.10000000000E+04  0.00000000000E+00 0.  1.
    9000005    2    1    2  501    0  0.70787029351E-03 -0.17811477963E-03 -0.89746168819E+03  0.11025380985E+04  0.64043171139E+03 0.  0.
         13    1    3    3    0    0  0.80189612304E+02  0.12358685992E+03 -0.93819203706E+03  0.94968857225E+03  0.00000000000E+00 0.  1.
          3    1    3    3  501    0 -0.80188904434E+02 -0.12358703804E+03  0.40730348870E+02  0.15284952628E+03  0.00000000000E+00 0.  1.
         21    1    1    2  502  501 -0.70787029352E-03  0.17811477963E-03  0.11424158644E-02  0.13556987993E-02  0.00000000000E+00 0. -1.
<mgrwt>
<rscale>  1 0.64043171E+03</rscale>
<asrwt>0</asrwt>
<pdfrwt beam="1">  1        1 0.37287153E+00 0.64043171E+03</pdfrwt>
<pdfrwt beam="2">0</pdfrwt>
<totfact> 0.17671070E+00</totfact>
</mgrwt>
</event>
<event>
 6    1  0.2552886E-003  0.5515051E+03  0.7818608E-02  0.1001146E+00
          1   -1    0    0  502    0  0.00000000000E+00  0.00000000000E+00  0.76043864326E+02  0.76043864326E+02  0.00000000000E+00 0.  1.
         13   -1    0    0    0    0 -0.00000000000E+00 -0.00000000000E+00 -0.10000000000E+04  0.10000000000E+04  0.00000000000E+00 0.  1.
    9000005    2    1    2  501    0 -0.63716575178E-03  0.49734951772E-03 -0.92396049672E+03  0.10760394290E+04  0.55150508003E+03 0.  0.
         13    1    3    3    0    0 -0.24497769206E+03  0.11281402787E+03 -0.57403907267E+03  0.63424122497E+03  0.00000000000E+00 0.  1.
          1    1    3    3  501    0  0.24497705489E+03 -0.11281353052E+03 -0.34992142404E+03  0.44179820404E+03  0.00000000000E+00 0.  1.
         21    1    1    2  502  501  0.63716575178E-03 -0.49734951770E-03  0.43610418003E-02  0.44353153577E-02  0.00000000000E+00 0. -1.
<mgrwt>
<rscale>  1 0.55150508E+03</rscale>
<asrwt>0</asrwt>
<pdfrwt beam="1">  1        1 0.27652373E+00 0.55150508E+03</pdfrwt>
<pdfrwt beam="2">0</pdfrwt>
<totfact> 0.46989642E+00</totfact>
</mgrwt>
</event>
<event>
 6    1  0.2552886E-003  0.6436916E+03  0.7818608E-02  0.9818689E-01
          1   -1    0    0  502    0  0.00000000000E+00  0.00000000000E+00  0.10358502594E+03  0.10358502594E+03  0.00000000000E+00 0.  1.
         13   -1    0    0    0    0 -0.00000000000E+00 -0.00000000000E+00 -0.10000000000E+04  0.10000000000E+04  0.00000000000E+00 0.  1.
    9000005    2    1    2  501    0 -0.26491721689E-04 -0.18057470697E-04 -0.89641528326E+03  0.11035847151E+04  0.64369159021E+03 0.  0.
         13    1    3    3    0    0 -0.22325020547E+01 -0.32183212012E+03 -0.45156033169E+03  0.55451567224E+03  0.00000000000E+00 0.  1.
          1    1    3    3  501    0  0.22324755630E+01  0.32183210207E+03 -0.44485495157E+03  0.54906904284E+03  0.00000000000E+00 0.  1.
         21    1    1    2  502  501  0.26491721689E-04  0.18057470676E-04  0.30919598890E-03  0.31085373267E-03  0.00000000000E+00 0. -1.
<mgrwt>
<rscale>  1 0.64369159E+03</rscale>
<asrwt>0</asrwt>
<pdfrwt beam="1">  1        1 0.37667362E+00 0.64369159E+03</pdfrwt>
<pdfrwt beam="2">0</pdfrwt>
<totfact> 0.16992980E+00</totfact>
</mgrwt>
</event>
<event>
 6    1  0.2552886E-003  0.6384576E+03  0.7818608E-02  0.9828682E-01
          1   -1    0    0  502    0  0.00000000000E+00  0.00000000000E+00  0.10294899979E+03  0.10294899979E+03  0.00000000000E+00 0.  1.
         13   -1    0    0    0    0 -0.00000000000E+00 -0.00000000000E+00 -0.10000000000E+04  0.10000000000E+04  0.00000000000E+00 0.  1.
    9000005    2    1    2  501    0 -0.11862566040E+00 -0.11927855270E+00 -0.89808548272E+03  0.11019009285E+04  0.63845758950E+03 0.  0.
         13    1    3    3    0    0  0.27723984011E+03 -0.69523085872E+02 -0.20377368755E+03  0.35102578844E+03  0.00000000000E+00 0.  1.
          3    1    3    3  501    0 -0.27735846577E+03  0.69403807319E+02 -0.69431179517E+03  0.75087514003E+03  0.00000000000E+00 0.  1.
         21    1    1    2  502  501  0.11862566040E+00  0.11927855270E+00  0.10344825086E+01  0.10480713148E+01  0.00000000000E+00 0.  1.
<mgrwt>
<rscale>  1 0.63845761E+03</rscale>
<asrwt>0</asrwt>
<pdfrwt beam="1">  1        1 0.37436079E+00 0.63845761E+03</pdfrwt>
<pdfrwt beam="2">0</pdfrwt>
<totfact> 0.17412813E+00</totfact>
</mgrwt>
</event>
<event>
 6    1  0.2552886E-003  0.5993102E+03  0.7818608E-02  0.9906838E-01
          1   -1    0    0  502    0  0.00000000000E+00  0.00000000000E+00  0.89810163995E+02  0.89810163995E+02  0.00000000000E+00 0.  1.
         13   -1    0    0    0    0 -0.00000000000E+00 -0.00000000000E+00 -0.10000000000E+04  0.10000000000E+04  0.00000000000E+00 0.  1.
    9000005    2    1    2  501    0  0.17271817103E-03  0.27626093078E-03 -0.91020682752E+03  0.10897931694E+04  0.59931017271E+03 0.  0.
         13    1    3    3    0    0  0.13223354973E+03  0.21542690676E+03 -0.74774259493E+03  0.78931201189E+03  0.00000000000E+00 0.  1.
          1    1    3    3  501    0 -0.13223337702E+03 -0.21542663050E+03 -0.16246423259E+03  0.30048115747E+03  0.00000000000E+00 0.  1.
         21    1    1    2  502  501 -0.17271817103E-03 -0.27626093076E-03  0.16991513795E-01  0.16994637175E-01  0.00000000000E+00 0. -1.
<mgrwt>
<rscale>  1 0.59931017E+03</rscale>
<asrwt>0</asrwt>
<pdfrwt beam="1">  1        1 0.32658310E+00 0.59931017E+03</pdfrwt>
<pdfrwt beam="2">0</pdfrwt>
<totfact> 0.28328549E+00</totfact>
</mgrwt>
</event>
<event>
 6    1  0.2552886E-003  0.6498423E+03  0.7818608E-02  0.9807075E-01
          1   -1    0    0  502    0  0.00000000000E+00  0.00000000000E+00  0.13472211638E+03  0.13472211638E+03  0.00000000000E+00 0.  1.
         13   -1    0    0    0    0 -0.00000000000E+00 -0.00000000000E+00 -0.10000000000E+04  0.10000000000E+04  0.00000000000E+00 0.  1.
    9000005    2    1    2  501    0 -0.26284637176E+02  0.69408870713E+02 -0.82525230674E+03  0.10503982153E+04  0.64559009246E+03 0.  0.
         13    1    3    3    0    0  0.16618499309E+03 -0.17888716652E+03 -0.64161751337E+03  0.68650644843E+03  0.00000000000E+00 0.  1.
          1    1    3    3  501    0 -0.19246963026E+03  0.24829603723E+03 -0.18363479337E+03  0.36389176689E+03  0.00000000000E+00 0.  1.
         21    1    1    2  502  501  0.26284637176E+02 -0.69408870713E+02 -0.40025576878E+02  0.84323901057E+02  0.00000000000E+00 0.  1.
<mgrwt>
<rscale>  1 0.64984232E+03</rscale>
<asrwt>0</asrwt>
<pdfrwt beam="1">  1        1 0.48989964E+00 0.64984232E+03</pdfrwt>
<pdfrwt beam="2">0</pdfrwt>
<totfact> 0.51682104E-01</totfact>
</mgrwt>
</event>
<event>
 6    1  0.2552886E-003  0.6648803E+03  0.7818608E-02  0.9779251E-01
          1   -1    0    0  502    0  0.00000000000E+00  0.00000000000E+00  0.11100883825E+03  0.11100883825E+03  0.00000000000E+00 0.  1.
         13   -1    0    0    0    0 -0.00000000000E+00 -0.00000000000E+00 -0.10000000000E+04  0.10000000000E+04  0.00000000000E+00 0.  1.
    9000005    2    1    2  501    0  0.68870164631E-02 -0.14811754245E-01 -0.88948340533E+03  0.11105163237E+04  0.66488027240E+03 0.  0.
         13    1    3    3    0    0  0.10953014847E+03 -0.10387867422E+02  0.79226965426E+02  0.13557902959E+03  0.00000000000E+00 0.  1.
          3    1    3    3  501    0 -0.10952326145E+03  0.10373055668E+02 -0.96871037076E+03  0.97493729413E+03  0.00000000000E+00 0.  1.
         21    1    1    2  502  501 -0.68870164631E-02  0.14811754245E-01  0.49224358284E+00  0.49251453167E+00  0.00000000000E+00 0.  1.
<mgrwt>
<rscale>  1 0.66488027E+03</rscale>
<asrwt>0</asrwt>
<pdfrwt beam="1">  1        1 0.40366935E+00 0.66488027E+03</pdfrwt>
<pdfrwt beam="2">0</pdfrwt>
<totfact> 0.12847443E+00</totfact>
</mgrwt>
</event>
<event>
 6    1  0.2552886E-003  0.6322074E+03  0.7818608E-02  0.9840751E-01
          1   -1    0    0  502    0  0.00000000000E+00  0.00000000000E+00  0.99992421089E+02  0.99992421089E+02  0.00000000000E+00 0.  1.
         13   -1    0    0    0    0 -0.00000000000E+00 -0.00000000000E+00 -0.10000000000E+04  0.10000000000E+04  0.00000000000E+00 0.  1.
    9000005    2    1    2  501    0  0.12948822956E-01  0.25493668422E-01 -0.90007527581E+03  0.10999189332E+04  0.63220736841E+03 0.  0.
         13    1    3    3    0    0 -0.18999632701E+03 -0.52718882938E+02 -0.87987008443E+03  0.90169243668E+03  0.00000000000E+00 0.  1.
          3    1    3    3  501    0  0.19000927583E+03  0.52744376606E+02 -0.20205191383E+02  0.19822649652E+03  0.00000000000E+00 0.  1.
         21    1    1    2  502  501 -0.12948822956E-01 -0.25493668422E-01  0.67696899794E-01  0.73487885990E-01  0.00000000000E+00 0.  1.
<mgrwt>
<rscale>  1 0.63220737E+03</rscale>
<asrwt>0</asrwt>
<pdfrwt beam="1">  1        1 0.36360957E+00 0.63220737E+03</pdfrwt>
<pdfrwt beam="2">0</pdfrwt>
<totfact> 0.19433841E+00</totfact>
</mgrwt>
</event>
<event>
 6    1  0.2552886E-003  0.6032162E+03  0.7818608E-02  0.9898756E-01
          1   -1    0    0  502    0  0.00000000000E+00  0.00000000000E+00  0.90970649943E+02  0.90970649943E+02  0.00000000000E+00 0.  1.
         13   -1    0    0    0    0 -0.00000000000E+00 -0.00000000000E+00 -0.10000000000E+04  0.10000000000E+04  0.00000000000E+00 0.  1.
    9000005    2    1    2  501    0  0.49312039640E-02 -0.61102632995E-02 -0.90902631976E+03  0.10909622336E+04  0.60321616777E+03 0.  0.
         13    1    3    3    0    0  0.15436458047E+03  0.25533810463E+03 -0.53418433979E+03  0.61186508338E+03  0.00000000000E+00 0.  1.
          3    1    3    3  501    0 -0.15435964927E+03 -0.25534421490E+03 -0.37484197998E+03  0.47909715023E+03  0.00000000000E+00 0.  1.
         21    1    1    2  502  501 -0.49312039640E-02  0.61102632995E-02 -0.30302951051E-02  0.84163399734E-02  0.00000000000E+00 0.  1.
<mgrwt>
<rscale>  1 0.60321617E+03</rscale>
<asrwt>0</asrwt>
<pdfrwt beam="1">  1        1 0.33080306E+00 0.60321617E+03</pdfrwt>
<pdfrwt beam="2">0</pdfrwt>
<totfact> 0.27142620E+00</totfact>
</mgrwt>
</event>
<event>
 6    1  0.2552886E-003  0.6525920E+03  0.7818608E-02  0.9801928E-01
          1   -1    0    0  502    0  0.00000000000E+00  0.00000000000E+00  0.11501961804E+03  0.11501961804E+03  0.00000000000E+00 0.  1.
         13   -1    0    0    0    0 -0.00000000000E+00 -0.00000000000E+00 -0.10000000000E+04  0.10000000000E+04  0.00000000000E+00 0.  1.
    9000005    2    1    2  501    0  0.10131184901E+01  0.49869943571E+00 -0.89348964462E+03  0.11064357575E+04  0.65259103992E+03 0.  0.
         13    1    3    3    0    0  0.31323580843E+03 -0.37367683379E+02 -0.30296468562E+03  0.43737925897E+03  0.00000000000E+00 0.  1.
          3    1    3    3  501    0 -0.31222268994E+03  0.37866382815E+02 -0.59052495900E+03  0.66905649856E+03  0.00000000000E+00 0.  1.
         21    1    1    2  502  501 -0.10131184901E+01 -0.49869943571E+00  0.85092626589E+01  0.85838605068E+01  0.00000000000E+00 0. -1.
<mgrwt>
<rscale>  1 0.65259202E+03</rscale>
<asrwt>0</asrwt>
<pdfrwt beam="1">  1        1 0.41825404E+00 0.65259202E+03</pdfrwt>
<pdfrwt beam="2">0</pdfrwt>
<totfact> 0.11076558E+00</totfact>
</mgrwt>
</event>
<event>
 6    1  0.2552886E-003  0.6601493E+03  0.7818608E-02  0.9787919E-01
          1   -1    0    0  502    0  0.00000000000E+00  0.00000000000E+00  0.10894928478E+03  0.10894928478E+03  0.00000000000E+00 0.  1.
         13   -1    0    0    0    0 -0.00000000000E+00 -0.00000000000E+00 -0.10000000000E+04  0.10000000000E+04  0.00000000000E+00 0.  1.
    9000005    2    1    2  501    0  0.16778682834E-05  0.34980424175E-05 -0.89105071956E+03  0.11089492790E+04  0.66014931529E+03 0.  0.
         13    1    3    3    0    0 -0.20937399365E+03 -0.25516652273E+03 -0.44323753572E+03  0.55263635115E+03  0.00000000000E+00 0.  1.
          1    1    3    3  501    0  0.20937399533E+03  0.25516652623E+03 -0.44781318384E+03  0.55631292781E+03  0.00000000000E+00 0.  1.
         21    1    1    2  502  501 -0.16778682836E-05 -0.34980424014E-05  0.43363171014E-05  0.58185211714E-05  0.00000000000E+00 0.  1.
<mgrwt>
<rscale>  1 0.66014932E+03</rscale>
<asrwt>0</asrwt>
<pdfrwt beam="1">  1        1 0.39618005E+00 0.66014932E+03</pdfrwt>
<pdfrwt beam="2">0</pdfrwt>
<totfact> 0.13886630E+00</totfact>
</mgrwt>
</event>
<event>
 6    1  0.2552886E-003  0.6334065E+03  0.7818608E-02  0.9838424E-01
          1   -1    0    0  502    0  0.00000000000E+00  0.00000000000E+00  0.10030095471E+03  0.10030095471E+03  0.00000000000E+00 0.  1.
         13   -1    0    0    0    0 -0.00000000000E+00 -0.00000000000E+00 -0.10000000000E+04  0.10000000000E+04  0.00000000000E+00 0.  1.
    9000005    2    1    2  501    0  0.51255245381E-05  0.86125601655E-05 -0.89969904271E+03  0.11003009444E+04  0.63340650510E+03 0.  0.
         13    1    3    3    0    0 -0.98212623536E+02 -0.90199232209E+02  0.49157676624E+02  0.14212001296E+03  0.00000000000E+00 0.  1.
          3    1    3    3  501    0  0.98212628662E+02  0.90199240821E+02 -0.94885671933E+03  0.95818093140E+03  0.00000000000E+00 0.  1.
         21    1    1    2  502  501 -0.51255245289E-05 -0.86125601543E-05 -0.25809174983E-05  0.10349315400E-04  0.00000000000E+00 0.  1.
<mgrwt>
<rscale>  1 0.63340651E+03</rscale>
<asrwt>0</asrwt>
<pdfrwt beam="1">  1        1 0.36473151E+00 0.63340651E+03</pdfrwt>
<pdfrwt beam="2">0</pdfrwt>
<totfact> 0.19210967E+00</totfact>
</mgrwt>
</event>
<event>
 6    1  0.2552886E-003  0.6419513E+03  0.7818608E-02  0.9822000E-01
          1   -1    0    0  502    0  0.00000000000E+00  0.00000000000E+00  0.10306564025E+03  0.10306564025E+03  0.00000000000E+00 0.  1.
         13   -1    0    0    0    0 -0.00000000000E+00 -0.00000000000E+00 -0.10000000000E+04  0.10000000000E+04  0.00000000000E+00 0.  1.
    9000005    2    1    2  501    0 -0.22695254457E-01 -0.33201398563E-01 -0.89696325350E+03  0.11030161200E+04  0.64195130749E+03 0.  0.
         13    1    3    3    0    0  0.38117799445E+02 -0.30574934784E+03 -0.60313269542E+03  0.67727740153E+03  0.00000000000E+00 0.  1.
          1    1    3    3  501    0 -0.38140494699E+02  0.30571614644E+03 -0.29383055809E+03  0.42573871846E+03  0.00000000000E+00 0.  1.
         21    1    1    2  502  501  0.22695254457E-01  0.33201398563E-01  0.28893751196E-01  0.49520261506E-01  0.00000000000E+00 0. -1.
<mgrwt>
<rscale>  1 0.64195131E+03</rscale>
<asrwt>0</asrwt>
<pdfrwt beam="1">  1        1 0.37478494E+00 0.64195131E+03</pdfrwt>
<pdfrwt beam="2">0</pdfrwt>
<totfact> 0.17327037E+00</totfact>
</mgrwt>
</event>
<event>
 6    1  0.2552886E-003  0.6606896E+03  0.7818608E-02  0.9786925E-01
          1   -1    0    0  502    0  0.00000000000E+00  0.00000000000E+00  0.10912961395E+03  0.10912961395E+03  0.00000000000E+00 0.  1.
         13   -1    0    0    0    0 -0.00000000000E+00 -0.00000000000E+00 -0.10000000000E+04  0.10000000000E+04  0.00000000000E+00 0.  1.
    9000005    2    1    2  501    0  0.45269959287E-04  0.18822821115E-04 -0.89087232108E+03  0.11091276783E+04  0.66068957484E+03 0.  0.
         13    1    3    3    0    0  0.30012088802E+03 -0.24323359457E+02 -0.67354461015E+03  0.73778487048E+03  0.00000000000E+00 0.  1.
          3    1    3    3  501    0 -0.30012084275E+03  0.24323378279E+02 -0.21732771093E+03  0.37134280782E+03  0.00000000000E+00 0.  1.
         21    1    1    2  502  501 -0.45269959326E-04 -0.18822821113E-04  0.19350263186E-02  0.19356473133E-02  0.00000000000E+00 0. -1.
<mgrwt>
<rscale>  1 0.66068957E+03</rscale>
<asrwt>0</asrwt>
<pdfrwt beam="1">  1        1 0.39683580E+00 0.66068957E+03</pdfrwt>
<pdfrwt beam="2">0</pdfrwt>
<totfact> 0.13792236E+00</totfact>
</mgrwt>
</event>
<event>
 6    1  0.2552886E-003  0.6262645E+03  0.7818608E-02  0.9852365E-01
          1   -1    0    0  502    0  0.00000000000E+00  0.00000000000E+00  0.10394129514E+03  0.10394129514E+03  0.00000000000E+00 0.  1.
         13   -1    0    0    0    0 -0.00000000000E+00 -0.00000000000E+00 -0.10000000000E+04  0.10000000000E+04  0.00000000000E+00 0.  1.
    9000005    2    1    2  501    0  0.81974991496E+01 -0.20709539811E+01 -0.89842652759E+03  0.10951609519E+04  0.62620747143E+03 0.  0.
         13    1    3    3    0    0  0.23237180930E+03 -0.91583686246E+02 -0.11422200840E+03  0.27464685789E+03  0.00000000000E+00 0.  1.
          3    1    3    3  501    0 -0.22417431015E+03  0.89512732265E+02 -0.78420451919E+03  0.82051409402E+03  0.00000000000E+00 0.  1.
         21    1    1    2  502  501 -0.81974991496E+01  0.20709539811E+01  0.23678227323E+01  0.87803432274E+01  0.00000000000E+00 0. -1.
<mgrwt>
<rscale>  1 0.62626455E+03</rscale>
<asrwt>0</asrwt>
<pdfrwt beam="1">  1        1 0.37796914E+00 0.62626455E+03</pdfrwt>
<pdfrwt beam="2">0</pdfrwt>
<totfact> 0.16825500E+00</totfact>
</mgrwt>
</event>
<event>
 6    1  0.2552886E-003  0.6513399E+03  0.7818608E-02  0.9804268E-01
          3   -1    0    0  502    0  0.00000000000E+00  0.00000000000E+00  0.10606565842E+03  0.10606565842E+03  0.00000000000E+00 0.  1.
         13   -1    0    0    0    0 -0.00000000000E+00 -0.00000000000E+00 -0.10000000000E+04  0.10000000000E+04  0.00000000000E+00 0.  1.
    9000005    2    1    2  501    0 -0.22114395264E-03 -0.31084492178E-03 -0.89393906089E+03  0.11060609237E+04  0.65133994380E+03 0.  0.
         13    1    3    3    0    0 -0.47128894335E+02  0.26291833701E+03 -0.76335856646E+03  0.80874191533E+03  0.00000000000E+00 0.  1.
          1    1    3    3  501    0  0.47128673191E+02 -0.26291864785E+03 -0.13058049443E+03  0.29731900839E+03  0.00000000000E+00 0.  1.
         21    1    1    2  502  501  0.22114395265E-03  0.31084492180E-03  0.47193103199E-02  0.47347036980E-02  0.00000000000E+00 0. -1.
<mgrwt>
<rscale>  1 0.65133994E+03</rscale>
<asrwt>0</asrwt>
<pdfrwt beam="1">  1        3 0.38569412E+00 0.65133994E+03</pdfrwt>
<pdfrwt beam="2">0</pdfrwt>
<totfact> 0.70418166E-02</totfact>
</mgrwt>
</event>
<event>
 6    1  0.2552886E-003  0.6702356E+03  0.7818608E-02  0.9769532E-01
          1   -1    0    0  502    0  0.00000000000E+00  0.00000000000E+00  0.11230456595E+03  0.11230456595E+03  0.00000000000E+00 0.  1.
         13   -1    0    0    0    0 -0.00000000000E+00 -0.00000000000E+00 -0.10000000000E+04  0.10000000000E+04  0.00000000000E+00 0.  1.
    9000005    2    1    2  501    0 -0.25434792737E-03  0.13662877421E-03 -0.88769602869E+03  0.11123039049E+04  0.67023558363E+03 0.  0.
         13    1    3    3    0    0  0.10639246903E+03 -0.29275064239E+03 -0.64900188031E+03  0.71987897366E+03  0.00000000000E+00 0.  1.
          3    1    3    3  501    0 -0.10639272338E+03  0.29275077902E+03 -0.23869414838E+03  0.39242493126E+03  0.00000000000E+00 0.  1.
         21    1    1    2  502  501  0.25434792737E-03 -0.13662877425E-03  0.59463778102E-03  0.66102524969E-03  0.00000000000E+00 0. -1.
<mgrwt>
<rscale>  1 0.67023558E+03</rscale>
<asrwt>0</asrwt>
<pdfrwt beam="1">  1        1 0.40838110E+00 0.67023558E+03</pdfrwt>
<pdfrwt beam="2">0</pdfrwt>
<totfact> 0.12226268E+00</totfact>
</mgrwt>
</event>
<event>
 6    1  0.2552886E-003  0.6356603E+03  0.7818608E-02  0.9834065E-01
          1   -1    0    0  502    0  0.00000000000E+00  0.00000000000E+00  0.10193409898E+03  0.10193409898E+03  0.00000000000E+00 0.  1.
         13   -1    0    0    0    0 -0.00000000000E+00 -0.00000000000E+00 -0.10000000000E+04  0.10000000000E+04  0.00000000000E+00 0.  1.
    9000005    2    1    2  501    0 -0.12458508488E-01 -0.17560072557E-02 -0.89898393820E+03  0.11010159756E+04  0.63566033163E+03 0.  0.
         13    1    3    3    0    0  0.14390162415E+03  0.27683808426E+03 -0.34460316115E+03  0.46486378758E+03  0.00000000000E+00 0.  1.
          1    1    3    3  501    0 -0.14391408266E+03 -0.27683984027E+03 -0.55438077705E+03  0.63615218801E+03  0.00000000000E+00 0.  1.
         21    1    1    2  502  501  0.12458508488E-01  0.17560072557E-02  0.91803717424E+00  0.91812338565E+00  0.00000000000E+00 0. -1.
<mgrwt>
<rscale>  1 0.63566033E+03</rscale>
<asrwt>0</asrwt>
<pdfrwt beam="1">  1        1 0.37067023E+00 0.63566033E+03</pdfrwt>
<pdfrwt beam="2">0</pdfrwt>
<totfact> 0.18084916E+00</totfact>
</mgrwt>
</event>
<event>
 6    1  0.2552886E-003  0.6351830E+03  0.7818608E-02  0.9834986E-01
          1   -1    0    0  502    0  0.00000000000E+00  0.00000000000E+00  0.10086664903E+03  0.10086664903E+03  0.00000000000E+00 0.  1.
         13   -1    0    0    0    0 -0.00000000000E+00 -0.00000000000E+00 -0.10000000000E+04  0.10000000000E+04  0.00000000000E+00 0.  1.
    9000005    2    1    2  501    0  0.75059338826E-03 -0.85475223946E-03 -0.89913547972E+03  0.11008642354E+04  0.63518300822E+03 0.  0.
         13    1    3    3    0    0 -0.14193266785E+03  0.95237313366E+02  0.14349804271E+02  0.17152534782E+03  0.00000000000E+00 0.  1.
          3    1    3    3  501    0  0.14193341845E+03 -0.95238168118E+02 -0.91348528399E+03  0.92933888760E+03  0.00000000000E+00 0.  1.
         21    1    1    2  502  501 -0.75059338828E-03  0.85475223947E-03  0.21287504709E-02  0.24136218413E-02  0.00000000000E+00 0.  1.
<mgrwt>
<rscale>  1 0.63518301E+03</rscale>
<asrwt>0</asrwt>
<pdfrwt beam="1">  1        1 0.36678859E+00 0.63518301E+03</pdfrwt>
<pdfrwt beam="2">0</pdfrwt>
<totfact> 0.18810116E+00</totfact>
</mgrwt>
</event>
<event>
 6    1  0.2552886E-003  0.6458335E+03  0.7818608E-02  0.9814629E-01
          1   -1    0    0  502    0  0.00000000000E+00  0.00000000000E+00  0.10427952968E+03  0.10427952968E+03  0.00000000000E+00 0.  1.
         13   -1    0    0    0    0 -0.00000000000E+00 -0.00000000000E+00 -0.10000000000E+04  0.10000000000E+04  0.00000000000E+00 0.  1.
    9000005    2    1    2  501    0 -0.16290456159E-03 -0.26286635426E-03 -0.89572475449E+03  0.11042752344E+04  0.64583353692E+03 0.  0.
         13    1    3    3    0    0 -0.13566813732E+03 -0.29086983351E+03 -0.38706721438E+03  0.50282415612E+03  0.00000000000E+00 0.  1.
          3    1    3    3  501    0  0.13566797441E+03  0.29086957064E+03 -0.50865754011E+03  0.60145107824E+03  0.00000000000E+00 0.  1.
         21    1    1    2  502  501  0.16290456160E-03  0.26286635427E-03  0.42841722959E-02  0.42953194151E-02  0.00000000000E+00 0.  1.
<mgrwt>
<rscale>  1 0.64583354E+03</rscale>
<asrwt>0</asrwt>
<pdfrwt beam="1">  1        1 0.37919909E+00 0.64583354E+03</pdfrwt>
<pdfrwt beam="2">0</pdfrwt>
<totfact> 0.16556440E+00</totfact>
</mgrwt>
</event>
<event>
 6    1  0.2552886E-003  0.6569302E+03  0.7818608E-02  0.9793861E-01
          1   -1    0    0  502    0  0.00000000000E+00  0.00000000000E+00  0.10836473739E+03  0.10836473739E+03  0.00000000000E+00 0.  1.
         13   -1    0    0    0    0 -0.00000000000E+00 -0.00000000000E+00 -0.10000000000E+04  0.10000000000E+04  0.00000000000E+00 0.  1.
    9000005    2    1    2  501    0  0.58091305601E-02 -0.67798333048E-02 -0.89211063836E+03  0.11078892778E+04  0.65693017949E+03 0.  0.
         13    1    3    3    0    0  0.11272697529E+03 -0.20911602654E+03 -0.63509041367E+02  0.24590705937E+03  0.00000000000E+00 0.  1.
          1    1    3    3  501    0 -0.11272116616E+03  0.20910924670E+03 -0.82860159699E+03  0.86198221843E+03  0.00000000000E+00 0.  1.
         21    1    1    2  502  501 -0.58091305601E-02  0.67798333048E-02  0.47537575100E+00  0.47545958480E+00  0.00000000000E+00 0.  1.
<mgrwt>
<rscale>  1 0.65693018E+03</rscale>
<asrwt>0</asrwt>
<pdfrwt beam="1">  1        1 0.39405442E+00 0.65693018E+03</pdfrwt>
<pdfrwt beam="2">0</pdfrwt>
<totfact> 0.14200712E+00</totfact>
</mgrwt>
</event>
<event>
 6    1  0.2552886E-003  0.6286424E+03  0.7818608E-02  0.9847702E-01
          1   -1    0    0  502    0  0.00000000000E+00  0.00000000000E+00  0.98797997988E+02  0.98797997988E+02  0.00000000000E+00 0.  1.
         13   -1    0    0    0    0 -0.00000000000E+00 -0.00000000000E+00 -0.10000000000E+04  0.10000000000E+04  0.00000000000E+00 0.  1.
    9000005    2    1    2  501    0  0.15271692575E-04  0.11256835869E-04 -0.90120217449E+03  0.10987978245E+04  0.62864242599E+03 0.  0.
         13    1    3    3    0    0 -0.29836958454E+03 -0.52864734466E+02 -0.30458444511E+03  0.42964028365E+03  0.00000000000E+00 0.  1.
          3    1    3    3  501    0  0.29836959981E+03  0.52864745723E+02 -0.59661772938E+03  0.66915754082E+03  0.00000000000E+00 0.  1.
         21    1    1    2  502  501 -0.15271692543E-04 -0.11256835870E-04  0.17247602174E-03  0.17351633647E-03  0.00000000000E+00 0.  1.
<mgrwt>
<rscale>  1 0.62864243E+03</rscale>
<asrwt>0</asrwt>
<pdfrwt beam="1">  1        1 0.35926620E+00 0.62864243E+03</pdfrwt>
<pdfrwt beam="2">0</pdfrwt>
<totfact> 0.20316310E+00</totfact>
</mgrwt>
</event>
<event>
 6    1  0.2552886E-003  0.6512273E+03  0.7818608E-02  0.9804479E-01
          1   -1    0    0  502    0  0.00000000000E+00  0.00000000000E+00  0.13964747508E+03  0.13964747508E+03  0.00000000000E+00 0.  1.
         13   -1    0    0    0    0 -0.00000000000E+00 -0.00000000000E+00 -0.10000000000E+04  0.10000000000E+04  0.00000000000E+00 0.  1.
    9000005    2    1    2  501    0 -0.22571077963E+00  0.67650506015E+01 -0.89359854927E+03  0.11057193895E+04  0.65119212545E+03 0.  0.
         13    1    3    3    0    0  0.10379459217E+03 -0.14135915154E+03 -0.90740203681E+03  0.92419380192E+03  0.00000000000E+00 0.  1.
          3    1    3    3  501    0 -0.10402030295E+03  0.14812420214E+03  0.13803487545E+02  0.18152558760E+03  0.00000000000E+00 0.  1.
         21    1    1    2  502  501  0.22571077963E+00 -0.67650506015E+01  0.33246024346E+02  0.33928085561E+02  0.00000000000E+00 0.  1.
<mgrwt>
<rscale>  1 0.65122730E+03</rscale>
<asrwt>0</asrwt>
<pdfrwt beam="1">  1        1 0.50781007E+00 0.65122730E+03</pdfrwt>
<pdfrwt beam="2">0</pdfrwt>
<totfact> 0.42379843E-01</totfact>
</mgrwt>
</event>
<event>
 6    1  0.2552886E-003  0.6879925E+03  0.7818608E-02  0.9737990E-01
          1   -1    0    0  502    0  0.00000000000E+00  0.00000000000E+00  0.12217266544E+03  0.12217266544E+03  0.00000000000E+00 0.  1.
         13   -1    0    0    0    0 -0.00000000000E+00 -0.00000000000E+00 -0.10000000000E+04  0.10000000000E+04  0.00000000000E+00 0.  1.
    9000005    2    1    2  501    0 -0.36868128977E+01 -0.36366032609E+00 -0.88063782384E+03  0.11175225377E+04  0.68798250023E+03 0.  0.
         13    1    3    3    0    0 -0.16374764609E+03  0.28282827002E+03 -0.26313329814E+03  0.41957627973E+03  0.00000000000E+00 0.  1.
          3    1    3    3  501    0  0.16006083319E+03 -0.28319193034E+03 -0.61750452570E+03  0.69794625796E+03  0.00000000000E+00 0.  1.
         21    1    1    2  502  501  0.36868128977E+01  0.36366032609E+00  0.28104892784E+01  0.46501277574E+01  0.00000000000E+00 0. -1.
<mgrwt>
<rscale>  1 0.68799247E+03</rscale>
<asrwt>0</asrwt>
<pdfrwt beam="1">  1        1 0.44426517E+00 0.68799247E+03</pdfrwt>
<pdfrwt beam="2">0</pdfrwt>
<totfact> 0.83773825E-01</totfact>
</mgrwt>
</event>
<event>
 6    1  0.2552886E-003  0.6576419E+03  0.7818608E-02  0.9792545E-01
          1   -1    0    0  502    0  0.00000000000E+00  0.00000000000E+00  0.10885694160E+03  0.10885694160E+03  0.00000000000E+00 0.  1.
         13   -1    0    0    0    0 -0.00000000000E+00 -0.00000000000E+00 -0.10000000000E+04  0.10000000000E+04  0.00000000000E+00 0.  1.
    9000005    2    1    2  501    0  0.28447829408E-03  0.14998500593E-01 -0.89187671080E+03  0.11081231359E+04  0.65764186053E+03 0.  0.
         13    1    3    3    0    0 -0.16142974469E+03 -0.23899282465E+03 -0.71204506869E+03  0.76823519351E+03  0.00000000000E+00 0.  1.
          1    1    3    3  501    0  0.16143002916E+03  0.23900782315E+03 -0.17983164211E+03  0.33988794234E+03  0.00000000000E+00 0.  1.
         21    1    1    2  502  501 -0.28447829406E-03 -0.14998500593E-01  0.73365239579E+00  0.73380574664E+00  0.00000000000E+00 0.  1.
<mgrwt>
<rscale>  1 0.65764186E+03</rscale>
<asrwt>0</asrwt>
<pdfrwt beam="1">  1        1 0.39584426E+00 0.65764186E+03</pdfrwt>
<pdfrwt beam="2">0</pdfrwt>
<totfact> 0.13941004E+00</totfact>
</mgrwt>
</event>
<event>
 6    1  0.2552886E-003  0.6488061E+03  0.7818608E-02  0.9809022E-01
          1   -1    0    0  502    0  0.00000000000E+00  0.00000000000E+00  0.10539725266E+03  0.10539725266E+03  0.00000000000E+00 0.  1.
         13   -1    0    0    0    0 -0.00000000000E+00 -0.00000000000E+00 -0.10000000000E+04  0.10000000000E+04  0.00000000000E+00 0.  1.
    9000005    2    1    2  501    0  0.13017332283E-02 -0.38172348220E-02 -0.89476262693E+03  0.11052373222E+04  0.64880611883E+03 0.  0.
         13    1    3    3    0    0 -0.10853784787E+03 -0.12250695188E+03 -0.92451012722E+03  0.93888625137E+03  0.00000000000E+00 0.  1.
          1    1    3    3  501    0  0.10853914961E+03  0.12250313465E+03  0.29747500286E+02  0.16635107084E+03  0.00000000000E+00 0.  1.
         21    1    1    2  502  501 -0.13017332283E-02  0.38172348220E-02  0.15987959248E+00  0.15993045327E+00  0.00000000000E+00 0. -1.
<mgrwt>
<rscale>  1 0.64880612E+03</rscale>
<asrwt>0</asrwt>
<pdfrwt beam="1">  1        1 0.38326355E+00 0.64880612E+03</pdfrwt>
<pdfrwt beam="2">0</pdfrwt>
<totfact> 0.15877613E+00</totfact>
</mgrwt>
</event>
<event>
 6    1  0.2552886E-003  0.6517612E+03  0.7818608E-02  0.9803480E-01
          3   -1    0    0  502    0  0.00000000000E+00  0.00000000000E+00  0.10620955075E+03  0.10620955075E+03  0.00000000000E+00 0.  1.
         13   -1    0    0    0    0 -0.00000000000E+00 -0.00000000000E+00 -0.10000000000E+04  0.10000000000E+04  0.00000000000E+00 0.  1.
    9000005    2    1    2  501    0  0.47544316118E-04 -0.23988757812E-03 -0.89380182014E+03  0.11061981772E+04  0.65176123972E+03 0.  0.
         13    1    3    3    0    0 -0.25535457397E+03 -0.14125262386E+03 -0.20071309399E+03  0.35418075653E+03  0.00000000000E+00 0.  1.
          1    1    3    3  501    0  0.25535462152E+03  0.14125238398E+03 -0.69308872615E+03  0.75201742069E+03  0.00000000000E+00 0.  1.
         21    1    1    2  502  501 -0.47544316120E-04  0.23988757809E-03  0.11370897444E-01  0.11373526946E-01  0.00000000000E+00 0. -1.
<mgrwt>
<rscale>  1 0.65176124E+03</rscale>
<asrwt>0</asrwt>
<pdfrwt beam="1">  1        3 0.38621736E+00 0.65176124E+03</pdfrwt>
<pdfrwt beam="2">0</pdfrwt>
<totfact> 0.69967541E-02</totfact>
</mgrwt>
</event>
<event>
 6    1  0.2552886E-003  0.6592913E+03  0.7818608E-02  0.9789499E-01
          1   -1    0    0  502    0  0.00000000000E+00  0.00000000000E+00  0.10955824717E+03  0.10955824717E+03  0.00000000000E+00 0.  1.
         13   -1    0    0    0    0 -0.00000000000E+00 -0.00000000000E+00 -0.10000000000E+04  0.10000000000E+04  0.00000000000E+00 0.  1.
    9000005    2    1    2  501    0  0.47885427284E+00 -0.84231166493E+00 -0.89103200544E+03  0.11084237039E+04  0.65929062923E+03 0.  0.
         13    1    3    3    0    0  0.14868423830E+03  0.81263124776E+02  0.29879114391E+02  0.17205655943E+03  0.00000000000E+00 0.  1.
          1    1    3    3  501    0 -0.14820538403E+03 -0.82105436441E+02 -0.92091111983E+03  0.93636714444E+03  0.00000000000E+00 0.  1.
         21    1    1    2  502  501 -0.47885427284E+00  0.84231166493E+00  0.59025261702E+00  0.11345433035E+01  0.00000000000E+00 0.  1.
<mgrwt>
<rscale>  1 0.65929134E+03</rscale>
<asrwt>0</asrwt>
<pdfrwt beam="1">  1        1 0.39839447E+00 0.65929134E+03</pdfrwt>
<pdfrwt beam="2">0</pdfrwt>
<totfact> 0.13577107E+00</totfact>
</mgrwt>
</event>
<event>
 6    1  0.2552886E-003  0.6354373E+03  0.7818608E-02  0.9834495E-01
          1   -1    0    0  502    0  0.00000000000E+00  0.00000000000E+00  0.10094528275E+03  0.10094528275E+03  0.00000000000E+00 0.  1.
         13   -1    0    0    0    0 -0.00000000000E+00 -0.00000000000E+00 -0.10000000000E+04  0.10000000000E+04  0.00000000000E+00 0.  1.
    9000005    2    1    2  501    0  0.48850190133E-04 -0.84117558174E-04 -0.89905482571E+03  0.11009451371E+04  0.63543734166E+03 0.  0.
         13    1    3    3    0    0 -0.46875081371E+02 -0.30533961874E+03 -0.57820127464E+03  0.65555035659E+03  0.00000000000E+00 0.  1.
          1    1    3    3  501    0  0.46875130222E+02  0.30533953462E+03 -0.32085355107E+03  0.44539478047E+03  0.00000000000E+00 0.  1.
         21    1    1    2  502  501 -0.48850190134E-04  0.84117558122E-04  0.10846107304E-03  0.14569114258E-03  0.00000000000E+00 0. -1.
<mgrwt>
<rscale>  1 0.63543734E+03</rscale>
<asrwt>0</asrwt>
<pdfrwt beam="1">  1        1 0.36707453E+00 0.63543734E+03</pdfrwt>
<pdfrwt beam="2">0</pdfrwt>
<totfact> 0.18755010E+00</totfact>
</mgrwt>
</event>
<event>
 6    1  0.2552886E-003  0.6444153E+03  0.7818608E-02  0.9817315E-01
          1   -1    0    0  502    0  0.00000000000E+00  0.00000000000E+00  0.10410835959E+03  0.10410835959E+03  0.00000000000E+00 0.  1.
         13   -1    0    0    0    0 -0.00000000000E+00 -0.00000000000E+00 -0.10000000000E+04  0.10000000000E+04  0.00000000000E+00 0.  1.
    9000005    2    1    2  501    0  0.57762998098E-02  0.58822674614E-02 -0.89618217526E+03  0.11038177078E+04  0.64441527040E+03 0.  0.
         13    1    3    3    0    0  0.31653399967E+03  0.45637102785E+02 -0.38080380605E+03  0.49728066200E+03  0.00000000000E+00 0.  1.
          3    1    3    3  501    0 -0.31652822337E+03 -0.45631220518E+02 -0.51537836921E+03  0.60653704580E+03  0.00000000000E+00 0.  1.
         21    1    1    2  502  501 -0.57762998098E-02 -0.58822674614E-02  0.29053484860E+00  0.29065179332E+00  0.00000000000E+00 0.  1.
<mgrwt>
<rscale>  1 0.64441527E+03</rscale>
<asrwt>0</asrwt>
<pdfrwt beam="1">  1        1 0.37857665E+00 0.64441527E+03</pdfrwt>
<pdfrwt beam="2">0</pdfrwt>
<totfact> 0.16665752E+00</totfact>
</mgrwt>
</event>
<event>
 6    1  0.5317435E-003  0.6488066E+03  0.7818608E-02  0.9809021E-01
          1   -1    0    0  502    0  0.00000000000E+00  0.00000000000E+00  0.10523750465E+03  0.10523750465E+03  0.00000000000E+00 0.  1.
         13   -1    0    0    0    0 -0.00000000000E+00 -0.00000000000E+00 -0.10000000000E+04  0.10000000000E+04  0.00000000000E+00 0.  1.
    9000005    2    1    2  501    0  0.15901839049E-04  0.13570968235E-04 -0.89476247287E+03  0.11052374739E+04  0.64880658979E+03 0.  0.
         13    1    3    3    0    0  0.21983478239E+03 -0.10634397286E+03 -0.83610184959E+02  0.25812213222E+03  0.00000000000E+00 0.  1.
          1    1    3    3  501    0 -0.21983476649E+03  0.10634398643E+03 -0.81115228791E+03  0.84711534173E+03  0.00000000000E+00 0.  1.
         21    1    1    2  502  501 -0.15901839053E-04 -0.13570968233E-04 -0.22483243014E-04  0.30700747230E-04  0.00000000000E+00 0.  1.
<mgrwt>
<rscale>  1 0.64880659E+03</rscale>
<asrwt>0</asrwt>
<pdfrwt beam="1">  1        1 0.38268264E+00 0.64880659E+03</pdfrwt>
<pdfrwt beam="2">0</pdfrwt>
<totfact> 0.15971733E+00</totfact>
</mgrwt>
</event>
<event>
 6    1  0.2552886E-003  0.6517816E+03  0.7818608E-02  0.9803442E-01
          1   -1    0    0  502    0  0.00000000000E+00  0.00000000000E+00  0.10620483837E+03  0.10620483837E+03  0.00000000000E+00 0.  1.
         13   -1    0    0    0    0 -0.00000000000E+00 -0.00000000000E+00 -0.10000000000E+04  0.10000000000E+04  0.00000000000E+00 0.  1.
    9000005    2    1    2  501    0  0.95334440786E-05 -0.50741782474E-05 -0.89379518020E+03  0.11062048169E+04  0.65178161431E+03 0.  0.
         13    1    3    3    0    0  0.17618472348E+02 -0.13631817129E+02 -0.99870631426E+03  0.99895472327E+03  0.00000000000E+00 0.  1.
          3    1    3    3  501    0 -0.17618462814E+02  0.13631812055E+02  0.10491113406E+03  0.10725009362E+03  0.00000000000E+00 0.  1.
         21    1    1    2  502  501 -0.95334440796E-05  0.50741782475E-05  0.18576012853E-04  0.21487254231E-04  0.00000000000E+00 0. -1.
<mgrwt>
<rscale>  1 0.65178161E+03</rscale>
<asrwt>0</asrwt>
<pdfrwt beam="1">  1        1 0.38620023E+00 0.65178161E+03</pdfrwt>
<pdfrwt beam="2">0</pdfrwt>
<totfact> 0.15401350E+00</totfact>
</mgrwt>
</event>
<event>
 6    1  0.2552886E-003  0.6287276E+03  0.7818608E-02  0.9847535E-01
          1   -1    0    0  502    0  0.00000000000E+00  0.00000000000E+00  0.99969024739E+02  0.99969024739E+02  0.00000000000E+00 0.  1.
         13   -1    0    0    0    0 -0.00000000000E+00 -0.00000000000E+00 -0.10000000000E+04  0.10000000000E+04  0.00000000000E+00 0.  1.
    9000005    2    1    2  501    0 -0.38724997701E-01  0.36561857042E-01 -0.90117473527E+03  0.10988240255E+04  0.62872755037E+03 0.  0.
         13    1    3    3    0    0  0.27034379283E+03 -0.16016421525E+03 -0.46516363522E+03  0.56135153844E+03  0.00000000000E+00 0.  1.
          3    1    3    3  501    0 -0.27038251783E+03  0.16020077711E+03 -0.43601110005E+03  0.53747248702E+03  0.00000000000E+00 0.  1.
         21    1    1    2  502  501  0.38724997701E-01 -0.36561857042E-01  0.11437600114E+01  0.11449992832E+01  0.00000000000E+00 0. -1.
<mgrwt>
<rscale>  1 0.62872755E+03</rscale>
<asrwt>0</asrwt>
<pdfrwt beam="1">  1        1 0.36352449E+00 0.62872755E+03</pdfrwt>
<pdfrwt beam="2">0</pdfrwt>
<totfact> 0.19462812E+00</totfact>
</mgrwt>
</event>
<event>
 6    1  0.2552886E-003  0.6469397E+03  0.7818608E-02  0.9812539E-01
          1   -1    0    0  502    0  0.00000000000E+00  0.00000000000E+00  0.10467111723E+03  0.10467111723E+03  0.00000000000E+00 0.  1.
         13   -1    0    0    0    0 -0.00000000000E+00 -0.00000000000E+00 -0.10000000000E+04  0.10000000000E+04  0.00000000000E+00 0.  1.
    9000005    2    1    2  501    0 -0.24133038321E-01 -0.65426426807E-01 -0.89532853564E+03  0.11046013810E+04  0.64693973393E+03 0.  0.
         13    1    3    3    0    0 -0.17973060021E+03  0.17652434129E+03 -0.10124082046E+03  0.27150255145E+03  0.00000000000E+00 0.  1.
          3    1    3    3  501    0  0.17970646717E+03 -0.17658976771E+03 -0.79408771518E+03  0.83309882955E+03  0.00000000000E+00 0.  1.
         21    1    1    2  502  501  0.24133038321E-01  0.65426426807E-01 -0.34712949475E-03  0.69736227044E-01  0.00000000000E+00 0. -1.
<mgrwt>
<rscale>  1 0.64693974E+03</rscale>
<asrwt>0</asrwt>
<pdfrwt beam="1">  1        1 0.38062305E+00 0.64693974E+03</pdfrwt>
<pdfrwt beam="2">0</pdfrwt>
<totfact> 0.16315338E+00</totfact>
</mgrwt>
</event>
<event>
 6    1  0.2552886E-003  0.6557439E+03  0.7818608E-02  0.9796060E-01
          1   -1    0    0  502    0  0.00000000000E+00  0.00000000000E+00  0.10784181497E+03  0.10784181497E+03  0.00000000000E+00 0.  1.
         13   -1    0    0    0    0 -0.00000000000E+00 -0.00000000000E+00 -0.10000000000E+04  0.10000000000E+04  0.00000000000E+00 0.  1.
    9000005    2    1    2  501    0  0.18913138514E-01 -0.38437448042E-01 -0.89249849401E+03  0.11074988203E+04  0.65574390834E+03 0.  0.
         13    1    3    3    0    0  0.28002606173E+03 -0.14415899332E+03 -0.60027348096E+03  0.67788248432E+03  0.00000000000E+00 0.  1.
          3    1    3    3  501    0 -0.28000714859E+03  0.14412055588E+03 -0.29222501305E+03  0.42961633598E+03  0.00000000000E+00 0.  1.
         21    1    1    2  502  501 -0.18913138514E-01  0.38437448042E-01  0.34030897286E+00  0.34299466647E+00  0.00000000000E+00 0.  1.
<mgrwt>
<rscale>  1 0.65574391E+03</rscale>
<asrwt>0</asrwt>
<pdfrwt beam="1">  1        1 0.39215288E+00 0.65574391E+03</pdfrwt>
<pdfrwt beam="2">0</pdfrwt>
<totfact> 0.14482807E+00</totfact>
</mgrwt>
</event>
<event>
 6    1  0.2552886E-003  0.6560532E+03  0.7818608E-02  0.9795487E-01
          1   -1    0    0  502    0  0.00000000000E+00  0.00000000000E+00  0.12707159951E+03  0.12707159951E+03  0.00000000000E+00 0.  1.
         13   -1    0    0    0    0 -0.00000000000E+00 -0.00000000000E+00 -0.10000000000E+04  0.10000000000E+04  0.00000000000E+00 0.  1.
    9000005    2    1    2  501    0 -0.11528903126E+02 -0.12855467083E+02 -0.88806215611E+03  0.11041105629E+04  0.65582586365E+03 0.  0.
         13    1    3    3    0    0 -0.82200361681E+02  0.28367129308E+03 -0.21522850519E+03  0.36544440265E+03  0.00000000000E+00 0.  1.
          1    1    3    3  501    0  0.70671458555E+02 -0.29652676016E+03 -0.67283365092E+03  0.73866616029E+03  0.00000000000E+00 0.  1.
         21    1    1    2  502  501  0.11528903126E+02  0.12855467083E+02  0.15133755619E+02  0.22961036570E+02  0.00000000000E+00 0.  1.
<mgrwt>
<rscale>  1 0.65605315E+03</rscale>
<asrwt>0</asrwt>
<pdfrwt beam="1">  1        1 0.46207952E+00 0.65605315E+03</pdfrwt>
<pdfrwt beam="2">0</pdfrwt>
<totfact> 0.69764958E-01</totfact>
</mgrwt>
</event>
<event>
 6    1  0.2552886E-003  0.6529883E+03  0.7818608E-02  0.9801188E-01
          1   -1    0    0  502    0  0.00000000000E+00  0.00000000000E+00  0.10689842933E+03  0.10689842933E+03  0.00000000000E+00 0.  1.
         13   -1    0    0    0    0 -0.00000000000E+00 -0.00000000000E+00 -0.10000000000E+04  0.10000000000E+04  0.00000000000E+00 0.  1.
    9000005    2    1    2  501    0  0.18304129176E-01  0.42914407340E-01 -0.89339956898E+03  0.11065968010E+04  0.65298827543E+03 0.  0.
         13    1    3    3    0    0  0.19235540404E+03  0.41125945813E+02 -0.50829327935E+01  0.19676834372E+03  0.00000000000E+00 0.  1.
          1    1    3    3  501    0 -0.19233709991E+03 -0.41083031405E+02 -0.88831663618E+03  0.90982845723E+03  0.00000000000E+00 0.  1.
         21    1    1    2  502  501 -0.18304129176E-01 -0.42914407340E-01  0.29799830819E+00  0.30162837928E+00  0.00000000000E+00 0. -1.
<mgrwt>
<rscale>  1 0.65298828E+03</rscale>
<asrwt>0</asrwt>
<pdfrwt beam="1">  1        1 0.38872238E+00 0.65298828E+03</pdfrwt>
<pdfrwt beam="2">0</pdfrwt>
<totfact> 0.15006922E+00</totfact>
</mgrwt>
</event>
<event>
 6    1  0.2552886E-003  0.6526745E+03  0.7818608E-02  0.9801774E-01
          1   -1    0    0  502    0  0.00000000000E+00  0.00000000000E+00  0.10652074755E+03  0.10652074755E+03  0.00000000000E+00 0.  1.
         13   -1    0    0    0    0 -0.00000000000E+00 -0.00000000000E+00 -0.10000000000E+04  0.10000000000E+04  0.00000000000E+00 0.  1.
    9000005    2    1    2  501    0  0.26658040285E-01 -0.10273734252E-01 -0.89349453433E+03  0.11064883479E+04  0.65267448270E+03 0.  0.
         13    1    3    3    0    0 -0.24250869272E+03  0.21519775585E+03 -0.38405334042E+03  0.50261069273E+03  0.00000000000E+00 0.  1.
          1    1    3    3  501    0  0.24253535076E+03 -0.21520802959E+03 -0.50944119392E+03  0.60387765518E+03  0.00000000000E+00 0.  1.
         21    1    1    2  502  501 -0.26658040285E-01  0.10273734252E-01  0.15281882423E-01  0.32399639777E-01  0.00000000000E+00 0. -1.
<mgrwt>
<rscale>  1 0.65267448E+03</rscale>
<asrwt>0</asrwt>
<pdfrwt beam="1">  1        1 0.38734899E+00 0.65267448E+03</pdfrwt>
<pdfrwt beam="2">0</pdfrwt>
<totfact> 0.15219528E+00</totfact>
</mgrwt>
</event>
<event>
 6    1  0.3407212E-003  0.6499421E+03  0.7818608E-02  0.9806888E-01
          1   -1    0    0  502    0  0.00000000000E+00  0.00000000000E+00  0.10560620423E+03  0.10560620423E+03  0.00000000000E+00 0.  1.
         13   -1    0    0    0    0 -0.00000000000E+00 -0.00000000000E+00 -0.10000000000E+04  0.10000000000E+04  0.00000000000E+00 0.  1.
    9000005    2    1    2  501    0 -0.31776188649E-04  0.36795781355E-04 -0.89439374709E+03  0.11056061354E+04  0.64994211425E+03 0.  0.
         13    1    3    3    0    0  0.20987502857E+03 -0.67272295695E+02 -0.85344295920E+03  0.88144085110E+03  0.00000000000E+00 0.  1.
          1    1    3    3  501    0 -0.20987506034E+03  0.67272332491E+02 -0.40950787897E+02  0.22416528434E+03  0.00000000000E+00 0.  1.
         21    1    1    2  502  501  0.31776188636E-04 -0.36795781355E-04 -0.48675639973E-04  0.68796610502E-04  0.00000000000E+00 0.  1.
<mgrwt>
<rscale>  1 0.64994211E+03</rscale>
<asrwt>0</asrwt>
<pdfrwt beam="1">  1        1 0.38402337E+00 0.64994211E+03</pdfrwt>
<pdfrwt beam="2">0</pdfrwt>
<totfact> 0.15751999E+00</totfact>
</mgrwt>
</event>
<event>
 6    1  0.2552886E-003  0.6737252E+03  0.7818608E-02  0.9763252E-01
          1   -1    0    0  502    0  0.00000000000E+00  0.00000000000E+00  0.11347820593E+03  0.11347820593E+03  0.00000000000E+00 0.  1.
         13   -1    0    0    0    0 -0.00000000000E+00 -0.00000000000E+00 -0.10000000000E+04  0.10000000000E+04  0.00000000000E+00 0.  1.
    9000005    2    1    2  501    0  0.24389966095E-04  0.47804488247E-04 -0.88652359830E+03  0.11134764009E+04  0.67372517025E+03 0.  0.
         13    1    3    3    0    0  0.10799898279E+02 -0.29716448634E+03 -0.18166747856E+03  0.34846297150E+03  0.00000000000E+00 0.  1.
          1    1    3    3  501    0 -0.10799873889E+02  0.29716453414E+03 -0.70485611974E+03  0.76501342940E+03  0.00000000000E+00 0.  1.
         21    1    1    2  502  501 -0.24389966095E-04 -0.47804488214E-04  0.18042260526E-02  0.18050240409E-02  0.00000000000E+00 0. -1.
<mgrwt>
<rscale>  1 0.67372517E+03</rscale>
<asrwt>0</asrwt>
<pdfrwt beam="1">  1        1 0.41264889E+00 0.67372517E+03</pdfrwt>
<pdfrwt beam="2">0</pdfrwt>
<totfact> 0.11691137E+00</totfact>
</mgrwt>
</event>
<event>
 6    1  0.2552886E-003  0.6763158E+03  0.7818608E-02  0.9758615E-01
          1   -1    0    0  502    0  0.00000000000E+00  0.00000000000E+00  0.11444158293E+03  0.11444158293E+03  0.00000000000E+00 0.  1.
         13   -1    0    0    0    0 -0.00000000000E+00 -0.00000000000E+00 -0.10000000000E+04  0.10000000000E+04  0.00000000000E+00 0.  1.
    9000005    2    1    2  501    0  0.19644795723E+00  0.12590685210E+00 -0.88542580036E+03  0.11141731960E+04  0.67631576083E+03 0.  0.
         13    1    3    3    0    0  0.13957814031E+03  0.29510639763E+03 -0.58875721799E+03  0.67320495015E+03  0.00000000000E+00 0.  1.
          1    1    3    3  501    0 -0.13938169236E+03 -0.29498049078E+03 -0.29666858237E+03  0.44096824587E+03  0.00000000000E+00 0.  1.
         21    1    1    2  502  501 -0.19644795723E+00 -0.12590685210E+00 -0.13261671576E+00  0.26838690096E+00  0.00000000000E+00 0.  1.
<mgrwt>
<rscale>  1 0.67631580E+03</rscale>
<asrwt>0</asrwt>
<pdfrwt beam="1">  1        1 0.41615209E+00 0.67631580E+03</pdfrwt>
<pdfrwt beam="2">0</pdfrwt>
<totfact> 0.11268993E+00</totfact>
</mgrwt>
</event>
<event>
 6    1  0.2552886E-003  0.6423954E+03  0.7818608E-02  0.9821154E-01
          1   -1    0    0  502    0  0.00000000000E+00  0.00000000000E+00  0.10403128954E+03  0.10403128954E+03  0.00000000000E+00 0.  1.
         13   -1    0    0    0    0 -0.00000000000E+00 -0.00000000000E+00 -0.10000000000E+04  0.10000000000E+04  0.00000000000E+00 0.  1.
    9000005    2    1    2  501    0  0.26933743480E-01 -0.13015113391E-01 -0.89683173865E+03  0.11031677431E+04  0.64239543978E+03 0.  0.
         13    1    3    3    0    0 -0.15453915229E+03 -0.12572691056E+03 -0.88106699060E+03  0.90330982921E+03  0.00000000000E+00 0.  1.
          1    1    3    3  501    0  0.15456608603E+03  0.12571389544E+03 -0.15764748047E+02  0.19985791388E+03  0.00000000000E+00 0.  1.
         21    1    1    2  502  501 -0.26933743480E-01  0.13015113391E-01  0.86302818551E+00  0.86354644849E+00  0.00000000000E+00 0.  1.
<mgrwt>
<rscale>  1 0.64239544E+03</rscale>
<asrwt>0</asrwt>
<pdfrwt beam="1">  1        1 0.37829640E+00 0.64239544E+03</pdfrwt>
<pdfrwt beam="2">0</pdfrwt>
<totfact> 0.16719444E+00</totfact>
</mgrwt>
</event>
<event>
 6    1  0.2552886E-003  0.6507253E+03  0.7818608E-02  0.9805419E-01
          1   -1    0    0  502    0  0.00000000000E+00  0.00000000000E+00  0.10595093197E+03  0.10595093197E+03  0.00000000000E+00 0.  1.
         13   -1    0    0    0    0 -0.00000000000E+00 -0.00000000000E+00 -0.10000000000E+04  0.10000000000E+04  0.00000000000E+00 0.  1.
    9000005    2    1    2  501    0 -0.39835486168E-02  0.85476284676E-03 -0.89413907955E+03  0.11058608283E+04  0.65072534757E+03 0.  0.
         13    1    3    3    0    0 -0.26559619011E+03 -0.11321215357E+03 -0.70200560038E+03  0.75905875325E+03  0.00000000000E+00 0.  1.
          3    1    3    3  501    0  0.26559220656E+03  0.11321300834E+03 -0.19213347916E+03  0.34680207504E+03  0.00000000000E+00 0.  1.
         21    1    1    2  502  501  0.39835486168E-02 -0.85476284676E-03  0.90011514220E-01  0.90103673461E-01  0.00000000000E+00 0.  1.
<mgrwt>
<rscale>  1 0.65072535E+03</rscale>
<asrwt>0</asrwt>
<pdfrwt beam="1">  1        1 0.38527693E+00 0.65072535E+03</pdfrwt>
<pdfrwt beam="2">0</pdfrwt>
<totfact> 0.15549952E+00</totfact>
</mgrwt>
</event>
<event>
 6    1  0.2552886E-003  0.6425547E+03  0.7818608E-02  0.9820851E-01
          1   -1    0    0  502    0  0.00000000000E+00  0.00000000000E+00  0.10322816027E+03  0.10322816027E+03  0.00000000000E+00 0.  1.
         13   -1    0    0    0    0 -0.00000000000E+00 -0.00000000000E+00 -0.10000000000E+04  0.10000000000E+04  0.00000000000E+00 0.  1.
    9000005    2    1    2  501    0 -0.28792906018E-03  0.26419607593E-04 -0.89678085477E+03  0.11032191406E+04  0.64255472195E+03 0.  0.
         13    1    3    3    0    0  0.12129422651E+02  0.30091935355E+03 -0.25628205195E+03  0.39544920076E+03  0.00000000000E+00 0.  1.
          3    1    3    3  501    0 -0.12129710580E+02 -0.30091932713E+03 -0.64049880282E+03  0.70776993983E+03  0.00000000000E+00 0.  1.
         21    1    1    2  502  501  0.28792906018E-03 -0.26419607619E-04  0.90150406153E-02  0.90196761824E-02  0.00000000000E+00 0. -1.
<mgrwt>
<rscale>  1 0.64255472E+03</rscale>
<asrwt>0</asrwt>
<pdfrwt beam="1">  1        1 0.37537592E+00 0.64255472E+03</pdfrwt>
<pdfrwt beam="2">0</pdfrwt>
<totfact> 0.17221653E+00</totfact>
</mgrwt>
</event>
<event>
 6    1  0.2552886E-003  0.6557777E+03  0.7818608E-02  0.9795998E-01
          1   -1    0    0  502    0  0.00000000000E+00  0.00000000000E+00  0.10762323713E+03  0.10762323713E+03  0.00000000000E+00 0.  1.
         13   -1    0    0    0    0 -0.00000000000E+00 -0.00000000000E+00 -0.10000000000E+04  0.10000000000E+04  0.00000000000E+00 0.  1.
    9000005    2    1    2  501    0 -0.27218507065E-01  0.11215785948E-01 -0.89248677102E+03  0.11075093581E+04  0.65577766121E+03 0.  0.
         13    1    3    3    0    0  0.68694977702E+02 -0.19526999269E+03 -0.87567324518E+03  0.89980720287E+03  0.00000000000E+00 0.  1.
          3    1    3    3  501    0 -0.68722196209E+02  0.19528120847E+03 -0.16813525844E+02  0.20770215523E+03  0.00000000000E+00 0.  1.
         21    1    1    2  502  501  0.27218507065E-01 -0.11215785948E-01  0.11000815637E+00  0.11387903868E+00  0.00000000000E+00 0. -1.
<mgrwt>
<rscale>  1 0.65577766E+03</rscale>
<asrwt>0</asrwt>
<pdfrwt beam="1">  1        1 0.39135805E+00 0.65577766E+03</pdfrwt>
<pdfrwt beam="2">0</pdfrwt>
<totfact> 0.14600851E+00</totfact>
</mgrwt>
</event>
<event>
 6    1  0.2552886E-003  0.6522185E+03  0.7818608E-02  0.9802625E-01
          1   -1    0    0  502    0  0.00000000000E+00  0.00000000000E+00  0.10637075670E+03  0.10637075670E+03  0.00000000000E+00 0.  1.
         13   -1    0    0    0    0 -0.00000000000E+00 -0.00000000000E+00 -0.10000000000E+04  0.10000000000E+04  0.00000000000E+00 0.  1.
    9000005    2    1    2  501    0 -0.18746684955E-02 -0.26066009172E-02 -0.89365264923E+03  0.11063471316E+04  0.65221845884E+03 0.  0.
         13    1    3    3    0    0 -0.29506669519E+03 -0.35046601245E+02 -0.21889838559E+03  0.36906520031E+03  0.00000000000E+00 0.  1.
          1    1    3    3  501    0  0.29506482052E+03  0.35043994644E+02 -0.67475426364E+03  0.73728193126E+03  0.00000000000E+00 0.  1.
         21    1    1    2  502  501  0.18746684955E-02  0.26066009172E-02  0.23405935171E-01  0.23625125429E-01  0.00000000000E+00 0. -1.
<mgrwt>
<rscale>  1 0.65221846E+03</rscale>
<asrwt>0</asrwt>
<pdfrwt beam="1">  1        1 0.38680357E+00 0.65221846E+03</pdfrwt>
<pdfrwt beam="2">0</pdfrwt>
<totfact> 0.15305691E+00</totfact>
</mgrwt>
</event>
<event>
 6    1  0.2552886E-003  0.6062051E+03  0.7818608E-02  0.9892615E-01
          1   -1    0    0  502    0  0.00000000000E+00  0.00000000000E+00  0.91913906610E+02  0.91913906610E+02  0.00000000000E+00 0.  1.
         13   -1    0    0    0    0 -0.00000000000E+00 -0.00000000000E+00 -0.10000000000E+04  0.10000000000E+04  0.00000000000E+00 0.  1.
    9000005    2    1    2  501    0 -0.50314322473E-03  0.13332780500E-02 -0.90812883824E+03  0.10918711380E+04  0.60620507682E+03 0.  0.
         13    1    3    3    0    0  0.23098632001E+03 -0.19621501251E+03 -0.46121383202E+03  0.55188151810E+03  0.00000000000E+00 0.  1.
          1    1    3    3  501    0 -0.23098682315E+03  0.19621634579E+03 -0.44691500622E+03  0.53998961991E+03  0.00000000000E+00 0.  1.
         21    1    1    2  502  501  0.50314322473E-03 -0.13332780500E-02  0.42744853644E-01  0.42768601760E-01  0.00000000000E+00 0.  1.
<mgrwt>
<rscale>  1 0.60620508E+03</rscale>
<asrwt>0</asrwt>
<pdfrwt beam="1">  1        1 0.33423309E+00 0.60620508E+03</pdfrwt>
<pdfrwt beam="2">0</pdfrwt>
<totfact> 0.26215332E+00</totfact>
</mgrwt>
</event>
<event>
 6    1  0.2552886E-003  0.6548437E+03  0.7818608E-02  0.9797732E-01
          1   -1    0    0  502    0  0.00000000000E+00  0.00000000000E+00  0.10729141120E+03  0.10729141120E+03  0.00000000000E+00 0.  1.
         13   -1    0    0    0    0 -0.00000000000E+00 -0.00000000000E+00 -0.10000000000E+04  0.10000000000E+04  0.00000000000E+00 0.  1.
    9000005    2    1    2  501    0 -0.98157499001E-01  0.22876536328E+00 -0.89249595006E+03  0.11069640219E+04  0.65484369360E+03 0.  0.
         13    1    3    3    0    0  0.30403338465E+03 -0.10251620614E+03 -0.33650815664E+03  0.46495549356E+03  0.00000000000E+00 0.  1.
          3    1    3    3  501    0 -0.30413154215E+03  0.10274497151E+03 -0.55598779342E+03  0.64200852839E+03  0.00000000000E+00 0.  1.
         21    1    1    2  502  501  0.98157499001E-01 -0.22876536328E+00 -0.21263874468E+00  0.32738925118E+00  0.00000000000E+00 0.  1.
<mgrwt>
<rscale>  1 0.65484374E+03</rscale>
<asrwt>0</asrwt>
<pdfrwt beam="1">  1        1 0.39015141E+00 0.65484374E+03</pdfrwt>
<pdfrwt beam="2">0</pdfrwt>
<totfact> 0.14784504E+00</totfact>
</mgrwt>
</event>
<event>
 6    1  0.2552886E-003  0.6484106E+03  0.7818608E-02  0.9809766E-01
          1   -1    0    0  502    0  0.00000000000E+00  0.00000000000E+00  0.10512064597E+03  0.10512064597E+03  0.00000000000E+00 0.  1.
         13   -1    0    0    0    0 -0.00000000000E+00 -0.00000000000E+00 -0.10000000000E+04  0.10000000000E+04  0.00000000000E+00 0.  1.
    9000005    2    1    2  501    0  0.34143299485E-02 -0.13830122903E-02 -0.89489058950E+03  0.11051088220E+04  0.64841062705E+03 0.  0.
         13    1    3    3    0    0 -0.24008237763E+03 -0.15204956901E+03 -0.71339591388E+03  0.76791428521E+03  0.00000000000E+00 0.  1.
          3    1    3    3  501    0  0.24008579196E+03  0.15204818599E+03 -0.18149467562E+03  0.33719453680E+03  0.00000000000E+00 0.  1.
         21    1    1    2  502  501 -0.34143299484E-02  0.13830122903E-02  0.11235478089E-01  0.11823973100E-01  0.00000000000E+00 0.  1.
<mgrwt>
<rscale>  1 0.64841063E+03</rscale>
<asrwt>0</asrwt>
<pdfrwt beam="1">  1        1 0.38225770E+00 0.64841063E+03</pdfrwt>
<pdfrwt beam="2">0</pdfrwt>
<totfact> 0.16042090E+00</totfact>
</mgrwt>
</event>
<event>
 6    1  0.2552886E-003  0.6503055E+03  0.7818608E-02  0.9806206E-01
          1   -1    0    0  502    0  0.00000000000E+00  0.00000000000E+00  0.10576535029E+03  0.10576535029E+03  0.00000000000E+00 0.  1.
         13   -1    0    0    0    0 -0.00000000000E+00 -0.00000000000E+00 -0.10000000000E+04  0.10000000000E+04  0.00000000000E+00 0.  1.
    9000005    2    1    2  501    0  0.50854415447E-01  0.32460742336E-01 -0.89424956498E+03  0.11057032026E+04  0.65030553136E+03 0.  0.
         13    1    3    3    0    0 -0.18333559981E+02 -0.27279777823E+03 -0.74627549293E+03  0.79478415848E+03  0.00000000000E+00 0.  1.
          3    1    3    3  501    0  0.18384414397E+02  0.27283023897E+03 -0.14797407205E+03  0.31091904411E+03  0.00000000000E+00 0.  1.
         21    1    1    2  502  501 -0.50854415447E-01 -0.32460742336E-01  0.14915266631E-01  0.62147699411E-01  0.00000000000E+00 0.  1.
<mgrwt>
<rscale>  1 0.65030553E+03</rscale>
<asrwt>0</asrwt>
<pdfrwt beam="1">  1        1 0.38460208E+00 0.65030553E+03</pdfrwt>
<pdfrwt beam="2">0</pdfrwt>
<totfact> 0.15658409E+00</totfact>
</mgrwt>
</event>
<event>
 6    1  0.2552886E-003  0.6557807E+03  0.7818608E-02  0.9795992E-01
          1   -1    0    0  502    0  0.00000000000E+00  0.00000000000E+00  0.10751384503E+03  0.10751384503E+03  0.00000000000E+00 0.  1.
         13   -1    0    0    0    0 -0.00000000000E+00 -0.00000000000E+00 -0.10000000000E+04  0.10000000000E+04  0.00000000000E+00 0.  1.
    9000005    2    1    2  501    0 -0.31763664665E-03 -0.15660623548E-02 -0.89248752141E+03  0.11075117425E+04  0.65578066754E+03 0.  0.
         13    1    3    3    0    0  0.29560113137E+02 -0.20915621498E+03 -0.22710349297E+02  0.21245207111E+03  0.00000000000E+00 0.  1.
          3    1    3    3  501    0 -0.29560430773E+02  0.20915464892E+03 -0.86977717211E+03  0.89505967140E+03  0.00000000000E+00 0.  1.
         21    1    1    2  502  501  0.31763664665E-03  0.15660623548E-02  0.13664379491E-02  0.21025215831E-02  0.00000000000E+00 0. -1.
<mgrwt>
<rscale>  1 0.65578067E+03</rscale>
<asrwt>0</asrwt>
<pdfrwt beam="1">  1        1 0.39096026E+00 0.65578067E+03</pdfrwt>
<pdfrwt beam="2">0</pdfrwt>
<totfact> 0.14660309E+00</totfact>
</mgrwt>
</event>
<event>
 6    1  0.2552886E-003  0.6638062E+03  0.7818608E-02  0.9781212E-01
          1   -1    0    0  502    0  0.00000000000E+00  0.00000000000E+00  0.11017779077E+03  0.11017779077E+03  0.00000000000E+00 0.  1.
         13   -1    0    0    0    0 -0.00000000000E+00 -0.00000000000E+00 -0.10000000000E+04  0.10000000000E+04  0.00000000000E+00 0.  1.
    9000005    2    1    2  501    0  0.99604929068E-03 -0.26583126503E-02 -0.88984021362E+03  0.11101595640E+04  0.66380618531E+03 0.  0.
         13    1    3    3    0    0 -0.19756026634E+03 -0.25295320453E+03 -0.30355739713E+03  0.44177197271E+03  0.00000000000E+00 0.  1.
          3    1    3    3  501    0  0.19756126239E+03  0.25295054621E+03 -0.58628281649E+03  0.66838759125E+03  0.00000000000E+00 0.  1.
         21    1    1    2  502  501 -0.99604929070E-03  0.26583126503E-02  0.18004386828E-01  0.18226812267E-01  0.00000000000E+00 0. -1.
<mgrwt>
<rscale>  1 0.66380619E+03</rscale>
<asrwt>0</asrwt>
<pdfrwt beam="1">  1        1 0.40064736E+00 0.66380619E+03</pdfrwt>
<pdfrwt beam="2">0</pdfrwt>
<totfact> 0.13255523E+00</totfact>
</mgrwt>
</event>
<event>
 6    1  0.2552886E-003  0.6383524E+03  0.7818608E-02  0.9828884E-01
          1   -1    0    0  502    0  0.00000000000E+00  0.00000000000E+00  0.10190350555E+03  0.10190350555E+03  0.00000000000E+00 0.  1.
         13   -1    0    0    0    0 -0.00000000000E+00 -0.00000000000E+00 -0.10000000000E+04  0.10000000000E+04  0.00000000000E+00 0.  1.
    9000005    2    1    2  501    0 -0.36020818903E-02 -0.28682980023E-02 -0.89812636115E+03  0.11018732860E+04  0.63835239310E+03 0.  0.
         13    1    3    3    0    0 -0.81411076982E+02  0.28191667274E+03 -0.23231079663E+03  0.37426338327E+03  0.00000000000E+00 0.  1.
          3    1    3    3  501    0  0.81407474900E+02 -0.28191954104E+03 -0.66581556452E+03  0.72760990272E+03  0.00000000000E+00 0.  1.
         21    1    1    2  502  501  0.36020818904E-02  0.28682980023E-02  0.29866698602E-01  0.30219560102E-01  0.00000000000E+00 0.  1.
<mgrwt>
<rscale>  1 0.63835239E+03</rscale>
<asrwt>0</asrwt>
<pdfrwt beam="1">  1        1 0.37055898E+00 0.63835239E+03</pdfrwt>
<pdfrwt beam="2">0</pdfrwt>
<totfact> 0.18096381E+00</totfact>
</mgrwt>
</event>
<event>
 6    1  0.2552886E-003  0.6617540E+03  0.7818608E-02  0.9784970E-01
          1   -1    0    0  502    0  0.00000000000E+00  0.00000000000E+00  0.10947968569E+03  0.10947968569E+03  0.00000000000E+00 0.  1.
         13   -1    0    0    0    0 -0.00000000000E+00 -0.00000000000E+00 -0.10000000000E+04  0.10000000000E+04  0.00000000000E+00 0.  1.
    9000005    2    1    2  501    0  0.24387364789E-04  0.36409679780E-04 -0.89052041290E+03  0.11094795778E+04  0.66175397826E+03 0.  0.
         13    1    3    3    0    0  0.19760388173E+03 -0.22672743952E+03 -0.21399655264E+03  0.36911671656E+03  0.00000000000E+00 0.  1.
          3    1    3    3  501    0 -0.19760385734E+03  0.22672747593E+03 -0.67652386027E+03  0.74036286123E+03  0.00000000000E+00 0.  1.
         21    1    1    2  502  501 -0.24387364775E-04 -0.36409679788E-04  0.98595850983E-04  0.10789601556E-03  0.00000000000E+00 0. -1.
<mgrwt>
<rscale>  1 0.66175398E+03</rscale>
<asrwt>0</asrwt>
<pdfrwt beam="1">  1        1 0.39810879E+00 0.66175398E+03</pdfrwt>
<pdfrwt beam="2">0</pdfrwt>
<totfact> 0.13610680E+00</totfact>
</mgrwt>
</event>
<event>
 6    1  0.2552886E-003  0.6302081E+03  0.7818608E-02  0.9844643E-01
          3   -1    0    0  502    0  0.00000000000E+00  0.00000000000E+00  0.99363839895E+02  0.99363839895E+02  0.00000000000E+00 0.  1.
         13   -1    0    0    0    0 -0.00000000000E+00 -0.00000000000E+00 -0.10000000000E+04  0.10000000000E+04  0.00000000000E+00 0.  1.
    9000005    2    1    2  501    0 -0.19447548740E-02 -0.81890643881E-03 -0.90070941832E+03  0.10992905513E+04  0.63020810842E+03 0.  0.
         13    1    3    3    0    0 -0.19900557217E+03 -0.94317356307E+02 -0.84347687599E+03  0.87175238559E+03  0.00000000000E+00 0.  1.
          1    1    3    3  501    0  0.19900362741E+03  0.94316537400E+02 -0.57232542327E+02  0.22753816571E+03  0.00000000000E+00 0.  1.
         21    1    1    2  502  501  0.19447548740E-02  0.81890643881E-03  0.73258212912E-01  0.73288596919E-01  0.00000000000E+00 0.  1.
<mgrwt>
<rscale>  1 0.63020811E+03</rscale>
<asrwt>0</asrwt>
<pdfrwt beam="1">  1        3 0.36132382E+00 0.63020811E+03</pdfrwt>
<pdfrwt beam="2">0</pdfrwt>
<totfact> 0.95094857E-02</totfact>
</mgrwt>
</event>
<event>
 6    1  0.2552886E-003  0.6511767E+03  0.7818608E-02  0.9804574E-01
          1   -1    0    0  502    0  0.00000000000E+00  0.00000000000E+00  0.12015199095E+03  0.12015199095E+03  0.00000000000E+00 0.  1.
         13   -1    0    0    0    0 -0.00000000000E+00 -0.00000000000E+00 -0.10000000000E+04  0.10000000000E+04  0.00000000000E+00 0.  1.
    9000005    2    1    2  501    0 -0.38794242225E+01  0.44267245527E+00 -0.89369356368E+03  0.11057663984E+04  0.65116502983E+03 0.  0.
         13    1    3    3    0    0 -0.17816136963E+03  0.23813379205E+03 -0.67853250884E+03  0.74084785355E+03  0.00000000000E+00 0.  1.
          3    1    3    3  501    0  0.17428194541E+03 -0.23769111959E+03 -0.21516105484E+03  0.36491854481E+03  0.00000000000E+00 0.  1.
         21    1    1    2  502  501  0.38794242225E+01 -0.44267245527E+00  0.13845554628E+02  0.14385592589E+02  0.00000000000E+00 0. -1.
<mgrwt>
<rscale>  1 0.65117674E+03</rscale>
<asrwt>0</asrwt>
<pdfrwt beam="1">  1        1 0.43691725E+00 0.65117674E+03</pdfrwt>
<pdfrwt beam="2">0</pdfrwt>
<totfact> 0.91186729E-01</totfact>
</mgrwt>
</event>
<event>
 6    1  0.2552886E-003  0.6590355E+03  0.7818608E-02  0.9789971E-01
          1   -1    0    0  502    0  0.00000000000E+00  0.00000000000E+00  0.10899630521E+03  0.10899630521E+03  0.00000000000E+00 0.  1.
         13   -1    0    0    0    0 -0.00000000000E+00 -0.00000000000E+00 -0.10000000000E+04  0.10000000000E+04  0.00000000000E+00 0.  1.
    9000005    2    1    2  501    0 -0.73551934465E-01 -0.34167037877E-01 -0.89141365874E+03  0.11085783965E+04  0.65903546456E+03 0.  0.
         13    1    3    3    0    0  0.76042516394E+02  0.14455327584E+03 -0.92705826255E+03  0.94133688764E+03  0.00000000000E+00 0.  1.
          1    1    3    3  501    0 -0.76116068329E+02 -0.14458744288E+03  0.35644603812E+02  0.16724150883E+03  0.00000000000E+00 0.  1.
         21    1    1    2  502  501  0.73551934465E-01  0.34167037877E-01  0.40996395095E+00  0.41790873959E+00  0.00000000000E+00 0.  1.
<mgrwt>
<rscale>  1 0.65903547E+03</rscale>
<asrwt>0</asrwt>
<pdfrwt beam="1">  1        1 0.39635104E+00 0.65903547E+03</pdfrwt>
<pdfrwt beam="2">0</pdfrwt>
<totfact> 0.13865203E+00</totfact>
</mgrwt>
</event>
<event>
 6    1  0.2552886E-003  0.6518687E+03  0.7818608E-02  0.9803279E-01
          1   -1    0    0  502    0  0.00000000000E+00  0.00000000000E+00  0.10623948419E+03  0.10623948419E+03  0.00000000000E+00 0.  1.
         13   -1    0    0    0    0 -0.00000000000E+00 -0.00000000000E+00 -0.10000000000E+04  0.10000000000E+04  0.00000000000E+00 0.  1.
    9000005    2    1    2  501    0  0.48848763278E-02 -0.53104144036E-02 -0.89376442415E+03  0.11062312782E+04  0.65186869463E+03 0.  0.
         13    1    3    3    0    0 -0.31015426858E+03 -0.92172722500E+02 -0.38026939568E+03  0.49929579848E+03  0.00000000000E+00 0.  1.
          1    1    3    3  501    0  0.31015915346E+03  0.92167412085E+02 -0.51349502847E+03  0.60693547976E+03  0.00000000000E+00 0.  1.
         21    1    1    2  502  501 -0.48848763279E-02  0.53104144036E-02  0.39083377848E-02  0.82059504091E-02  0.00000000000E+00 0. -1.
<mgrwt>
<rscale>  1 0.65186869E+03</rscale>
<asrwt>0</asrwt>
<pdfrwt beam="1">  1        1 0.38632621E+00 0.65186869E+03</pdfrwt>
<pdfrwt beam="2">0</pdfrwt>
<totfact> 0.15381340E+00</totfact>
</mgrwt>
</event>
<event>
 6    1  0.2552886E-003  0.6582461E+03  0.7818608E-02  0.9791428E-01
          1   -1    0    0  502    0  0.00000000000E+00  0.00000000000E+00  0.10832198974E+03  0.10832198974E+03  0.00000000000E+00 0.  1.
         13   -1    0    0    0    0 -0.00000000000E+00 -0.00000000000E+00 -0.10000000000E+04  0.10000000000E+04  0.00000000000E+00 0.  1.
    9000005    2    1    2  501    0 -0.17337464328E-04 -0.60845596437E-05 -0.89167802800E+03  0.11083219642E+04  0.65824605636E+03 0.  0.
         13    1    3    3    0    0 -0.32248034888E+03  0.21761914918E+02 -0.55037831482E+03  0.63826596790E+03  0.00000000000E+00 0.  1.
          1    1    3    3  501    0  0.32248033155E+03 -0.21761921002E+02 -0.34129971318E+03  0.47005599630E+03  0.00000000000E+00 0.  1.
         21    1    1    2  502  501  0.17337464309E-04  0.60845596442E-05  0.17738153401E-04  0.25539217310E-04  0.00000000000E+00 0. -1.
<mgrwt>
<rscale>  1 0.65824606E+03</rscale>
<asrwt>0</asrwt>
<pdfrwt beam="1">  1        1 0.39389898E+00 0.65824606E+03</pdfrwt>
<pdfrwt beam="2">0</pdfrwt>
<totfact> 0.14219836E+00</totfact>
</mgrwt>
</event>
<event>
 6    1  0.2552886E-003  0.6565342E+03  0.7818608E-02  0.9794595E-01
          1   -1    0    0  502    0  0.00000000000E+00  0.00000000000E+00  0.10775977141E+03  0.10775977141E+03  0.00000000000E+00 0.  1.
         13   -1    0    0    0    0 -0.00000000000E+00 -0.00000000000E+00 -0.10000000000E+04  0.10000000000E+04  0.00000000000E+00 0.  1.
    9000005    2    1    2  501    0 -0.13560758632E-03 -0.15136336265E-03 -0.89224068865E+03  0.11077592685E+04  0.65653419589E+03 0.  0.
         13    1    3    3    0    0 -0.16669981436E+03  0.12025030841E+03 -0.14260408250E+02  0.20603961760E+03  0.00000000000E+00 0.  1.
          1    1    3    3  501    0  0.16669967875E+03 -0.12025045977E+03 -0.87798028040E+03  0.90171965086E+03  0.00000000000E+00 0.  1.
         21    1    1    2  502  501  0.13560758630E-03  0.15136336264E-03  0.46005925574E-03  0.50294612416E-03  0.00000000000E+00 0. -1.
<mgrwt>
<rscale>  1 0.65653420E+03</rscale>
<asrwt>0</asrwt>
<pdfrwt beam="1">  1        1 0.39185454E+00 0.65653420E+03</pdfrwt>
<pdfrwt beam="2">0</pdfrwt>
<totfact> 0.14524910E+00</totfact>
</mgrwt>
</event>
<event>
 6    1  0.2552886E-003  0.6581471E+03  0.7818608E-02  0.9791611E-01
          1   -1    0    0  502    0  0.00000000000E+00  0.00000000000E+00  0.10852364760E+03  0.10852364760E+03  0.00000000000E+00 0.  1.
         13   -1    0    0    0    0 -0.00000000000E+00 -0.00000000000E+00 -0.10000000000E+04  0.10000000000E+04  0.00000000000E+00 0.  1.
    9000005    2    1    2  501    0 -0.27862684406E-01  0.72123625140E-02 -0.89170960287E+03  0.11082886282E+04  0.65814714666E+03 0.  0.
         13    1    3    3    0    0 -0.21992270545E+03  0.11441242900E+03 -0.81418151734E+02  0.26093124710E+03  0.00000000000E+00 0.  1.
          1    1    3    3  501    0  0.21989484277E+03 -0.11440521663E+03 -0.81029145114E+03  0.84735738107E+03  0.00000000000E+00 0.  1.
         21    1    1    2  502  501  0.27862684406E-01 -0.72123625140E-02  0.23325047269E+00  0.23501942550E+00  0.00000000000E+00 0. -1.
<mgrwt>
<rscale>  1 0.65814715E+03</rscale>
<asrwt>0</asrwt>
<pdfrwt beam="1">  1        1 0.39463228E+00 0.65814715E+03</pdfrwt>
<pdfrwt beam="2">0</pdfrwt>
<totfact> 0.14113770E+00</totfact>
</mgrwt>
</event>
<event>
 6    1  0.2552886E-003  0.6506035E+03  0.7818608E-02  0.9805647E-01
          1   -1    0    0  502    0  0.00000000000E+00  0.00000000000E+00  0.10582183474E+03  0.10582183474E+03  0.00000000000E+00 0.  1.
         13   -1    0    0    0    0 -0.00000000000E+00 -0.00000000000E+00 -0.10000000000E+04  0.10000000000E+04  0.00000000000E+00 0.  1.
    9000005    2    1    2  501    0 -0.11362657840E-02  0.18231344802E-03 -0.89417805571E+03  0.11058206787E+04  0.65060354918E+03 0.  0.
         13    1    3    3    0    0  0.16987705557E+03  0.24778442872E+03 -0.65914611827E+03  0.72438176561E+03  0.00000000000E+00 0.  1.
          1    1    3    3  501    0 -0.16987819184E+03 -0.24778424640E+03 -0.23503193745E+03  0.38143891313E+03  0.00000000000E+00 0.  1.
         21    1    1    2  502  501  0.11362657840E-02 -0.18231344802E-03 -0.10954547038E-03  0.11560010101E-02  0.00000000000E+00 0. -1.
<mgrwt>
<rscale>  1 0.65060355E+03</rscale>
<asrwt>0</asrwt>
<pdfrwt beam="1">  1        1 0.38480748E+00 0.65060355E+03</pdfrwt>
<pdfrwt beam="2">0</pdfrwt>
<totfact> 0.15624832E+00</totfact>
</mgrwt>
</event>
<event>
 6    1  0.2552886E-003  0.6308579E+03  0.7818608E-02  0.9843376E-01
          1   -1    0    0  502    0  0.00000000000E+00  0.00000000000E+00  0.99498084369E+02  0.99498084369E+02  0.00000000000E+00 0.  1.
         13   -1    0    0    0    0 -0.00000000000E+00 -0.00000000000E+00 -0.10000000000E+04  0.10000000000E+04  0.00000000000E+00 0.  1.
    9000005    2    1    2  501    0 -0.70449864296E-04  0.58262827025E-04 -0.90050457467E+03  0.10994954238E+04  0.63085790624E+03 0.  0.
         13    1    3    3    0    0  0.15542082113E+03 -0.14965583226E+03 -0.49232494814E+02  0.22130598346E+03  0.00000000000E+00 0.  1.
          1    1    3    3  501    0 -0.15542089158E+03  0.14965589052E+03 -0.85127207986E+03  0.87818944030E+03  0.00000000000E+00 0.  1.
         21    1    1    2  502  501  0.70449864291E-04 -0.58262827010E-04  0.26590401489E-02  0.26606112557E-02  0.00000000000E+00 0. -1.
<mgrwt>
<rscale>  1 0.63085791E+03</rscale>
<asrwt>0</asrwt>
<pdfrwt beam="1">  1        1 0.36181198E+00 0.63085791E+03</pdfrwt>
<pdfrwt beam="2">0</pdfrwt>
<totfact> 0.19794061E+00</totfact>
</mgrwt>
</event>
<event>
 6    1  0.2552886E-003  0.6568072E+03  0.7818608E-02  0.9794089E-01
          1   -1    0    0  502    0  0.00000000000E+00  0.00000000000E+00  0.10798503485E+03  0.10798503485E+03  0.00000000000E+00 0.  1.
         13   -1    0    0    0    0 -0.00000000000E+00 -0.00000000000E+00 -0.10000000000E+04  0.10000000000E+04  0.00000000000E+00 0.  1.
    9000005    2    1    2  501    0 -0.83823010788E-01  0.32512097254E-02 -0.89213662312E+03  0.11078372596E+04  0.65680715007E+03 0.  0.
         13    1    3    3    0    0  0.22243961098E+03 -0.24047515804E+03 -0.40749900249E+03  0.52284139010E+03  0.00000000000E+00 0.  1.
          3    1    3    3  501    0 -0.22252343399E+03  0.24047840925E+03 -0.48463762063E+03  0.58499586949E+03  0.00000000000E+00 0.  1.
         21    1    1    2  502  501  0.83823010788E-01 -0.32512097254E-02  0.12165797030E+00  0.14777526599E+00  0.00000000000E+00 0. -1.
<mgrwt>
<rscale>  1 0.65680716E+03</rscale>
<asrwt>0</asrwt>
<pdfrwt beam="1">  1        1 0.39267368E+00 0.65680716E+03</pdfrwt>
<pdfrwt beam="2">0</pdfrwt>
<totfact> 0.14403044E+00</totfact>
</mgrwt>
</event>
<event>
 6    1  0.2552886E-003  0.6508068E+03  0.7818608E-02  0.9805266E-01
          3   -1    0    0  502    0  0.00000000000E+00  0.00000000000E+00  0.10603986009E+03  0.10603986009E+03  0.00000000000E+00 0.  1.
         13   -1    0    0    0    0 -0.00000000000E+00 -0.00000000000E+00 -0.10000000000E+04  0.10000000000E+04  0.00000000000E+00 0.  1.
    9000005    2    1    2  501    0  0.32360893136E-01 -0.91927423034E-01 -0.89409520352E+03  0.11058733066E+04  0.65080682837E+03 0.  0.
         13    1    3    3    0    0  0.18528404815E+03  0.24782533317E+03 -0.27604672169E+03  0.41466777885E+03  0.00000000000E+00 0.  1.
          1    1    3    3  501    0 -0.18525168726E+03 -0.24791726060E+03 -0.61804848183E+03  0.69120552777E+03  0.00000000000E+00 0.  1.
         21    1    1    2  502  501 -0.32360893136E-01  0.91927423034E-01  0.13506360983E+00  0.16655346652E+00  0.00000000000E+00 0. -1.
<mgrwt>
<rscale>  1 0.65080684E+03</rscale>
<asrwt>0</asrwt>
<pdfrwt beam="1">  1        3 0.38560030E+00 0.65080684E+03</pdfrwt>
<pdfrwt beam="2">0</pdfrwt>
<totfact> 0.70504642E-02</totfact>
</mgrwt>
</event>
<event>
 6    1  0.2552886E-003  0.6649892E+03  0.7818608E-02  0.9779053E-01
          1   -1    0    0  502    0  0.00000000000E+00  0.00000000000E+00  0.11055938931E+03  0.11055938931E+03  0.00000000000E+00 0.  1.
         13   -1    0    0    0    0 -0.00000000000E+00 -0.00000000000E+00 -0.10000000000E+04  0.10000000000E+04  0.00000000000E+00 0.  1.
    9000005    2    1    2  501    0  0.96707954099E-02 -0.43212341490E-02 -0.88944233199E+03  0.11105486580E+04  0.66498921783E+03 0.  0.
         13    1    3    3    0    0 -0.31843790892E+03 -0.61653767412E+02 -0.56682121399E+03  0.65306215439E+03  0.00000000000E+00 0.  1.
          1    1    3    3  501    0  0.31844757971E+03  0.61649446178E+02 -0.32262111800E+03  0.45748650365E+03  0.00000000000E+00 0.  1.
         21    1    1    2  502  501 -0.96707954099E-02  0.43212341490E-02  0.17212989637E-02  0.10731272923E-01  0.00000000000E+00 0. -1.
<mgrwt>
<rscale>  1 0.66498922E+03</rscale>
<asrwt>0</asrwt>
<pdfrwt beam="1">  1        1 0.40203499E+00 0.66498922E+03</pdfrwt>
<pdfrwt beam="2">0</pdfrwt>
<totfact> 0.13064955E+00</totfact>
</mgrwt>
</event>
<event>
 6    1  0.2552886E-003  0.6460805E+03  0.7818608E-02  0.9814162E-01
          1   -1    0    0  502    0  0.00000000000E+00  0.00000000000E+00  0.10435558764E+03  0.10435558764E+03  0.00000000000E+00 0.  1.
         13   -1    0    0    0    0 -0.00000000000E+00 -0.00000000000E+00 -0.10000000000E+04  0.10000000000E+04  0.00000000000E+00 0.  1.
    9000005    2    1    2  501    0 -0.60957518649E-04  0.18834412083E-03 -0.89564499363E+03  0.11043549736E+04  0.64608045403E+03 0.  0.
         13    1    3    3    0    0 -0.40147151897E+02  0.29215832005E+03 -0.67321099808E+03  0.73497028900E+03  0.00000000000E+00 0.  1.
          1    1    3    3  501    0  0.40147090940E+02 -0.29215813171E+03 -0.22243399555E+03  0.36938468459E+03  0.00000000000E+00 0.  1.
         21    1    1    2  502  501  0.60957518653E-04 -0.18834412082E-03  0.58126527349E-03  0.61405101180E-03  0.00000000000E+00 0.  1.
<mgrwt>
<rscale>  1 0.64608045E+03</rscale>
<asrwt>0</asrwt>
<pdfrwt beam="1">  1        1 0.37947566E+00 0.64608045E+03</pdfrwt>
<pdfrwt beam="2">0</pdfrwt>
<totfact> 0.16509250E+00</totfact>
</mgrwt>
</event>
<event>
 6    1  0.2552886E-003  0.6098229E+03  0.7818608E-02  0.9885234E-01
          1   -1    0    0  502    0  0.00000000000E+00  0.00000000000E+00  0.93293426367E+02  0.93293426367E+02  0.00000000000E+00 0.  1.
         13   -1    0    0    0    0 -0.00000000000E+00 -0.00000000000E+00 -0.10000000000E+04  0.10000000000E+04  0.00000000000E+00 0.  1.
    9000005    2    1    2  501    0  0.66007443019E+00 -0.73774708818E+00 -0.90579882085E+03  0.10919503016E+04  0.60982208663E+03 0.  0.
         13    1    3    3    0    0  0.24058625336E+03  0.15199030838E+03 -0.64944334980E+03  0.70905533193E+03  0.00000000000E+00 0.  1.
          3    1    3    3  501    0 -0.23992617893E+03 -0.15272805546E+03 -0.25635547106E+03  0.38289496967E+03  0.00000000000E+00 0.  1.
         21    1    1    2  502  501 -0.66007443019E+00  0.73774708818E+00 -0.90775277959E+00  0.13431247628E+01  0.00000000000E+00 0. -1.
<mgrwt>
<rscale>  1 0.60982289E+03</rscale>
<asrwt>0</asrwt>
<pdfrwt beam="1">  1        1 0.33924954E+00 0.60982289E+03</pdfrwt>
<pdfrwt beam="2">0</pdfrwt>
<totfact> 0.24917765E+00</totfact>
</mgrwt>
</event>
<event>
 6    1  0.2552886E-003  0.6478377E+03  0.7818608E-02  0.9810845E-01
          1   -1    0    0  502    0  0.00000000000E+00  0.00000000000E+00  0.10511499971E+03  0.10511499971E+03  0.00000000000E+00 0.  1.
         13   -1    0    0    0    0 -0.00000000000E+00 -0.00000000000E+00 -0.10000000000E+04  0.10000000000E+04  0.00000000000E+00 0.  1.
    9000005    2    1    2  501    0 -0.36971055547E-02  0.21051541580E-01 -0.89507591561E+03  0.11049228917E+04  0.64783771223E+03 0.  0.
         13    1    3    3    0    0  0.14086910418E+03  0.85322376824E+02 -0.92326730894E+03  0.93784142384E+03  0.00000000000E+00 0.  1.
          1    1    3    3  501    0 -0.14087280129E+03 -0.85301325283E+02  0.28191393330E+02  0.16708146784E+03  0.00000000000E+00 0.  1.
         21    1    1    2  502  501  0.36971055547E-02 -0.21051541580E-01  0.19091532711E+00  0.19210803762E+00  0.00000000000E+00 0. -1.
<mgrwt>
<rscale>  1 0.64783771E+03</rscale>
<asrwt>0</asrwt>
<pdfrwt beam="1">  1        1 0.38223717E+00 0.64783771E+03</pdfrwt>
<pdfrwt beam="2">0</pdfrwt>
<totfact> 0.16047133E+00</totfact>
</mgrwt>
</event>
<event>
 6    1  0.2552886E-003  0.6746798E+03  0.7818608E-02  0.9761540E-01
          1   -1    0    0  502    0  0.00000000000E+00  0.00000000000E+00  0.11379972333E+03  0.11379972333E+03  0.00000000000E+00 0.  1.
         13   -1    0    0    0    0 -0.00000000000E+00 -0.00000000000E+00 -0.10000000000E+04  0.10000000000E+04  0.00000000000E+00 0.  1.
    9000005    2    1    2  501    0  0.11941966289E-03 -0.16899771452E-04 -0.88620178452E+03  0.11137982107E+04  0.67467981384E+03 0.  0.
         13    1    3    3    0    0 -0.18563998159E+02  0.21080429548E+03 -0.87679243771E+03  0.90196898608E+03  0.00000000000E+00 0.  1.
          1    1    3    3  501    0  0.18564117578E+02 -0.21080431238E+03 -0.94093468010E+01  0.21182922459E+03  0.00000000000E+00 0.  1.
         21    1    1    2  502  501 -0.11941966289E-03  0.16899771450E-04  0.15078438284E-02  0.15126597994E-02  0.00000000000E+00 0.  1.
<mgrwt>
<rscale>  1 0.67467981E+03</rscale>
<asrwt>0</asrwt>
<pdfrwt beam="1">  1        1 0.41381805E+00 0.67467981E+03</pdfrwt>
<pdfrwt beam="2">0</pdfrwt>
<totfact> 0.11548429E+00</totfact>
</mgrwt>
</event>
<event>
 6    1  0.2552886E-003  0.6510327E+03  0.7818608E-02  0.9804843E-01
          1   -1    0    0  502    0  0.00000000000E+00  0.00000000000E+00  0.10724095336E+03  0.10724095336E+03  0.00000000000E+00 0.  1.
         13   -1    0    0    0    0 -0.00000000000E+00 -0.00000000000E+00 -0.10000000000E+04  0.10000000000E+04  0.00000000000E+00 0.  1.
    9000005    2    1    2  501    0  0.13484822633E+00 -0.53684713779E-01 -0.89403454918E+03  0.11059572194E+04  0.65103269887E+03 0.  0.
         13    1    3    3    0    0 -0.20194428492E+03  0.81312114836E+02 -0.35945178607E+02  0.22064725264E+03  0.00000000000E+00 0.  1.
          1    1    3    3  501    0  0.20207913315E+03 -0.81365799550E+02 -0.85808937057E+03  0.88530996678E+03  0.00000000000E+00 0.  1.
         21    1    1    2  502  501 -0.13484822633E+00  0.53684713779E-01  0.12755025406E+01  0.12837339380E+01  0.00000000000E+00 0. -1.
<mgrwt>
<rscale>  1 0.65103272E+03</rscale>
<asrwt>0</asrwt>
<pdfrwt beam="1">  1        1 0.38996793E+00 0.65103272E+03</pdfrwt>
<pdfrwt beam="2">0</pdfrwt>
<totfact> 0.14822727E+00</totfact>
</mgrwt>
</event>
<event>
 6    1  0.2552886E-003  0.6319833E+03  0.7818608E-02  0.9841186E-01
          1   -1    0    0  502    0  0.00000000000E+00  0.00000000000E+00  0.99851132298E+02  0.99851132298E+02  0.00000000000E+00 0.  1.
         13   -1    0    0    0    0 -0.00000000000E+00 -0.00000000000E+00 -0.10000000000E+04  0.10000000000E+04  0.00000000000E+00 0.  1.
    9000005    2    1    2  501    0  0.18907870532E-03 -0.12970215693E-05 -0.90014924231E+03  0.10998507127E+04  0.63198333187E+03 0.  0.
         13    1    3    3    0    0  0.27320096001E+03  0.60267696129E+02 -0.19442104284E+03  0.34069121158E+03  0.00000000000E+00 0.  1.
          3    1    3    3  501    0 -0.27320077093E+03 -0.60267697426E+02 -0.70572819947E+03  0.75915950110E+03  0.00000000000E+00 0.  1.
         21    1    1    2  502  501 -0.18907870535E-03  0.12970215671E-05  0.37460396502E-03  0.41961955351E-03  0.00000000000E+00 0. -1.
<mgrwt>
<rscale>  1 0.63198333E+03</rscale>
<asrwt>0</asrwt>
<pdfrwt beam="1">  1        1 0.36309579E+00 0.63198333E+03</pdfrwt>
<pdfrwt beam="2">0</pdfrwt>
<totfact> 0.19535578E+00</totfact>
</mgrwt>
</event>
<event>
 6    1  0.2552886E-003  0.5601517E+03  0.7818608E-02  0.9991711E-01
          1   -1    0    0  502    0  0.00000000000E+00  0.00000000000E+00  0.80923805541E+02  0.80923805541E+02  0.00000000000E+00 0.  1.
         13   -1    0    0    0    0 -0.00000000000E+00 -0.00000000000E+00 -0.10000000000E+04  0.10000000000E+04  0.00000000000E+00 0.  1.
    9000005    2    1    2  501    0 -0.21178825857E+01 -0.24927128173E+01 -0.92035226771E+03  0.10774127648E+04  0.56014218741E+03 0.  0.
         13    1    3    3    0    0  0.19128980314E+02  0.15944703166E+02 -0.99620260205E+03  0.99651381114E+03  0.00000000000E+00 0.  1.
          3    1    3    3  501    0 -0.21246862900E+02 -0.18437415984E+02  0.75850334340E+02  0.80898953706E+02  0.00000000000E+00 0.  1.
         21    1    1    2  502  501  0.21178825857E+01  0.24927128173E+01  0.12760732535E+01  0.35110406982E+01  0.00000000000E+00 0. -1.
<mgrwt>
<rscale>  1 0.56015174E+03</rscale>
<asrwt>0</asrwt>
<pdfrwt beam="1">  1        1 0.29426900E+00 0.56015174E+03</pdfrwt>
<pdfrwt beam="2">0</pdfrwt>
<totfact> 0.39335566E+00</totfact>
</mgrwt>
</event>
<event>
 6    1  0.2552886E-003  0.6479277E+03  0.7818608E-02  0.9810676E-01
          1   -1    0    0  502    0  0.00000000000E+00  0.00000000000E+00  0.10495260436E+03  0.10495260436E+03  0.00000000000E+00 0.  1.
         13   -1    0    0    0    0 -0.00000000000E+00 -0.00000000000E+00 -0.10000000000E+04  0.10000000000E+04  0.00000000000E+00 0.  1.
    9000005    2    1    2  501    0  0.14783844712E-04 -0.31616332308E-06 -0.89504743284E+03  0.11049525643E+04  0.64792766756E+03 0.  0.
         13    1    3    3    0    0  0.34644314275E+02 -0.29294020802E+03 -0.21911713072E+03  0.36745953650E+03  0.00000000000E+00 0.  1.
          3    1    3    3  501    0 -0.34644299491E+02  0.29294020771E+03 -0.67593030212E+03  0.73749302783E+03  0.00000000000E+00 0.  1.
         21    1    1    2  502  501 -0.14783844710E-04  0.31616327897E-06  0.37198722802E-04  0.40030076215E-04  0.00000000000E+00 0. -1.
<mgrwt>
<rscale>  1 0.64792767E+03</rscale>
<asrwt>0</asrwt>
<pdfrwt beam="1">  1        1 0.38164664E+00 0.64792767E+03</pdfrwt>
<pdfrwt beam="2">0</pdfrwt>
<totfact> 0.16143522E+00</totfact>
</mgrwt>
</event>
<event>
 6    1  0.2552886E-003  0.6416742E+03  0.7818608E-02  0.9822529E-01
          1   -1    0    0  502    0  0.00000000000E+00  0.00000000000E+00  0.10303573328E+03  0.10303573328E+03  0.00000000000E+00 0.  1.
         13   -1    0    0    0    0 -0.00000000000E+00 -0.00000000000E+00 -0.10000000000E+04  0.10000000000E+04  0.00000000000E+00 0.  1.
    9000005    2    1    2  501    0 -0.65428833097E-02 -0.29973901002E-02 -0.89706341180E+03  0.11029363273E+04  0.64167419874E+03 0.  0.
         13    1    3    3    0    0 -0.91063383527E+02  0.28329140203E+03 -0.24234442024E+03  0.38376734659E+03  0.00000000000E+00 0.  1.
          3    1    3    3  501    0  0.91056840644E+02 -0.28329439942E+03 -0.65471899156E+03  0.71916898075E+03  0.00000000000E+00 0.  1.
         21    1    1    2  502  501  0.65428833097E-02  0.29973901002E-02  0.99145081766E-01  0.99405940003E-01  0.00000000000E+00 0.  1.
<mgrwt>
<rscale>  1 0.64167420E+03</rscale>
<asrwt>0</asrwt>
<pdfrwt beam="1">  1        1 0.37467618E+00 0.64167420E+03</pdfrwt>
<pdfrwt beam="2">0</pdfrwt>
<totfact> 0.17347023E+00</totfact>
</mgrwt>
</event>
<event>
 6    1  0.2552886E-003  0.6503786E+03  0.7818608E-02  0.9806069E-01
          1   -1    0    0  502    0  0.00000000000E+00  0.00000000000E+00  0.10574826470E+03  0.10574826470E+03  0.00000000000E+00 0.  1.
         13   -1    0    0    0    0 -0.00000000000E+00 -0.00000000000E+00 -0.10000000000E+04  0.10000000000E+04  0.00000000000E+00 0.  1.
    9000005    2    1    2  501    0 -0.19239356710E-04 -0.24517506770E-03 -0.89425184348E+03  0.11057479960E+04  0.65037855989E+03 0.  0.
         13    1    3    3    0    0 -0.59137932639E+02  0.15375780797E+03 -0.92380573816E+03  0.93837934784E+03  0.00000000000E+00 0.  1.
          1    1    3    3  501    0  0.59137913399E+02 -0.15375805314E+03  0.29553894688E+02  0.16736864819E+03  0.00000000000E+00 0.  1.
         21    1    1    2  502  501  0.19239356713E-04  0.24517506771E-03  0.10818010980E-03  0.26867062145E-03  0.00000000000E+00 0. -1.
<mgrwt>
<rscale>  1 0.65037856E+03</rscale>
<asrwt>0</asrwt>
<pdfrwt beam="1">  1        1 0.38453996E+00 0.65037856E+03</pdfrwt>
<pdfrwt beam="2">0</pdfrwt>
<totfact> 0.15668107E+00</totfact>
</mgrwt>
</event>
<event>
 6    1  0.2552886E-003  0.6467137E+03  0.7818608E-02  0.9812965E-01
          3   -1    0    0  502    0  0.00000000000E+00  0.00000000000E+00  0.10457106026E+03  0.10457106026E+03  0.00000000000E+00 0.  1.
         13   -1    0    0    0    0 -0.00000000000E+00 -0.00000000000E+00 -0.10000000000E+04  0.10000000000E+04  0.00000000000E+00 0.  1.
    9000005    2    1    2  501    0 -0.10014421878E-02  0.11935455559E-02 -0.89544030208E+03  0.11045595916E+04  0.64671365906E+03 0.  0.
         13    1    3    3    0    0  0.29897071171E+02 -0.21456965113E+03 -0.85771970267E+03  0.88465646349E+03  0.00000000000E+00 0.  1.
          3    1    3    3  501    0 -0.29898072613E+02  0.21457084468E+03 -0.37720599409E+02  0.21990312811E+03  0.00000000000E+00 0.  1.
         21    1    1    2  502  501  0.10014421878E-02 -0.11935455559E-02  0.11362341901E-01  0.11468663869E-01  0.00000000000E+00 0. -1.
<mgrwt>
<rscale>  1 0.64671366E+03</rscale>
<asrwt>0</asrwt>
<pdfrwt beam="1">  1        3 0.38025920E+00 0.64671366E+03</pdfrwt>
<pdfrwt beam="2">0</pdfrwt>
<totfact> 0.75282512E-02</totfact>
</mgrwt>
</event>
<event>
 6    1  0.2552886E-003  0.6177800E+03  0.7818608E-02  0.9869190E-01
          1   -1    0    0  502    0  0.00000000000E+00  0.00000000000E+00  0.95483059149E+02  0.95483059149E+02  0.00000000000E+00 0.  1.
         13   -1    0    0    0    0 -0.00000000000E+00 -0.00000000000E+00 -0.10000000000E+04  0.10000000000E+04  0.00000000000E+00 0.  1.
    9000005    2    1    2  501    0 -0.15772477783E-01 -0.10407317833E-01 -0.90458558011E+03  0.10954118662E+04  0.61777996455E+03 0.  0.
         13    1    3    3    0    0  0.28348093319E+03  0.44691493043E+02 -0.65483353557E+03  0.71495855008E+03  0.00000000000E+00 0.  1.
          1    1    3    3  501    0 -0.28349670567E+03 -0.44701900361E+02 -0.24975204454E+03  0.38045331616E+03  0.00000000000E+00 0.  1.
         21    1    1    2  502  501  0.15772477783E-01  0.10407317833E-01  0.68639254582E-01  0.71192911090E-01  0.00000000000E+00 0. -1.
<mgrwt>
<rscale>  1 0.61777996E+03</rscale>
<asrwt>0</asrwt>
<pdfrwt beam="1">  1        1 0.34721186E+00 0.61777996E+03</pdfrwt>
<pdfrwt beam="2">0</pdfrwt>
<totfact> 0.22976172E+00</totfact>
</mgrwt>
</event>
<event>
 6    1  0.2552886E-003  0.6496123E+03  0.7818608E-02  0.9807507E-01
          1   -1    0    0  502    0  0.00000000000E+00  0.00000000000E+00  0.10550200198E+03  0.10550200198E+03  0.00000000000E+00 0.  1.
         13   -1    0    0    0    0 -0.00000000000E+00 -0.00000000000E+00 -0.10000000000E+04  0.10000000000E+04  0.00000000000E+00 0.  1.
    9000005    2    1    2  501    0  0.20148958129E-04  0.65001716436E-04 -0.89450096714E+03  0.11054990321E+04  0.64961229185E+03 0.  0.
         13    1    3    3    0    0  0.27906035666E+03  0.98735227257E+02 -0.67477904090E+03  0.73685146522E+03  0.00000000000E+00 0.  1.
          1    1    3    3  501    0 -0.27906033651E+03 -0.98735162255E+02 -0.21972192624E+03  0.36864756686E+03  0.00000000000E+00 0.  1.
         21    1    1    2  502  501 -0.20148958122E-04 -0.65001716434E-04  0.29691223194E-02  0.29699021113E-02  0.00000000000E+00 0.  1.
<mgrwt>
<rscale>  1 0.64961229E+03</rscale>
<asrwt>0</asrwt>
<pdfrwt beam="1">  1        1 0.38364445E+00 0.64961229E+03</pdfrwt>
<pdfrwt beam="2">0</pdfrwt>
<totfact> 0.15813833E+00</totfact>
</mgrwt>
</event>
<event>
 6    1  0.2552886E-003  0.6486425E+03  0.7818608E-02  0.9809330E-01
          1   -1    0    0  502    0  0.00000000000E+00  0.00000000000E+00  0.10524966919E+03  0.10524966919E+03  0.00000000000E+00 0.  1.
         13   -1    0    0    0    0 -0.00000000000E+00 -0.00000000000E+00 -0.10000000000E+04  0.10000000000E+04  0.00000000000E+00 0.  1.
    9000005    2    1    2  501    0 -0.10765241190E+00 -0.12503969954E+00 -0.89466961499E+03  0.11050659874E+04  0.64864249725E+03 0.  0.
         13    1    3    3    0    0 -0.14442498909E+03 -0.55728273858E+02  0.38212795672E+02  0.15945041779E+03  0.00000000000E+00 0.  1.
          1    1    3    3  501    0  0.14431733667E+03  0.55603234159E+02 -0.93288241066E+03  0.94561556958E+03  0.00000000000E+00 0.  1.
         21    1    1    2  502  501  0.10765241190E+00  0.12503969954E+00 -0.80715821082E-01  0.18368182278E+00  0.00000000000E+00 0. -1.
<mgrwt>
<rscale>  1 0.64864252E+03</rscale>
<asrwt>0</asrwt>
<pdfrwt beam="1">  1        1 0.38272688E+00 0.64864252E+03</pdfrwt>
<pdfrwt beam="2">0</pdfrwt>
<totfact> 0.15965029E+00</totfact>
</mgrwt>
</event>
<event>
 6    1  0.2552886E-003  0.6322775E+03  0.7818608E-02  0.9840614E-01
          1   -1    0    0  502    0  0.00000000000E+00  0.00000000000E+00  0.11685636843E+03  0.11685636843E+03  0.00000000000E+00 0.  1.
         13   -1    0    0    0    0 -0.00000000000E+00 -0.00000000000E+00 -0.10000000000E+04  0.10000000000E+04  0.00000000000E+00 0.  1.
    9000005    2    1    2  501    0  0.61659321780E+00 -0.48496008867E+00 -0.90004628082E+03  0.10999355255E+04  0.63227702575E+03 0.  0.
         13    1    3    3    0    0  0.20871690047E+03  0.19589752452E+01 -0.86383471712E+03  0.88869398593E+03  0.00000000000E+00 0.  1.
          1    1    3    3  501    0 -0.20810030726E+03 -0.24439353338E+01 -0.36211563698E+02  0.21124153958E+03  0.00000000000E+00 0.  1.
         21    1    1    2  502  501 -0.61659321780E+00  0.48496008867E+00  0.16902649247E+02  0.16920842918E+02  0.00000000000E+00 0. -1.
<mgrwt>
<rscale>  1 0.63227751E+03</rscale>
<asrwt>0</asrwt>
<pdfrwt beam="1">  1        1 0.42493314E+00 0.63227751E+03</pdfrwt>
<pdfrwt beam="2">0</pdfrwt>
<totfact> 0.10375926E+00</totfact>
</mgrwt>
</event>
<event>
 6    1  0.2552886E-003  0.6496242E+03  0.7818608E-02  0.9807485E-01
          1   -1    0    0  502    0  0.00000000000E+00  0.00000000000E+00  0.10551079891E+03  0.10551079891E+03  0.00000000000E+00 0.  1.
         13   -1    0    0    0    0 -0.00000000000E+00 -0.00000000000E+00 -0.10000000000E+04  0.10000000000E+04  0.00000000000E+00 0.  1.
    9000005    2    1    2  501    0  0.26572228606E-04  0.80456700459E-03 -0.89449706536E+03  0.11055028935E+04  0.64962423577E+03 0.  0.
         13    1    3    3    0    0 -0.38406553147E+02  0.31539894432E+03 -0.56205915789E+03  0.64564855330E+03  0.00000000000E+00 0.  1.
          3    1    3    3  501    0  0.38406579719E+02 -0.31539813975E+03 -0.33243790747E+03  0.45985434025E+03  0.00000000000E+00 0.  1.
         21    1    1    2  502  501 -0.26572228600E-04 -0.80456700463E-03  0.78642664248E-02  0.79053602415E-02  0.00000000000E+00 0. -1.
<mgrwt>
<rscale>  1 0.64962424E+03</rscale>
<asrwt>0</asrwt>
<pdfrwt beam="1">  1        1 0.38367644E+00 0.64962424E+03</pdfrwt>
<pdfrwt beam="2">0</pdfrwt>
<totfact> 0.15808650E+00</totfact>
</mgrwt>
</event>
<event>
 6    1  0.2552886E-003  0.6533584E+03  0.7818608E-02  0.9800498E-01
          1   -1    0    0  502    0  0.00000000000E+00  0.00000000000E+00  0.11244417539E+03  0.11244417539E+03  0.00000000000E+00 0.  1.
         13   -1    0    0    0    0 -0.00000000000E+00 -0.00000000000E+00 -0.10000000000E+04  0.10000000000E+04  0.00000000000E+00 0.  1.
    9000005    2    1    2  501    0 -0.10693317156E+00  0.34164739306E-01 -0.89328008513E+03  0.11067188142E+04  0.65335840905E+03 0.  0.
         13    1    3    3    0    0 -0.10407030280E+03 -0.10213517401E+03 -0.94185441325E+03  0.95307500096E+03  0.00000000000E+00 0.  1.
          1    1    3    3  501    0  0.10396336963E+03  0.10216933875E+03  0.48574328118E+02  0.15364381327E+03  0.00000000000E+00 0.  1.
         21    1    1    2  502  501  0.10693317156E+00 -0.34164739306E-01  0.57242605169E+01  0.57253611587E+01  0.00000000000E+00 0. -1.
<mgrwt>
<rscale>  1 0.65335842E+03</rscale>
<asrwt>0</asrwt>
<pdfrwt beam="1">  1        1 0.40888877E+00 0.65335842E+03</pdfrwt>
<pdfrwt beam="2">0</pdfrwt>
<totfact> 0.12201559E+00</totfact>
</mgrwt>
</event>
<event>
 6    1  0.2552886E-003  0.6487230E+03  0.7818608E-02  0.9809178E-01
          1   -1    0    0  502    0  0.00000000000E+00  0.00000000000E+00  0.10580693462E+03  0.10580693462E+03  0.00000000000E+00 0.  1.
         13   -1    0    0    0    0 -0.00000000000E+00 -0.00000000000E+00 -0.10000000000E+04  0.10000000000E+04  0.00000000000E+00 0.  1.
    9000005    2    1    2  501    0 -0.14743202884E+01  0.10517991427E+01 -0.89115066985E+03  0.11022663030E+04  0.64872043780E+03 0.  0.
         13    1    3    3    0    0  0.29149210762E+03  0.14048500507E+03 -0.47036222027E+03  0.57091532097E+03  0.00000000000E+00 0.  1.
          1    1    3    3  501    0 -0.29296642791E+03 -0.13943320592E+03 -0.42078844958E+03  0.53135098202E+03  0.00000000000E+00 0.  1.
         21    1    1    2  502  501  0.14743202884E+01 -0.10517991427E+01 -0.30423955314E+01  0.35406316271E+01  0.00000000000E+00 0.  1.
<mgrwt>
<rscale>  1 0.64872297E+03</rscale>
<asrwt>0</asrwt>
<pdfrwt beam="1">  1        1 0.38475330E+00 0.64872297E+03</pdfrwt>
<pdfrwt beam="2">0</pdfrwt>
<totfact> 0.15638888E+00</totfact>
</mgrwt>
</event>
<event>
 6    1  0.2552886E-003  0.6456665E+03  0.7818608E-02  0.9814945E-01
          1   -1    0    0  502    0  0.00000000000E+00  0.00000000000E+00  0.10468614201E+03  0.10468614201E+03  0.00000000000E+00 0.  1.
         13   -1    0    0    0    0 -0.00000000000E+00 -0.00000000000E+00 -0.10000000000E+04  0.10000000000E+04  0.00000000000E+00 0.  1.
    9000005    2    1    2  501    0  0.15560659071E+00 -0.19414623289E+00 -0.89574165866E+03  0.11041912485E+04  0.64566642494E+03 0.  0.
         13    1    3    3    0    0  0.25091487694E+03 -0.53158660135E+02 -0.78347517601E+03  0.82438914964E+03  0.00000000000E+00 0.  1.
          1    1    3    3  501    0 -0.25075927035E+03  0.52964513902E+02 -0.11226648265E+03  0.27980209886E+03  0.00000000000E+00 0.  1.
         21    1    1    2  502  501 -0.15560659071E+00  0.19414623289E+00  0.42780067137E+00  0.49489350899E+00  0.00000000000E+00 0. -1.
<mgrwt>
<rscale>  1 0.64566647E+03</rscale>
<asrwt>0</asrwt>
<pdfrwt beam="1">  1        1 0.38067768E+00 0.64566647E+03</pdfrwt>
<pdfrwt beam="2">0</pdfrwt>
<totfact> 0.16310104E+00</totfact>
</mgrwt>
</event>
<event>
 6    1  0.2552886E-003  0.6406500E+03  0.7818608E-02  0.9824484E-01
          1   -1    0    0  502    0  0.00000000000E+00  0.00000000000E+00  0.10260852917E+03  0.10260852917E+03  0.00000000000E+00 0.  1.
         13   -1    0    0    0    0 -0.00000000000E+00 -0.00000000000E+00 -0.10000000000E+04  0.10000000000E+04  0.00000000000E+00 0.  1.
    9000005    2    1    2  501    0  0.95906314471E-04 -0.92938832580E-04 -0.89739186640E+03  0.11026081117E+04  0.64065004957E+03 0.  0.
         13    1    3    3    0    0  0.23067881002E+03 -0.22168324073E+03 -0.42137522961E+03  0.52906829119E+03  0.00000000000E+00 0.  1.
          1    1    3    3  501    0 -0.23067871411E+03  0.22168314779E+03 -0.47601663679E+03  0.57353982047E+03  0.00000000000E+00 0.  1.
         21    1    1    2  502  501 -0.95906314482E-04  0.92938832579E-04  0.39557755817E-03  0.41751317618E-03  0.00000000000E+00 0. -1.
<mgrwt>
<rscale>  1 0.64065005E+03</rscale>
<asrwt>0</asrwt>
<pdfrwt beam="1">  1        1 0.37312271E+00 0.64065005E+03</pdfrwt>
<pdfrwt beam="2">0</pdfrwt>
<totfact> 0.17625478E+00</totfact>
</mgrwt>
</event>
<event>
 6    1  0.2552886E-003  0.6490707E+03  0.7818608E-02  0.9808524E-01
          1   -1    0    0  502    0  0.00000000000E+00  0.00000000000E+00  0.10533575566E+03  0.10533575566E+03  0.00000000000E+00 0.  1.
         13   -1    0    0    0    0 -0.00000000000E+00 -0.00000000000E+00 -0.10000000000E+04  0.10000000000E+04  0.00000000000E+00 0.  1.
    9000005    2    1    2  501    0 -0.18700907945E-03 -0.95291878324E-04 -0.89467679216E+03  0.11053232061E+04  0.64907074152E+03 0.  0.
         13    1    3    3    0    0  0.86713660323E+02 -0.30151937945E+03 -0.30598457555E+03  0.43824622708E+03  0.00000000000E+00 0.  1.
          3    1    3    3  501    0 -0.86713847332E+02  0.30151928416E+03 -0.58869221660E+03  0.66707697901E+03  0.00000000000E+00 0.  1.
         21    1    1    2  502  501  0.18700907945E-03  0.95291878317E-04  0.12547815886E-01  0.12549571166E-01  0.00000000000E+00 0. -1.
<mgrwt>
<rscale>  1 0.64907074E+03</rscale>
<asrwt>0</asrwt>
<pdfrwt beam="1">  1        1 0.38303992E+00 0.64907074E+03</pdfrwt>
<pdfrwt beam="2">0</pdfrwt>
<totfact> 0.15913007E+00</totfact>
</mgrwt>
</event>
<event>
 6    1  0.2552886E-003  0.6571434E+03  0.7818608E-02  0.9793467E-01
          1   -1    0    0  502    0  0.00000000000E+00  0.00000000000E+00  0.10795969331E+03  0.10795969331E+03  0.00000000000E+00 0.  1.
         13   -1    0    0    0    0 -0.00000000000E+00 -0.00000000000E+00 -0.10000000000E+04  0.10000000000E+04  0.00000000000E+00 0.  1.
    9000005    2    1    2  501    0  0.79528528261E-05  0.42173815245E-04 -0.89204062047E+03  0.11079593766E+04  0.65714344830E+03 0.  0.
         13    1    3    3    0    0  0.13660635077E+03  0.26593258258E+03 -0.67582700459E+03  0.73900174132E+03  0.00000000000E+00 0.  1.
          3    1    3    3  501    0 -0.13660634282E+03 -0.26593254040E+03 -0.21621361588E+03  0.36895763529E+03  0.00000000000E+00 0.  1.
         21    1    1    2  502  501 -0.79528528405E-05 -0.42173815231E-04  0.31377633769E-03  0.31669775600E-03  0.00000000000E+00 0. -1.
<mgrwt>
<rscale>  1 0.65714345E+03</rscale>
<asrwt>0</asrwt>
<pdfrwt beam="1">  1        1 0.39258153E+00 0.65714345E+03</pdfrwt>
<pdfrwt beam="2">0</pdfrwt>
<totfact> 0.14415722E+00</totfact>
</mgrwt>
</event>
<event>
 6    1  0.2552886E-003  0.6504413E+03  0.7818608E-02  0.9805951E-01
          1   -1    0    0  502    0  0.00000000000E+00  0.00000000000E+00  0.10577518246E+03  0.10577518246E+03  0.00000000000E+00 0.  1.
         13   -1    0    0    0    0 -0.00000000000E+00 -0.00000000000E+00 -0.10000000000E+04  0.10000000000E+04  0.00000000000E+00 0.  1.
    9000005    2    1    2  501    0  0.11173210231E-03  0.85992640712E-02 -0.89422831798E+03  0.11057658974E+04  0.65044133866E+03 0.  0.
         13    1    3    3    0    0 -0.48201252461E+01  0.45960676257E+02  0.10015878380E+03  0.11030593521E+03  0.00000000000E+00 0.  1.
          1    1    3    3  501    0  0.48202369782E+01 -0.45952076993E+02 -0.99438710178E+03  0.99545996216E+03  0.00000000000E+00 0.  1.
         21    1    1    2  502  501 -0.11173210231E-03 -0.85992640712E-02  0.35004394483E-02  0.92850903582E-02  0.00000000000E+00 0. -1.
<mgrwt>
<rscale>  1 0.65044134E+03</rscale>
<asrwt>0</asrwt>
<pdfrwt beam="1">  1        1 0.38463784E+00 0.65044134E+03</pdfrwt>
<pdfrwt beam="2">0</pdfrwt>
<totfact> 0.15652317E+00</totfact>
</mgrwt>
</event>
<event>
 6    1  0.2552886E-003  0.6504853E+03  0.7818608E-02  0.9805869E-01
          1   -1    0    0  502    0  0.00000000000E+00  0.00000000000E+00  0.10578364620E+03  0.10578364620E+03  0.00000000000E+00 0.  1.
         13   -1    0    0    0    0 -0.00000000000E+00 -0.00000000000E+00 -0.10000000000E+04  0.10000000000E+04  0.00000000000E+00 0.  1.
    9000005    2    1    2  501    0 -0.26419963353E-03 -0.16511235750E-03 -0.89421720393E+03  0.11057827408E+04  0.65048525118E+03 0.  0.
         13    1    3    3    0    0 -0.31406173971E+03  0.41830005713E+02 -0.57200849239E+03  0.65389467125E+03  0.00000000000E+00 0.  1.
          3    1    3    3  501    0  0.31406147551E+03 -0.41830170826E+02 -0.32220871154E+03  0.45188806953E+03  0.00000000000E+00 0.  1.
         21    1    1    2  502  501  0.26419963353E-03  0.16511235750E-03  0.85012673691E-03  0.90541648194E-03  0.00000000000E+00 0. -1.
<mgrwt>
<rscale>  1 0.65048525E+03</rscale>
<asrwt>0</asrwt>
<pdfrwt beam="1">  1        1 0.38466862E+00 0.65048525E+03</pdfrwt>
<pdfrwt beam="2">0</pdfrwt>
<totfact> 0.15647285E+00</totfact>
</mgrwt>
</event>
<event>
 6    1  0.2552886E-003  0.6504498E+03  0.7818608E-02  0.9805935E-01
          1   -1    0    0  502    0  0.00000000000E+00  0.00000000000E+00  0.10577629096E+03  0.10577629096E+03  0.00000000000E+00 0.  1.
         13   -1    0    0    0    0 -0.00000000000E+00 -0.00000000000E+00 -0.10000000000E+04  0.10000000000E+04  0.00000000000E+00 0.  1.
    9000005    2    1    2  501    0 -0.52692377128E-04  0.63722473072E-04 -0.89422875777E+03  0.11057712416E+04  0.65044981930E+03 0.  0.
         13    1    3    3    0    0 -0.85802533591E+01 -0.24934389689E+03 -0.92446339171E+02  0.26606827186E+03  0.00000000000E+00 0.  1.
          1    1    3    3  501    0  0.85802006668E+01  0.24934396062E+03 -0.80178241860E+03  0.83970296969E+03  0.00000000000E+00 0.  1.
         21    1    1    2  502  501  0.52692377127E-04 -0.63722473096E-04  0.50487332446E-02  0.50494103038E-02  0.00000000000E+00 0.  1.
<mgrwt>
<rscale>  1 0.65044982E+03</rscale>
<asrwt>0</asrwt>
<pdfrwt beam="1">  1        1 0.38464187E+00 0.65044982E+03</pdfrwt>
<pdfrwt beam="2">0</pdfrwt>
<totfact> 0.15651650E+00</totfact>
</mgrwt>
</event>
<event>
 6    1  0.2552886E-003  0.6448814E+03  0.7818608E-02  0.9816432E-01
          1   -1    0    0  502    0  0.00000000000E+00  0.00000000000E+00  0.10396803421E+03  0.10396803421E+03  0.00000000000E+00 0.  1.
         13   -1    0    0    0    0 -0.00000000000E+00 -0.00000000000E+00 -0.10000000000E+04  0.10000000000E+04  0.00000000000E+00 0.  1.
    9000005    2    1    2  501    0  0.76914284364E-05 -0.47906985117E-05 -0.89603200895E+03  0.11039679901E+04  0.64488135507E+03 0.  0.
         13    1    3    3    0    0  0.34137767339E+02 -0.12076781237E+03  0.60441453528E+02  0.13929616279E+03  0.00000000000E+00 0.  1.
          1    1    3    3  501    0 -0.34137759647E+02  0.12076780758E+03 -0.95647346248E+03  0.96467182731E+03  0.00000000000E+00 0.  1.
         21    1    1    2  502  501 -0.76914284341E-05  0.47906985169E-05  0.43158383330E-04  0.44099375452E-04  0.00000000000E+00 0.  1.
<mgrwt>
<rscale>  1 0.64488136E+03</rscale>
<asrwt>0</asrwt>
<pdfrwt beam="1">  1        1 0.37806638E+00 0.64488136E+03</pdfrwt>
<pdfrwt beam="2">0</pdfrwt>
<totfact> 0.16750870E+00</totfact>
</mgrwt>
</event>
<event>
 6    1  0.2552886E-003  0.6430383E+03  0.7818608E-02  0.9819931E-01
          1   -1    0    0  502    0  0.00000000000E+00  0.00000000000E+00  0.10337461756E+03  0.10337461756E+03  0.00000000000E+00 0.  1.
         13   -1    0    0    0    0 -0.00000000000E+00 -0.00000000000E+00 -0.10000000000E+04  0.10000000000E+04  0.00000000000E+00 0.  1.
    9000005    2    1    2  501    0 -0.77167537711E-05 -0.85409385804E-05 -0.89662543861E+03  0.11033745602E+04  0.64303829044E+03 0.  0.
         13    1    3    3    0    0  0.23295916605E+03 -0.17526400364E+03 -0.21564134963E+03  0.36261361763E+03  0.00000000000E+00 0.  1.
          1    1    3    3  501    0 -0.23295917377E+03  0.17526399510E+03 -0.68098408899E+03  0.74076094259E+03  0.00000000000E+00 0.  1.
         21    1    1    2  502  501  0.77167537579E-05  0.85409385835E-05  0.56170402303E-04  0.57337684077E-04  0.00000000000E+00 0.  1.
<mgrwt>
<rscale>  1 0.64303829E+03</rscale>
<asrwt>0</asrwt>
<pdfrwt beam="1">  1        1 0.37590849E+00 0.64303829E+03</pdfrwt>
<pdfrwt beam="2">0</pdfrwt>
<totfact> 0.17127400E+00</totfact>
</mgrwt>
</event>
<event>
 6    1  0.2552886E-003  0.6532807E+03  0.7818608E-02  0.9800643E-01
          1   -1    0    0  502    0  0.00000000000E+00  0.00000000000E+00  0.12228947467E+03  0.12228947467E+03  0.00000000000E+00 0.  1.
         13   -1    0    0    0    0 -0.00000000000E+00 -0.00000000000E+00 -0.10000000000E+04  0.10000000000E+04  0.00000000000E+00 0.  1.
    9000005    2    1    2  501    0  0.12474713567E+01  0.88445895928E+00 -0.89326457637E+03  0.11066604326E+04  0.65327893829E+03 0.  0.
         13    1    3    3    0    0  0.31678980925E+02 -0.53414730486E+02 -0.98982767254E+03  0.99177392211E+03  0.00000000000E+00 0.  1.
          1    1    3    3  501    0 -0.30431509568E+02  0.54299189445E+02  0.96563096165E+02  0.11488651048E+03  0.00000000000E+00 0.  1.
         21    1    1    2  502  501 -0.12474713567E+01 -0.88445895928E+00  0.15554051039E+02  0.15629042074E+02  0.00000000000E+00 0.  1.
<mgrwt>
<rscale>  1 0.65328073E+03</rscale>
<asrwt>0</asrwt>
<pdfrwt beam="1">  1        1 0.44468994E+00 0.65328073E+03</pdfrwt>
<pdfrwt beam="2">0</pdfrwt>
<totfact> 0.83982998E-01</totfact>
</mgrwt>
</event>
<event>
 6    1  0.2552886E-003  0.6354844E+03  0.7818608E-02  0.9834404E-01
          1   -1    0    0  502    0  0.00000000000E+00  0.00000000000E+00  0.10096352544E+03  0.10096352544E+03  0.00000000000E+00 0.  1.
         13   -1    0    0    0    0 -0.00000000000E+00 -0.00000000000E+00 -0.10000000000E+04  0.10000000000E+04  0.00000000000E+00 0.  1.
    9000005    2    1    2  501    0  0.70146572227E-04  0.19498740921E-03 -0.89903987971E+03  0.11009601140E+04  0.63548443514E+03 0.  0.
         13    1    3    3    0    0  0.43410811207E+02  0.21770547404E+02  0.94492445669E+02  0.10624159991E+03  0.00000000000E+00 0.  1.
          3    1    3    3  501    0 -0.43410741060E+02 -0.21770352416E+02 -0.99353232538E+03  0.99471851408E+03  0.00000000000E+00 0.  1.
         21    1    1    2  502  501 -0.70146572225E-04 -0.19498740921E-03  0.34051439179E-02  0.34114433504E-02  0.00000000000E+00 0. -1.
<mgrwt>
<rscale>  1 0.63548444E+03</rscale>
<asrwt>0</asrwt>
<pdfrwt beam="1">  1        1 0.36714087E+00 0.63548444E+03</pdfrwt>
<pdfrwt beam="2">0</pdfrwt>
<totfact> 0.18742288E+00</totfact>
</mgrwt>
</event>
<event>
 6    1  0.2552886E-003  0.6576052E+03  0.7818608E-02  0.9792612E-01
          1   -1    0    0  502    0  0.00000000000E+00  0.00000000000E+00  0.10812506130E+03  0.10812506130E+03  0.00000000000E+00 0.  1.
         13   -1    0    0    0    0 -0.00000000000E+00 -0.00000000000E+00 -0.10000000000E+04  0.10000000000E+04  0.00000000000E+00 0.  1.
    9000005    2    1    2  501    0 -0.31842948288E-01  0.15539062339E-01 -0.89185647396E+03  0.11080851066E+04  0.65760522501E+03 0.  0.
         13    1    3    3    0    0 -0.83755251729E+02 -0.15538101547E+03  0.21506242187E+02  0.17782216007E+03  0.00000000000E+00 0.  1.
          1    1    3    3  501    0  0.83723408781E+02  0.15539655453E+03 -0.91336271615E+03  0.93026294648E+03  0.00000000000E+00 0.  1.
         21    1    1    2  502  501  0.31842948288E-01 -0.15539062339E-01 -0.18464733455E-01  0.39954751853E-01  0.00000000000E+00 0. -1.
<mgrwt>
<rscale>  1 0.65760523E+03</rscale>
<asrwt>0</asrwt>
<pdfrwt beam="1">  1        1 0.39318287E+00 0.65760523E+03</pdfrwt>
<pdfrwt beam="2">0</pdfrwt>
<totfact> 0.14326107E+00</totfact>
</mgrwt>
</event>
<event>
 6    1  0.2552886E-003  0.7016998E+03  0.7818608E-02  0.9714330E-01
          1   -1    0    0  502    0  0.00000000000E+00  0.00000000000E+00  0.12666470431E+03  0.12666470431E+03  0.00000000000E+00 0.  1.
         13   -1    0    0    0    0 -0.00000000000E+00 -0.00000000000E+00 -0.10000000000E+04  0.10000000000E+04  0.00000000000E+00 0.  1.
    9000005    2    1    2  501    0  0.11979262195E+01  0.11004500366E+00 -0.87679011699E+03  0.11230064360E+04  0.70169872366E+03 0.  0.
         13    1    3    3    0    0 -0.57827826316E+02 -0.91009478251E+02 -0.97238850614E+03  0.97834870547E+03  0.00000000000E+00 0.  1.
          1    1    3    3  501    0  0.59025752536E+02  0.91119523255E+02  0.95598389144E+02  0.14465773048E+03  0.00000000000E+00 0.  1.
         21    1    1    2  502  501 -0.11979262195E+01 -0.11004500366E+00  0.34548213079E+01  0.36582683608E+01  0.00000000000E+00 0. -1.
<mgrwt>
<rscale>  1 0.70169975E+03</rscale>
<asrwt>0</asrwt>
<pdfrwt beam="1">  1        1 0.46059990E+00 0.70169975E+03</pdfrwt>
<pdfrwt beam="2">0</pdfrwt>
<totfact> 0.70218856E-01</totfact>
</mgrwt>
</event>
<event>
 6    1  0.2552886E-003  0.5806851E+03  0.7818608E-02  0.9946309E-01
          1   -1    0    0  502    0  0.00000000000E+00  0.00000000000E+00  0.84309181530E+02  0.84309181530E+02  0.00000000000E+00 0.  1.
         13   -1    0    0    0    0 -0.00000000000E+00 -0.00000000000E+00 -0.10000000000E+04  0.10000000000E+04  0.00000000000E+00 0.  1.
    9000005    2    1    2  501    0 -0.17446011480E-01 -0.31085025512E-01 -0.91562965631E+03  0.10842383899E+04  0.58068512758E+03 0.  0.
         13    1    3    3    0    0 -0.28765030118E+03  0.32597216728E+02 -0.49947386235E+03  0.57730357133E+03  0.00000000000E+00 0.  1.
          1    1    3    3  501    0  0.28763285517E+03 -0.32628301754E+02 -0.41615579396E+03  0.50693481858E+03  0.00000000000E+00 0.  1.
         21    1    1    2  502  501  0.17446011480E-01  0.31085025512E-01 -0.61162163111E-01  0.70791611961E-01  0.00000000000E+00 0.  1.
<mgrwt>
<rscale>  1 0.58068513E+03</rscale>
<asrwt>0</asrwt>
<pdfrwt beam="1">  1        1 0.30657949E+00 0.58068513E+03</pdfrwt>
<pdfrwt beam="2">0</pdfrwt>
<totfact> 0.34682199E+00</totfact>
</mgrwt>
</event>
<event>
 6    1  0.2552886E-003  0.6546517E+03  0.7818608E-02  0.9798090E-01
          1   -1    0    0  502    0  0.00000000000E+00  0.00000000000E+00  0.10754344739E+03  0.10754344739E+03  0.00000000000E+00 0.  1.
         13   -1    0    0    0    0 -0.00000000000E+00 -0.00000000000E+00 -0.10000000000E+04  0.10000000000E+04  0.00000000000E+00 0.  1.
    9000005    2    1    2  501    0  0.33885394884E-02  0.80804539904E-02 -0.89285773835E+03  0.11071421660E+04  0.65465168959E+03 0.  0.
         13    1    3    3    0    0  0.14753858434E+03 -0.58306839880E+02 -0.93063874408E+03  0.94406344778E+03  0.00000000000E+00 0.  1.
          1    1    3    3  501    0 -0.14753519581E+03  0.58314920334E+02  0.37781005737E+02  0.16307871820E+03  0.00000000000E+00 0.  1.
         21    1    1    2  502  501 -0.33885394884E-02 -0.80804539904E-02  0.40118573810E+00  0.40128141297E+00  0.00000000000E+00 0. -1.
<mgrwt>
<rscale>  1 0.65465169E+03</rscale>
<asrwt>0</asrwt>
<pdfrwt beam="1">  1        1 0.39106791E+00 0.65465169E+03</pdfrwt>
<pdfrwt beam="2">0</pdfrwt>
<totfact> 0.14647265E+00</totfact>
</mgrwt>
</event>
<event>
 6    1  0.2552886E-003  0.6330569E+03  0.7818608E-02  0.9839102E-01
          1   -1    0    0  502    0  0.00000000000E+00  0.00000000000E+00  0.10049255852E+03  0.10049255852E+03  0.00000000000E+00 0.  1.
         13   -1    0    0    0    0 -0.00000000000E+00 -0.00000000000E+00 -0.10000000000E+04  0.10000000000E+04  0.00000000000E+00 0.  1.
    9000005    2    1    2  501    0  0.14580678513E+00 -0.44561659275E-01 -0.89978845998E+03  0.11001728450E+04  0.63305686384E+03 0.  0.
         13    1    3    3    0    0 -0.16206500808E+02  0.49800999739E+02 -0.99237576843E+03  0.99375673885E+03  0.00000000000E+00 0.  1.
          1    1    3    3  501    0  0.16352307593E+02 -0.49845561399E+02  0.92587308454E+02  0.10641610612E+03  0.00000000000E+00 0.  1.
         21    1    1    2  502  501 -0.14580678513E+00  0.44561659275E-01  0.28101849766E+00  0.31971355319E+00  0.00000000000E+00 0. -1.
<mgrwt>
<rscale>  1 0.63305688E+03</rscale>
<asrwt>0</asrwt>
<pdfrwt beam="1">  1        1 0.36542826E+00 0.63305688E+03</pdfrwt>
<pdfrwt beam="2">0</pdfrwt>
<totfact> 0.19077582E+00</totfact>
</mgrwt>
</event>
<event>
 6    1  0.2552886E-003  0.6428792E+03  0.7818608E-02  0.9820233E-01
          1   -1    0    0  502    0  0.00000000000E+00  0.00000000000E+00  0.10332354760E+03  0.10332354760E+03  0.00000000000E+00 0.  1.
         13   -1    0    0    0    0 -0.00000000000E+00 -0.00000000000E+00 -0.10000000000E+04  0.10000000000E+04  0.00000000000E+00 0.  1.
    9000005    2    1    2  501    0 -0.68884859672E-04 -0.10829948275E-03 -0.89667653707E+03  0.11033233938E+04  0.64287922603E+03 0.  0.
         13    1    3    3    0    0  0.27053917078E+03 -0.17305881660E+03 -0.47153127825E+03  0.57051077404E+03  0.00000000000E+00 0.  1.
          3    1    3    3  501    0 -0.27053923967E+03  0.17305870830E+03 -0.42514525882E+03  0.53281261980E+03  0.00000000000E+00 0.  1.
         21    1    1    2  502  501  0.68884859653E-04  0.10829948277E-03  0.84666140907E-04  0.15376038916E-03  0.00000000000E+00 0.  1.
<mgrwt>
<rscale>  1 0.64287923E+03</rscale>
<asrwt>0</asrwt>
<pdfrwt beam="1">  1        1 0.37572278E+00 0.64287923E+03</pdfrwt>
<pdfrwt beam="2">0</pdfrwt>
<totfact> 0.17160180E+00</totfact>
</mgrwt>
</event>
<event>
 6    1  0.2552886E-003  0.6552191E+03  0.7818608E-02  0.9797035E-01
          1   -1    0    0  502    0  0.00000000000E+00  0.00000000000E+00  0.10732856087E+03  0.10732856087E+03  0.00000000000E+00 0.  1.
         13   -1    0    0    0    0 -0.00000000000E+00 -0.00000000000E+00 -0.10000000000E+04  0.10000000000E+04  0.00000000000E+00 0.  1.
    9000005    2    1    2  501    0 -0.25326888817E-04  0.12923419774E-05 -0.89267197781E+03  0.11073280216E+04  0.65521911406E+03 0.  0.
         13    1    3    3    0    0 -0.30868985912E+03  0.63004654996E+02 -0.29452614923E+03  0.43128258515E+03  0.00000000000E+00 0.  1.
          1    1    3    3  501    0  0.30868983379E+03 -0.63004653704E+02 -0.59814582858E+03  0.67604543644E+03  0.00000000000E+00 0.  1.
         21    1    1    2  502  501  0.25326888818E-04 -0.12923419759E-05  0.53868399819E-03  0.53928060539E-03  0.00000000000E+00 0. -1.
<mgrwt>
<rscale>  1 0.65521911E+03</rscale>
<asrwt>0</asrwt>
<pdfrwt beam="1">  1        1 0.39028650E+00 0.65521911E+03</pdfrwt>
<pdfrwt beam="2">0</pdfrwt>
<totfact> 0.14763093E+00</totfact>
</mgrwt>
</event>
<event>
 6    1  0.2552886E-003  0.5714544E+03  0.7818608E-02  0.9966465E-01
          1   -1    0    0  502    0  0.00000000000E+00  0.00000000000E+00  0.81642070648E+02  0.81642070648E+02  0.00000000000E+00 0.  1.
         13   -1    0    0    0    0 -0.00000000000E+00 -0.00000000000E+00 -0.10000000000E+04  0.10000000000E+04  0.00000000000E+00 0.  1.
    9000005    2    1    2  501    0 -0.56282995587E-04  0.23049639509E-04 -0.91835995769E+03  0.10816400414E+04  0.57145443147E+03 0.  0.
         13    1    3    3    0    0  0.19693396042E+03  0.20294184356E+03 -0.38179172132E+03  0.47511398117E+03  0.00000000000E+00 0.  1.
          1    1    3    3  501    0 -0.19693401670E+03 -0.20294182051E+03 -0.53656823638E+03  0.60652606023E+03  0.00000000000E+00 0.  1.
         21    1    1    2  502  501  0.56282995582E-04 -0.23049639525E-04  0.20283426899E-02  0.20292543284E-02  0.00000000000E+00 0. -1.
<mgrwt>
<rscale>  1 0.57145443E+03</rscale>
<asrwt>0</asrwt>
<pdfrwt beam="1">  1        1 0.29688088E+00 0.57145443E+03</pdfrwt>
<pdfrwt beam="2">0</pdfrwt>
<totfact> 0.38252167E+00</totfact>
</mgrwt>
</event>
<event>
 6    1  0.2552886E-003  0.6489672E+03  0.7818608E-02  0.9808719E-01
          1   -1    0    0  502    0  0.00000000000E+00  0.00000000000E+00  0.10658623143E+03  0.10658623143E+03  0.00000000000E+00 0.  1.
         13   -1    0    0    0    0 -0.00000000000E+00 -0.00000000000E+00 -0.10000000000E+04  0.10000000000E+04  0.00000000000E+00 0.  1.
    9000005    2    1    2  501    0 -0.19310922623E-01 -0.51005231032E-02 -0.89471029582E+03  0.11052895503E+04  0.64896723820E+03 0.  0.
         13    1    3    3    0    0 -0.26044493951E+03  0.72955487872E+02 -0.14202931481E+03  0.30549369223E+03  0.00000000000E+00 0.  1.
          3    1    3    3  501    0  0.26042562859E+03 -0.72960588395E+02 -0.75268098101E+03  0.79979585812E+03  0.00000000000E+00 0.  1.
         21    1    1    2  502  501  0.19310922623E-01  0.51005231032E-02  0.12965272452E+01  0.12966810805E+01  0.00000000000E+00 0. -1.
<mgrwt>
<rscale>  1 0.64896724E+03</rscale>
<asrwt>0</asrwt>
<pdfrwt beam="1">  1        1 0.38758711E+00 0.64896724E+03</pdfrwt>
<pdfrwt beam="2">0</pdfrwt>
<totfact> 0.15193059E+00</totfact>
</mgrwt>
</event>
<event>
 6    1  0.2552886E-003  0.6431155E+03  0.7818608E-02  0.9819784E-01
          1   -1    0    0  502    0  0.00000000000E+00  0.00000000000E+00  0.10349924262E+03  0.10349924262E+03  0.00000000000E+00 0.  1.
         13   -1    0    0    0    0 -0.00000000000E+00 -0.00000000000E+00 -0.10000000000E+04  0.10000000000E+04  0.00000000000E+00 0.  1.
    9000005    2    1    2  501    0 -0.32400191042E-01 -0.12943256867E-01 -0.89659724144E+03  0.11033966440E+04  0.64311549464E+03 0.  0.
         13    1    3    3    0    0 -0.23170050189E+03  0.20143461289E+03 -0.28425283719E+03  0.41840255890E+03  0.00000000000E+00 0.  1.
          1    1    3    3  501    0  0.23166810170E+03 -0.20144755614E+03 -0.61234440425E+03  0.68499408511E+03  0.00000000000E+00 0.  1.
         21    1    1    2  502  501  0.32400191042E-01  0.12943256867E-01  0.96484055225E-01  0.10259860228E+00  0.00000000000E+00 0. -1.
<mgrwt>
<rscale>  1 0.64311550E+03</rscale>
<asrwt>0</asrwt>
<pdfrwt beam="1">  1        1 0.37636168E+00 0.64311550E+03</pdfrwt>
<pdfrwt beam="2">0</pdfrwt>
<totfact> 0.17048628E+00</totfact>
</mgrwt>
</event>
<event>
 6    1  0.2552886E-003  0.6482513E+03  0.7818608E-02  0.9810066E-01
          1   -1    0    0  502    0  0.00000000000E+00  0.00000000000E+00  0.10511182717E+03  0.10511182717E+03  0.00000000000E+00 0.  1.
         13   -1    0    0    0    0 -0.00000000000E+00 -0.00000000000E+00 -0.10000000000E+04  0.10000000000E+04  0.00000000000E+00 0.  1.
    9000005    2    1    2  501    0 -0.12982714744E-01  0.23540967914E-01 -0.89493887882E+03  0.11050544353E+04  0.64825126877E+03 0.  0.
         13    1    3    3    0    0  0.18983037320E+03 -0.24694792844E+03 -0.29469303925E+03  0.42879230093E+03  0.00000000000E+00 0.  1.
          1    1    3    3  501    0 -0.18984335591E+03  0.24697146941E+03 -0.60024583957E+03  0.67626213439E+03  0.00000000000E+00 0.  1.
         21    1    1    2  502  501  0.12982714744E-01 -0.23540967914E-01  0.50705984866E-01  0.57391854419E-01  0.00000000000E+00 0. -1.
<mgrwt>
<rscale>  1 0.64825127E+03</rscale>
<asrwt>0</asrwt>
<pdfrwt beam="1">  1        1 0.38222563E+00 0.64825127E+03</pdfrwt>
<pdfrwt beam="2">0</pdfrwt>
<totfact> 0.16047794E+00</totfact>
</mgrwt>
</event>
<event>
 6    1  0.2552886E-003  0.6215821E+03  0.7818608E-02  0.9861615E-01
          1   -1    0    0  502    0  0.00000000000E+00  0.00000000000E+00  0.96591108853E+02  0.96591108853E+02  0.00000000000E+00 0.  1.
         13   -1    0    0    0    0 -0.00000000000E+00 -0.00000000000E+00 -0.10000000000E+04  0.10000000000E+04  0.00000000000E+00 0.  1.
    9000005    2    1    2  501    0  0.30780333802E-05  0.10822327255E-04 -0.90340893621E+03  0.10965910624E+04  0.62158205582E+03 0.  0.
         13    1    3    3    0    0 -0.23094890259E+02 -0.15616140312E+03  0.20596557573E+02  0.15919791444E+03  0.00000000000E+00 0.  1.
          3    1    3    3  501    0  0.23094893337E+02  0.15616141394E+03 -0.92400549378E+03  0.93739314796E+03  0.00000000000E+00 0.  1.
         21    1    1    2  502  501 -0.30780333800E-05 -0.10822327253E-04  0.45064325091E-04  0.46447717410E-04  0.00000000000E+00 0.  1.
<mgrwt>
<rscale>  1 0.62158206E+03</rscale>
<asrwt>0</asrwt>
<pdfrwt beam="1">  1        1 0.35124114E+00 0.62158206E+03</pdfrwt>
<pdfrwt beam="2">0</pdfrwt>
<totfact> 0.22051102E+00</totfact>
</mgrwt>
</event>
<event>
 6    1  0.2552886E-003  0.6292301E+03  0.7818608E-02  0.9846552E-01
          1   -1    0    0  502    0  0.00000000000E+00  0.00000000000E+00  0.99008796888E+02  0.99008796888E+02  0.00000000000E+00 0.  1.
         13   -1    0    0    0    0 -0.00000000000E+00 -0.00000000000E+00 -0.10000000000E+04  0.10000000000E+04  0.00000000000E+00 0.  1.
    9000005    2    1    2  501    0 -0.11165673268E-01 -0.25863155433E-02 -0.90101598106E+03  0.10989814966E+04  0.62923011016E+03 0.  0.
         13    1    3    3    0    0 -0.27096872649E+03 -0.14966029867E+03 -0.35227658472E+03  0.46895740518E+03  0.00000000000E+00 0.  1.
          3    1    3    3  501    0  0.27095756081E+03  0.14965771235E+03 -0.54873939633E+03  0.63002409138E+03  0.00000000000E+00 0.  1.
         21    1    1    2  502  501  0.11165673268E-01  0.25863155433E-02  0.24777943586E-01  0.27300325565E-01  0.00000000000E+00 0. -1.
<mgrwt>
<rscale>  1 0.62923011E+03</rscale>
<asrwt>0</asrwt>
<pdfrwt beam="1">  1        1 0.36003275E+00 0.62923011E+03</pdfrwt>
<pdfrwt beam="2">0</pdfrwt>
<totfact> 0.20157971E+00</totfact>
</mgrwt>
</event>
<event>
 6    1  0.2552886E-003  0.6516978E+03  0.7818608E-02  0.9803599E-01
          1   -1    0    0  502    0  0.00000000000E+00  0.00000000000E+00  0.10644031126E+03  0.10644031126E+03  0.00000000000E+00 0.  1.
         13   -1    0    0    0    0 -0.00000000000E+00 -0.00000000000E+00 -0.10000000000E+04  0.10000000000E+04  0.00000000000E+00 0.  1.
    9000005    2    1    2  501    0 -0.72929524735E-02  0.35028901005E-02 -0.89382242533E+03  0.11061774501E+04  0.65169780042E+03 0.  0.
         13    1    3    3    0    0  0.98604848797E+02  0.24082972131E+03 -0.11405328901E+03  0.28413029337E+03  0.00000000000E+00 0.  1.
          3    1    3    3  501    0 -0.98612141749E+02 -0.24082621842E+03 -0.77976913632E+03  0.82204715676E+03  0.00000000000E+00 0.  1.
         21    1    1    2  502  501  0.72929524735E-02 -0.35028901005E-02  0.26273658947E+00  0.26286112843E+00  0.00000000000E+00 0.  1.
<mgrwt>
<rscale>  1 0.65169780E+03</rscale>
<asrwt>0</asrwt>
<pdfrwt beam="1">  1        1 0.38705649E+00 0.65169780E+03</pdfrwt>
<pdfrwt beam="2">0</pdfrwt>
<totfact> 0.15267745E+00</totfact>
</mgrwt>
</event>
<event>
 6    1  0.2552886E-003  0.6373620E+03  0.7818608E-02  0.9830787E-01
          3   -1    0    0  502    0  0.00000000000E+00  0.00000000000E+00  0.10155979349E+03  0.10155979349E+03  0.00000000000E+00 0.  1.
         13   -1    0    0    0    0 -0.00000000000E+00 -0.00000000000E+00 -0.10000000000E+04  0.10000000000E+04  0.00000000000E+00 0.  1.
    9000005    2    1    2  501    0 -0.16282197601E-03  0.16402445027E-03 -0.89844242772E+03  0.11015575603E+04  0.63736195579E+03 0.  0.
         13    1    3    3    0    0 -0.18008321378E+03  0.19307001336E+03 -0.14076983332E+03  0.29920250653E+03  0.00000000000E+00 0.  1.
          3    1    3    3  501    0  0.18008305096E+03 -0.19306984933E+03 -0.75767259441E+03  0.80235505375E+03  0.00000000000E+00 0.  1.
         21    1    1    2  502  501  0.16282197601E-03 -0.16402445028E-03  0.22212153421E-02  0.22332068002E-02  0.00000000000E+00 0. -1.
<mgrwt>
<rscale>  1 0.63736196E+03</rscale>
<asrwt>0</asrwt>
<pdfrwt beam="1">  1        3 0.36930912E+00 0.63736196E+03</pdfrwt>
<pdfrwt beam="2">0</pdfrwt>
<totfact> 0.86156766E-02</totfact>
</mgrwt>
</event>
<event>
 6    1  0.2552886E-003  0.6347844E+03  0.7818608E-02  0.9835757E-01
          1   -1    0    0  502    0  0.00000000000E+00  0.00000000000E+00  0.10308267601E+03  0.10308267601E+03  0.00000000000E+00 0.  1.
         13   -1    0    0    0    0 -0.00000000000E+00 -0.00000000000E+00 -0.10000000000E+04  0.10000000000E+04  0.00000000000E+00 0.  1.
    9000005    2    1    2  501    0  0.24913559339E-01  0.99094356465E-01 -0.89926095151E+03  0.11007368222E+04  0.63478443765E+03 0.  0.
         13    1    3    3    0    0 -0.59314535102E+02 -0.30939305386E+03 -0.51589331289E+03  0.60447347844E+03  0.00000000000E+00 0.  1.
          1    1    3    3  501    0  0.59339448661E+02  0.30949214821E+03 -0.38336763862E+03  0.49626334371E+03  0.00000000000E+00 0.  1.
         21    1    1    2  502  501 -0.24913559339E-01 -0.99094356465E-01  0.23436275212E+01  0.23458538606E+01  0.00000000000E+00 0. -1.
<mgrwt>
<rscale>  1 0.63478445E+03</rscale>
<asrwt>0</asrwt>
<pdfrwt beam="1">  1        1 0.37484689E+00 0.63478445E+03</pdfrwt>
<pdfrwt beam="2">0</pdfrwt>
<totfact> 0.17338994E+00</totfact>
</mgrwt>
</event>
<event>
 6    1  0.2552886E-003  0.6622967E+03  0.7818608E-02  0.9783975E-01
          1   -1    0    0  502    0  0.00000000000E+00  0.00000000000E+00  0.10965921922E+03  0.10965921922E+03  0.00000000000E+00 0.  1.
         13   -1    0    0    0    0 -0.00000000000E+00 -0.00000000000E+00 -0.10000000000E+04  0.10000000000E+04  0.00000000000E+00 0.  1.
    9000005    2    1    2  501    0 -0.56210842274E-05 -0.87130723614E-06 -0.89034078435E+03  0.11096592125E+04  0.66229665229E+03 0.  0.
         13    1    3    3    0    0  0.18047321409E+03 -0.16723290338E+03 -0.81651245420E+03  0.85277782150E+03  0.00000000000E+00 0.  1.
          1    1    3    3  501    0 -0.18047321971E+03  0.16723290251E+03 -0.73828330147E+02  0.25688139101E+03  0.00000000000E+00 0.  1.
         21    1    1    2  502  501  0.56210842137E-05  0.87130723278E-06  0.35663747726E-05  0.67137763629E-05  0.00000000000E+00 0.  1.
<mgrwt>
<rscale>  1 0.66229665E+03</rscale>
<asrwt>0</asrwt>
<pdfrwt beam="1">  1        1 0.39876164E+00 0.66229665E+03</pdfrwt>
<pdfrwt beam="2">0</pdfrwt>
<totfact> 0.13518457E+00</totfact>
</mgrwt>
</event>
<event>
 6    1  0.2552886E-003  0.6461702E+03  0.7818608E-02  0.9813992E-01
          1   -1    0    0  502    0  0.00000000000E+00  0.00000000000E+00  0.10727458559E+03  0.10727458559E+03  0.00000000000E+00 0.  1.
         13   -1    0    0    0    0 -0.00000000000E+00 -0.00000000000E+00 -0.10000000000E+04  0.10000000000E+04  0.00000000000E+00 0.  1.
    9000005    2    1    2  501    0  0.23268069402E+00  0.28478069772E+00 -0.89560308974E+03  0.11043735072E+04  0.64617011217E+03 0.  0.
         13    1    3    3    0    0 -0.93103846193E+02  0.27892376903E+03 -0.21878457866E+03  0.36651532978E+03  0.00000000000E+00 0.  1.
          3    1    3    3  501    0  0.93336526887E+02 -0.27863898833E+03 -0.67681851108E+03  0.73785817744E+03  0.00000000000E+00 0.  1.
         21    1    1    2  502  501 -0.23268069402E+00 -0.28478069772E+00  0.28776753326E+01  0.29010783634E+01  0.00000000000E+00 0.  1.
<mgrwt>
<rscale>  1 0.64617022E+03</rscale>
<asrwt>0</asrwt>
<pdfrwt beam="1">  1        1 0.39009022E+00 0.64617022E+03</pdfrwt>
<pdfrwt beam="2">0</pdfrwt>
<totfact> 0.14817696E+00</totfact>
</mgrwt>
</event>
<event>
 6    1  0.2552886E-003  0.6501501E+03  0.7818608E-02  0.9806498E-01
          1   -1    0    0  502    0  0.00000000000E+00  0.00000000000E+00  0.10575028677E+03  0.10575028677E+03  0.00000000000E+00 0.  1.
         13   -1    0    0    0    0 -0.00000000000E+00 -0.00000000000E+00 -0.10000000000E+04  0.10000000000E+04  0.00000000000E+00 0.  1.
    9000005    2    1    2  501    0  0.15506032952E-02  0.21846798439E-01 -0.89432446289E+03  0.11056723945E+04  0.65015013547E+03 0.  0.
         13    1    3    3    0    0 -0.15350031885E+03  0.12393283982E+03 -0.88656064236E+03  0.90824637035E+03  0.00000000000E+00 0.  1.
          3    1    3    3  501    0  0.15350186946E+03 -0.12391099302E+03 -0.77638205278E+01  0.19742602419E+03  0.00000000000E+00 0.  1.
         21    1    1    2  502  501 -0.15506032952E-02 -0.21846798439E-01  0.74749660842E-01  0.77892225342E-01  0.00000000000E+00 0. -1.
<mgrwt>
<rscale>  1 0.65015014E+03</rscale>
<asrwt>0</asrwt>
<pdfrwt beam="1">  1        1 0.38454731E+00 0.65015014E+03</pdfrwt>
<pdfrwt beam="2">0</pdfrwt>
<totfact> 0.15667594E+00</totfact>
</mgrwt>
</event>
