<event>
 6    1  0.5655254E-003  0.6508619E+03  0.7818608E-02  0.9805163E-01
          1   -1    0    0  502    0  0.00000000000E+00  0.00000000000E+00  0.10605056555E+03  0.10605056555E+03  0.00000000000E+00 0.  1.
         13   -1    0    0    0    0 -0.00000000000E+00 -0.00000000000E+00 -0.10000000000E+04  0.10000000000E+04  0.00000000000E+00 0.  1.
    9000005    2    1    2  501    0  0.13493556719E-02  0.67361225977E-02 -0.89409462003E+03  0.11059052175E+04  0.65086185978E+03 0.  0.
         13    1    3    3    0    0  0.12912510091E+02 -0.29661956402E+03 -0.22064648525E+03  0.36991184102E+03  0.00000000000E+00 0.  1.
          1    1    3    3  501    0 -0.12911160735E+02  0.29662630014E+03 -0.67344813478E+03  0.73599337650E+03  0.00000000000E+00 0.  1.
         21    1    1    2  502  501 -0.13493556719E-02 -0.67361225977E-02  0.14518558262E+00  0.14534802892E+00  0.00000000000E+00 0. -1.
<mgrwt>
<rscale>  1 0.65086186E+03</rscale>
<asrwt>0</asrwt>
<pdfrwt beam="1">  1        1 0.38563923E+00 0.65086186E+03</pdfrwt>
<pdfrwt beam="2">0</pdfrwt>
<totfact> 0.15492274E+00</totfact>
</mgrwt>
</event>
<event>
 6    1  0.5655254E-003  0.6487105E+03  0.7818608E-02  0.9809202E-01
          1   -1    0    0  502    0  0.00000000000E+00  0.00000000000E+00  0.10551787463E+03  0.10551787463E+03  0.00000000000E+00 0.  1.
         13   -1    0    0    0    0 -0.00000000000E+00 -0.00000000000E+00 -0.10000000000E+04  0.10000000000E+04  0.00000000000E+00 0.  1.
    9000005    2    1    2  501    0  0.94186211294E-03  0.18105466235E-01 -0.89479337714E+03  0.11052060953E+04  0.64871050937E+03 0.  0.
         13    1    3    3    0    0 -0.31239225015E+03 -0.56695900832E+02 -0.33436200173E+03  0.46108707564E+03  0.00000000000E+00 0.  1.
          3    1    3    3  501    0  0.31239319201E+03  0.56714006299E+02 -0.56043137541E+03  0.64411901965E+03  0.00000000000E+00 0.  1.
         21    1    1    2  502  501 -0.94186211294E-03 -0.18105466235E-01  0.31125176491E+00  0.31177933891E+00  0.00000000000E+00 0.  1.
<mgrwt>
<rscale>  1 0.64871051E+03</rscale>
<asrwt>0</asrwt>
<pdfrwt beam="1">  1        1 0.38370217E+00 0.64871051E+03</pdfrwt>
<pdfrwt beam="2">0</pdfrwt>
<totfact> 0.15807175E+00</totfact>
</mgrwt>
</event>
<event>
 6    1  0.5655254E-003  0.6331069E+03  0.7818608E-02  0.9839005E-01
          1   -1    0    0  502    0  0.00000000000E+00  0.00000000000E+00  0.10489082867E+03  0.10489082867E+03  0.00000000000E+00 0.  1.
         13   -1    0    0    0    0 -0.00000000000E+00 -0.00000000000E+00 -0.10000000000E+04  0.10000000000E+04  0.00000000000E+00 0.  1.
    9000005    2    1    2  501    0 -0.43241438602E+01  0.86891765246E+01 -0.89348161483E+03  0.10950496423E+04  0.63303248185E+03 0.  0.
         13    1    3    3    0    0  0.23858497502E+03  0.20385398855E+03 -0.36318702803E+03  0.47998339167E+03  0.00000000000E+00 0.  1.
          3    1    3    3  501    0 -0.24290911888E+03 -0.19516481202E+03 -0.53029458680E+03  0.61506625064E+03  0.00000000000E+00 0.  1.
         21    1    1    2  502  501  0.43241438602E+01 -0.86891765246E+01 -0.16275565087E+01  0.98411863608E+01  0.00000000000E+00 0.  1.
<mgrwt>
<rscale>  1 0.63310688E+03</rscale>
<asrwt>0</asrwt>
<pdfrwt beam="1">  1        1 0.38142200E+00 0.63310688E+03</pdfrwt>
<pdfrwt beam="2">0</pdfrwt>
<totfact> 0.16225055E+00</totfact>
</mgrwt>
</event>
<event>
 6    1  0.5655254E-003  0.5995616E+03  0.7818608E-02  0.9906316E-01
          1   -1    0    0  502    0  0.00000000000E+00  0.00000000000E+00  0.89876420700E+02  0.89876420700E+02  0.00000000000E+00 0.  1.
         13   -1    0    0    0    0 -0.00000000000E+00 -0.00000000000E+00 -0.10000000000E+04  0.10000000000E+04  0.00000000000E+00 0.  1.
    9000005    2    1    2  501    0  0.18610870800E-02  0.10928068052E-02 -0.91013131495E+03  0.10898683896E+04  0.59956158669E+03 0.  0.
         13    1    3    3    0    0  0.66974270059E+02  0.11663163063E+03  0.31949277278E+02  0.13823619798E+03  0.00000000000E+00 0.  1.
          3    1    3    3  501    0 -0.66972408972E+02 -0.11663053782E+03 -0.94208059223E+03  0.95163219164E+03  0.00000000000E+00 0.  1.
         21    1    1    2  502  501 -0.18610870800E-02 -0.10928068052E-02  0.77356525646E-02  0.80310766671E-02  0.00000000000E+00 0.  1.
<mgrwt>
<rscale>  1 0.59956159E+03</rscale>
<asrwt>0</asrwt>
<pdfrwt beam="1">  1        1 0.32682404E+00 0.59956159E+03</pdfrwt>
<pdfrwt beam="2">0</pdfrwt>
<totfact> 0.28259358E+00</totfact>
</mgrwt>
</event>
<event>
 6    1  0.5655254E-003  0.5396882E+03  0.7818608E-02  0.1003909E+00
          1   -1    0    0  502    0  0.00000000000E+00  0.00000000000E+00  0.73399072543E+02  0.73399072543E+02  0.00000000000E+00 0.  1.
         13   -1    0    0    0    0 -0.00000000000E+00 -0.00000000000E+00 -0.10000000000E+04  0.10000000000E+04  0.00000000000E+00 0.  1.
    9000005    2    1    2  501    0 -0.16381064715E-01  0.24658879493E-01 -0.92718376723E+03  0.10728154814E+04  0.53968816745E+03 0.  0.
         13    1    3    3    0    0  0.22355720825E+03  0.52865654407E+02 -0.74499494015E+03  0.77960891710E+03  0.00000000000E+00 0.  1.
          3    1    3    3  501    0 -0.22357358931E+03 -0.52840995528E+02 -0.18218882708E+03  0.29320656432E+03  0.00000000000E+00 0.  1.
         21    1    1    2  502  501  0.16381064715E-01 -0.24658879493E-01  0.58283977177E+00  0.58359112328E+00  0.00000000000E+00 0. -1.
<mgrwt>
<rscale>  1 0.53968817E+03</rscale>
<asrwt>0</asrwt>
<pdfrwt beam="1">  1        1 0.26690628E+00 0.53968817E+03</pdfrwt>
<pdfrwt beam="2">0</pdfrwt>
<totfact> 0.51814656E+00</totfact>
</mgrwt>
</event>
<event>
 6    1  0.5655254E-003  0.6556918E+03  0.7818608E-02  0.9796157E-01
          1   -1    0    0  502    0  0.00000000000E+00  0.00000000000E+00  0.10748458134E+03  0.10748458134E+03  0.00000000000E+00 0.  1.
         13   -1    0    0    0    0 -0.00000000000E+00 -0.00000000000E+00 -0.10000000000E+04  0.10000000000E+04  0.00000000000E+00 0.  1.
    9000005    2    1    2  501    0  0.80601055515E-04  0.12259177140E-04 -0.89251705531E+03  0.11074829427E+04  0.65569182875E+03 0.  0.
         13    1    3    3    0    0 -0.16303144114E+03 -0.12747810096E+03 -0.16789661201E+02  0.20763383575E+03  0.00000000000E+00 0.  1.
          3    1    3    3  501    0  0.16303152174E+03  0.12747811322E+03 -0.87572739410E+03  0.89984910691E+03  0.00000000000E+00 0.  1.
         21    1    1    2  502  501 -0.80601055524E-04 -0.12259177151E-04  0.16366431268E-02  0.16386724938E-02  0.00000000000E+00 0.  1.
<mgrwt>
<rscale>  1 0.65569183E+03</rscale>
<asrwt>0</asrwt>
<pdfrwt beam="1">  1        1 0.39085385E+00 0.65569183E+03</pdfrwt>
<pdfrwt beam="2">0</pdfrwt>
<totfact> 0.14676498E+00</totfact>
</mgrwt>
</event>
<event>
 6    1  0.5655254E-003  0.6532604E+03  0.7818608E-02  0.9800680E-01
          1   -1    0    0  502    0  0.00000000000E+00  0.00000000000E+00  0.10668732885E+03  0.10668732885E+03  0.00000000000E+00 0.  1.
         13   -1    0    0    0    0 -0.00000000000E+00 -0.00000000000E+00 -0.10000000000E+04  0.10000000000E+04  0.00000000000E+00 0.  1.
    9000005    2    1    2  501    0 -0.28073281982E-04 -0.12634665353E-04 -0.89331269853E+03  0.11066872876E+04  0.65326041919E+03 0.  0.
         13    1    3    3    0    0  0.20115551581E+03  0.18447159062E+03 -0.14268971715E+03  0.30798322141E+03  0.00000000000E+00 0.  1.
          3    1    3    3  501    0 -0.20115554389E+03 -0.18447160326E+03 -0.75062298139E+03  0.79870406624E+03  0.00000000000E+00 0.  1.
         21    1    1    2  502  501  0.28073281987E-04  0.12634665357E-04  0.27387173818E-04  0.41204383504E-04  0.00000000000E+00 0.  1.
<mgrwt>
<rscale>  1 0.65326042E+03</rscale>
<asrwt>0</asrwt>
<pdfrwt beam="1">  1        1 0.38795474E+00 0.65326042E+03</pdfrwt>
<pdfrwt beam="2">0</pdfrwt>
<totfact> 0.15124152E+00</totfact>
</mgrwt>
</event>
<event>
 6    1  0.5655254E-003  0.6428486E+03  0.7818608E-02  0.9820292E-01
          1   -1    0    0  502    0  0.00000000000E+00  0.00000000000E+00  0.10336726867E+03  0.10336726867E+03  0.00000000000E+00 0.  1.
         13   -1    0    0    0    0 -0.00000000000E+00 -0.00000000000E+00 -0.10000000000E+04  0.10000000000E+04  0.00000000000E+00 0.  1.
    9000005    2    1    2  501    0 -0.46941261359E-01  0.15697590571E-01 -0.89667355770E+03  0.11033031072E+04  0.64284856297E+03 0.  0.
         13    1    3    3    0    0 -0.82773890005E+02 -0.27883264979E+03 -0.21355172585E+03  0.36083722517E+03  0.00000000000E+00 0.  1.
          1    1    3    3  501    0  0.82726948744E+02  0.27884834738E+03 -0.68312183185E+03  0.74246588207E+03  0.00000000000E+00 0.  1.
         21    1    1    2  502  501  0.46941261359E-01 -0.15697590571E-01  0.40826370075E-01  0.64161428142E-01  0.00000000000E+00 0.  1.
<mgrwt>
<rscale>  1 0.64284856E+03</rscale>
<asrwt>0</asrwt>
<pdfrwt beam="1">  1        1 0.37588177E+00 0.64284856E+03</pdfrwt>
<pdfrwt beam="2">0</pdfrwt>
<totfact> 0.17132636E+00</totfact>
</mgrwt>
</event>
<event>
 6    1  0.5655254E-003  0.6486271E+03  0.7818608E-02  0.9809359E-01
          1   -1    0    0  502    0  0.00000000000E+00  0.00000000000E+00  0.10517930176E+03  0.10517930176E+03  0.00000000000E+00 0.  1.
         13   -1    0    0    0    0 -0.00000000000E+00 -0.00000000000E+00 -0.10000000000E+04  0.10000000000E+04  0.00000000000E+00 0.  1.
    9000005    2    1    2  501    0  0.12795048363E-04  0.59645066131E-06 -0.89482071142E+03  0.11051792834E+04  0.64862712157E+03 0.  0.
         13    1    3    3    0    0 -0.10109899767E+03  0.23525757152E+03 -0.78652914105E+03  0.82716094082E+03  0.00000000000E+00 0.  1.
          3    1    3    3  501    0  0.10109901047E+03 -0.23525757092E+03 -0.10829157036E+03  0.27801834257E+03  0.00000000000E+00 0.  1.
         21    1    1    2  502  501 -0.12795048365E-04 -0.59645065767E-06  0.13176946799E-04  0.18376641232E-04  0.00000000000E+00 0. -1.
<mgrwt>
<rscale>  1 0.64862712E+03</rscale>
<asrwt>0</asrwt>
<pdfrwt beam="1">  1        1 0.38247099E+00 0.64862712E+03</pdfrwt>
<pdfrwt beam="2">0</pdfrwt>
<totfact> 0.16006686E+00</totfact>
</mgrwt>
</event>
<event>
 6    1  0.5655254E-003  0.6439821E+03  0.7818608E-02  0.9818137E-01
          1   -1    0    0  502    0  0.00000000000E+00  0.00000000000E+00  0.10368123361E+03  0.10368123361E+03  0.00000000000E+00 0.  1.
         13   -1    0    0    0    0 -0.00000000000E+00 -0.00000000000E+00 -0.10000000000E+04  0.10000000000E+04  0.00000000000E+00 0.  1.
    9000005    2    1    2  501    0  0.64114075360E-02  0.36885715086E-02 -0.89631554237E+03  0.11036731648E+04  0.64398206738E+03 0.  0.
         13    1    3    3    0    0 -0.24568348210E+03 -0.21660330530E+02 -0.80290799527E+03  0.83993499282E+03  0.00000000000E+00 0.  1.
          1    1    3    3  501    0  0.24568989350E+03  0.21664019101E+02 -0.93407547094E+02  0.26373817196E+03  0.00000000000E+00 0.  1.
         21    1    1    2  502  501 -0.64114075360E-02 -0.36885715086E-02 -0.32240205893E-02  0.80688298487E-02  0.00000000000E+00 0.  1.
<mgrwt>
<rscale>  1 0.64398207E+03</rscale>
<asrwt>0</asrwt>
<pdfrwt beam="1">  1        1 0.37702346E+00 0.64398207E+03</pdfrwt>
<pdfrwt beam="2">0</pdfrwt>
<totfact> 0.16931878E+00</totfact>
</mgrwt>
</event>
<event>
 6    1  0.5655254E-003  0.6544483E+03  0.7818608E-02  0.9798468E-01
          1   -1    0    0  502    0  0.00000000000E+00  0.00000000000E+00  0.11477529833E+03  0.11477529833E+03  0.00000000000E+00 0.  1.
         13   -1    0    0    0    0 -0.00000000000E+00 -0.00000000000E+00 -0.10000000000E+04  0.10000000000E+04  0.00000000000E+00 0.  1.
    9000005    2    1    2  501    0 -0.57591597237E+01  0.14977466893E+02 -0.88220330479E+03  0.10984467566E+04  0.65425156762E+03 0.  0.
         13    1    3    3    0    0  0.50528168715E+02 -0.29396699158E+03 -0.23732828964E+03  0.38117503201E+03  0.00000000000E+00 0.  1.
          3    1    3    3  501    0 -0.56287328439E+02  0.30894445847E+03 -0.64487501515E+03  0.71727172461E+03  0.00000000000E+00 0.  1.
         21    1    1    2  502  501  0.57591597237E+01 -0.14977466893E+02 -0.30213968796E+01  0.16328541709E+02  0.00000000000E+00 0.  1.
<mgrwt>
<rscale>  1 0.65444832E+03</rscale>
<asrwt>0</asrwt>
<pdfrwt beam="1">  1        1 0.41736560E+00 0.65444832E+03</pdfrwt>
<pdfrwt beam="2">0</pdfrwt>
<totfact> 0.11175031E+00</totfact>
</mgrwt>
</event>
<event>
 6    1  0.5655254E-003  0.6461035E+03  0.7818608E-02  0.9814118E-01
          1   -1    0    0  502    0  0.00000000000E+00  0.00000000000E+00  0.10436411046E+03  0.10436411046E+03  0.00000000000E+00 0.  1.
         13   -1    0    0    0    0 -0.00000000000E+00 -0.00000000000E+00 -0.10000000000E+04  0.10000000000E+04  0.00000000000E+00 0.  1.
    9000005    2    1    2  501    0 -0.32089540604E-03  0.73347912709E-03 -0.89563745990E+03  0.11043623478E+04  0.64610350228E+03 0.  0.
         13    1    3    3    0    0 -0.16894232579E+02 -0.15509956587E+03  0.35698313934E+02  0.16004893016E+03  0.00000000000E+00 0.  1.
          1    1    3    3  501    0  0.16893911684E+02  0.15510029935E+03 -0.93133577383E+03  0.94431341764E+03  0.00000000000E+00 0.  1.
         21    1    1    2  502  501  0.32089540604E-03 -0.73347912709E-03  0.15703610548E-02  0.17626682427E-02  0.00000000000E+00 0.  1.
<mgrwt>
<rscale>  1 0.64610350E+03</rscale>
<asrwt>0</asrwt>
<pdfrwt beam="1">  1        1 0.37950666E+00 0.64610350E+03</pdfrwt>
<pdfrwt beam="2">0</pdfrwt>
<totfact> 0.16503984E+00</totfact>
</mgrwt>
</event>
<event>
 6    1  0.5655254E-003  0.5409449E+03  0.7818608E-02  0.1003612E+00
          1   -1    0    0  502    0  0.00000000000E+00  0.00000000000E+00  0.73184141126E+02  0.73184141126E+02  0.00000000000E+00 0.  1.
         13   -1    0    0    0    0 -0.00000000000E+00 -0.00000000000E+00 -0.10000000000E+04  0.10000000000E+04  0.00000000000E+00 0.  1.
    9000005    2    1    2  501    0 -0.42607642088E-01  0.72590275743E-01 -0.92676284162E+03  0.10730846646E+04  0.54094484525E+03 0.  0.
         13    1    3    3    0    0 -0.13244962941E+03  0.20602563829E+03 -0.69124214762E+03  0.73335201275E+03  0.00000000000E+00 0.  1.
          3    1    3    3  501    0  0.13240702177E+03 -0.20595304801E+03 -0.23552069401E+03  0.33973265181E+03  0.00000000000E+00 0.  1.
         21    1    1    2  502  501  0.42607642088E-01 -0.72590275743E-01 -0.53017249245E-01  0.99476570177E-01  0.00000000000E+00 0.  1.
<mgrwt>
<rscale>  1 0.54094485E+03</rscale>
<asrwt>0</asrwt>
<pdfrwt beam="1">  1        1 0.26612471E+00 0.54094485E+03</pdfrwt>
<pdfrwt beam="2">0</pdfrwt>
<totfact> 0.52208715E+00</totfact>
</mgrwt>
</event>
<event>
 6    1  0.5655254E-003  0.6528631E+03  0.7818608E-02  0.9801422E-01
          1   -1    0    0  502    0  0.00000000000E+00  0.00000000000E+00  0.10656298795E+03  0.10656298795E+03  0.00000000000E+00 0.  1.
         13   -1    0    0    0    0 -0.00000000000E+00 -0.00000000000E+00 -0.10000000000E+04  0.10000000000E+04  0.00000000000E+00 0.  1.
    9000005    2    1    2  501    0  0.11543670423E-03 -0.18499883394E-03 -0.89344243427E+03  0.11065575613E+04  0.65286311981E+03 0.  0.
         13    1    3    3    0    0 -0.85789248110E+01  0.10182512452E+03 -0.97219222184E+03  0.97754778407E+03  0.00000000000E+00 0.  1.
          1    1    3    3  501    0  0.85790402477E+01 -0.10182530951E+03  0.78749787569E+02  0.12900977727E+03  0.00000000000E+00 0.  1.
         21    1    1    2  502  501 -0.11543670423E-03  0.18499883395E-03  0.54222198638E-02  0.54266028464E-02  0.00000000000E+00 0.  1.
<mgrwt>
<rscale>  1 0.65286312E+03</rscale>
<asrwt>0</asrwt>
<pdfrwt beam="1">  1        1 0.38750259E+00 0.65286312E+03</pdfrwt>
<pdfrwt beam="2">0</pdfrwt>
<totfact> 0.15195177E+00</totfact>
</mgrwt>
</event>
<event>
 6    1  0.5655254E-003  0.6542653E+03  0.7818608E-02  0.9798808E-01
          1   -1    0    0  502    0  0.00000000000E+00  0.00000000000E+00  0.10701612412E+03  0.10701612412E+03  0.00000000000E+00 0.  1.
         13   -1    0    0    0    0 -0.00000000000E+00 -0.00000000000E+00 -0.10000000000E+04  0.10000000000E+04  0.00000000000E+00 0.  1.
    9000005    2    1    2  501    0  0.93151481508E-04  0.29209276136E-05 -0.89298420684E+03  0.11070157803E+04  0.65426534690E+03 0.  0.
         13    1    3    3    0    0  0.17117399758E+03  0.26715962941E+03 -0.58122660017E+03  0.66219269535E+03  0.00000000000E+00 0.  1.
          3    1    3    3  501    0 -0.17117390443E+03 -0.26715962649E+03 -0.31175760667E+03  0.44482308494E+03  0.00000000000E+00 0.  1.
         21    1    1    2  502  501 -0.93151481492E-04 -0.29209276448E-05  0.33095785813E-03  0.34382965867E-03  0.00000000000E+00 0. -1.
<mgrwt>
<rscale>  1 0.65426535E+03</rscale>
<asrwt>0</asrwt>
<pdfrwt beam="1">  1        1 0.38915036E+00 0.65426535E+03</pdfrwt>
<pdfrwt beam="2">0</pdfrwt>
<totfact> 0.14937982E+00</totfact>
</mgrwt>
</event>
<event>
 6    1  0.5655254E-003  0.6499318E+03  0.7818608E-02  0.9806907E-01
          1   -1    0    0  502    0  0.00000000000E+00  0.00000000000E+00  0.10560291127E+03  0.10560291127E+03  0.00000000000E+00 0.  1.
         13   -1    0    0    0    0 -0.00000000000E+00 -0.00000000000E+00 -0.10000000000E+04  0.10000000000E+04  0.00000000000E+00 0.  1.
    9000005    2    1    2  501    0  0.10559248409E-04  0.10988360145E-04 -0.89439715503E+03  0.11056028432E+04  0.64993182416E+03 0.  0.
         13    1    3    3    0    0  0.16540760095E+03  0.25900723933E+03 -0.26750491814E+03  0.40743503250E+03  0.00000000000E+00 0.  1.
          1    1    3    3  501    0 -0.16540759039E+03 -0.25900722834E+03 -0.62689223688E+03  0.69816781074E+03  0.00000000000E+00 0.  1.
         21    1    1    2  502  501 -0.10559248420E-04 -0.10988360102E-04  0.66301367413E-04  0.68030236703E-04  0.00000000000E+00 0.  1.
<mgrwt>
<rscale>  1 0.64993182E+03</rscale>
<asrwt>0</asrwt>
<pdfrwt beam="1">  1        1 0.38401140E+00 0.64993182E+03</pdfrwt>
<pdfrwt beam="2">0</pdfrwt>
<totfact> 0.15753949E+00</totfact>
</mgrwt>
</event>
<event>
 6    1  0.5655254E-003  0.6410752E+03  0.7818608E-02  0.9823671E-01
          1   -1    0    0  502    0  0.00000000000E+00  0.00000000000E+00  0.10274460731E+03  0.10274460731E+03  0.00000000000E+00 0.  1.
         13   -1    0    0    0    0 -0.00000000000E+00 -0.00000000000E+00 -0.10000000000E+04  0.10000000000E+04  0.00000000000E+00 0.  1.
    9000005    2    1    2  501    0 -0.35917749571E-03  0.20021946258E-03 -0.89725541826E+03  0.11027441953E+04  0.64107524884E+03 0.  0.
         13    1    3    3    0    0  0.17156817491E+03  0.60030174745E+02 -0.90277613724E+03  0.92089305269E+03  0.00000000000E+00 0.  1.
          3    1    3    3  501    0 -0.17156853409E+03 -0.60029974526E+02  0.55207189779E+01  0.18185114261E+03  0.00000000000E+00 0.  1.
         21    1    1    2  502  501  0.35917749572E-03 -0.20021946258E-03  0.25567389427E-04  0.41200727909E-03  0.00000000000E+00 0.  1.
<mgrwt>
<rscale>  1 0.64107525E+03</rscale>
<asrwt>0</asrwt>
<pdfrwt beam="1">  1        1 0.37361754E+00 0.64107525E+03</pdfrwt>
<pdfrwt beam="2">0</pdfrwt>
<totfact> 0.17536004E+00</totfact>
</mgrwt>
</event>
<event>
 6    1  0.5655254E-003  0.6637618E+03  0.7818608E-02  0.9781293E-01
          1   -1    0    0  502    0  0.00000000000E+00  0.00000000000E+00  0.11014732168E+03  0.11014732168E+03  0.00000000000E+00 0.  1.
         13   -1    0    0    0    0 -0.00000000000E+00 -0.00000000000E+00 -0.10000000000E+04  0.10000000000E+04  0.00000000000E+00 0.  1.
    9000005    2    1    2  501    0  0.69885681205E-03  0.11486879765E-02 -0.88985484386E+03  0.11101447727E+04  0.66376183466E+03 0.  0.
         13    1    3    3    0    0 -0.12369820127E+03 -0.71173943738E+01  0.70011255380E+02  0.14231471527E+03  0.00000000000E+00 0.  1.
          3    1    3    3  501    0  0.12369890013E+03  0.71185430618E+01 -0.95986609924E+03  0.96783005741E+03  0.00000000000E+00 0.  1.
         21    1    1    2  502  501 -0.69885681206E-03 -0.11486879765E-02  0.21655409911E-02  0.25490101403E-02  0.00000000000E+00 0.  1.
<mgrwt>
<rscale>  1 0.66376183E+03</rscale>
<asrwt>0</asrwt>
<pdfrwt beam="1">  1        1 0.40053656E+00 0.66376183E+03</pdfrwt>
<pdfrwt beam="2">0</pdfrwt>
<totfact> 0.13270727E+00</totfact>
</mgrwt>
</event>
<event>
 6    1  0.5655254E-003  0.6336786E+03  0.7818608E-02  0.9837897E-01
          1   -1    0    0  502    0  0.00000000000E+00  0.00000000000E+00  0.10039472474E+03  0.10039472474E+03  0.00000000000E+00 0.  1.
         13   -1    0    0    0    0 -0.00000000000E+00 -0.00000000000E+00 -0.10000000000E+04  0.10000000000E+04  0.00000000000E+00 0.  1.
    9000005    2    1    2  501    0  0.35044617240E-03  0.12281138594E-01 -0.89960698974E+03  0.11003823196E+04  0.63367855656E+03 0.  0.
         13    1    3    3    0    0 -0.22824121045E+02  0.22453048040E+03 -0.63638617523E+02  0.23448827427E+03  0.00000000000E+00 0.  1.
          3    1    3    3  501    0  0.22824471491E+02 -0.22451819927E+03 -0.83596837222E+03  0.86589404528E+03  0.00000000000E+00 0.  1.
         21    1    1    2  502  501 -0.35044617240E-03 -0.12281138594E-01  0.17144834818E-02  0.12405185661E-01  0.00000000000E+00 0. -1.
<mgrwt>
<rscale>  1 0.63367856E+03</rscale>
<asrwt>0</asrwt>
<pdfrwt beam="1">  1        1 0.36507250E+00 0.63367856E+03</pdfrwt>
<pdfrwt beam="2">0</pdfrwt>
<totfact> 0.19144038E+00</totfact>
</mgrwt>
</event>
<event>
 6    1  0.5655254E-003  0.6408819E+03  0.7818608E-02  0.9824041E-01
          1   -1    0    0  502    0  0.00000000000E+00  0.00000000000E+00  0.10441255731E+03  0.10441255731E+03  0.00000000000E+00 0.  1.
         13   -1    0    0    0    0 -0.00000000000E+00 -0.00000000000E+00 -0.10000000000E+04  0.10000000000E+04  0.00000000000E+00 0.  1.
    9000005    2    1    2  501    0 -0.19738108917E+00  0.20736757592E+00 -0.89730453949E+03  0.11026717581E+04  0.64088180462E+03 0.  0.
         13    1    3    3    0    0  0.22664942461E+03 -0.11679688829E+03 -0.78213787275E+03  0.82264884780E+03  0.00000000000E+00 0.  1.
          1    1    3    3  501    0 -0.22684680570E+03  0.11700425587E+03 -0.11516666673E+03  0.28002291026E+03  0.00000000000E+00 0.  1.
         21    1    1    2  502  501  0.19738108917E+00 -0.20736757592E+00  0.17170967946E+01  0.17407992440E+01  0.00000000000E+00 0. -1.
<mgrwt>
<rscale>  1 0.64088187E+03</rscale>
<asrwt>0</asrwt>
<pdfrwt beam="1">  1        1 0.37968283E+00 0.64088187E+03</pdfrwt>
<pdfrwt beam="2">0</pdfrwt>
<totfact> 0.16490346E+00</totfact>
</mgrwt>
</event>
<event>
 6    1  0.5655254E-003  0.6557562E+03  0.7818608E-02  0.9796038E-01
          1   -1    0    0  502    0  0.00000000000E+00  0.00000000000E+00  0.10795525836E+03  0.10795525836E+03  0.00000000000E+00 0.  1.
         13   -1    0    0    0    0 -0.00000000000E+00 -0.00000000000E+00 -0.10000000000E+04  0.10000000000E+04  0.00000000000E+00 0.  1.
    9000005    2    1    2  501    0  0.67255849062E-02 -0.24353018589E-02 -0.89249590652E+03  0.11075040368E+04  0.65575624151E+03 0.  0.
         13    1    3    3    0    0  0.63930786630E+02  0.25440631273E+03 -0.11402771674E+03  0.28602803642E+03  0.00000000000E+00 0.  1.
          3    1    3    3  501    0 -0.63924061045E+02 -0.25440874803E+03 -0.77846818978E+03  0.82147600036E+03  0.00000000000E+00 0.  1.
         21    1    1    2  502  501 -0.67255849062E-02  0.24353018589E-02  0.45116488119E+00  0.45122157994E+00  0.00000000000E+00 0.  1.
<mgrwt>
<rscale>  1 0.65575624E+03</rscale>
<asrwt>0</asrwt>
<pdfrwt beam="1">  1        1 0.39256540E+00 0.65575624E+03</pdfrwt>
<pdfrwt beam="2">0</pdfrwt>
<totfact> 0.14421819E+00</totfact>
</mgrwt>
</event>
<event>
 6    1  0.5655254E-003  0.6321944E+03  0.7818608E-02  0.9840776E-01
          1   -1    0    0  502    0  0.00000000000E+00  0.00000000000E+00  0.99921511559E+02  0.99921511559E+02  0.00000000000E+00 0.  1.
         13   -1    0    0    0    0 -0.00000000000E+00 -0.00000000000E+00 -0.10000000000E+04  0.10000000000E+04  0.00000000000E+00 0.  1.
    9000005    2    1    2  501    0  0.80963838669E-02  0.27632931511E-02 -0.90007688548E+03  0.10999128077E+04  0.63219442005E+03 0.  0.
         13    1    3    3    0    0  0.23508409282E+02  0.42771959268E+02  0.93322951789E+02  0.10531504706E+03  0.00000000000E+00 0.  1.
          1    1    3    3  501    0 -0.23500312898E+02 -0.42769195975E+02 -0.99339983727E+03  0.99459776067E+03  0.00000000000E+00 0.  1.
         21    1    1    2  502  501 -0.80963838669E-02 -0.27632931511E-02 -0.16029574433E-02  0.87038321057E-02  0.00000000000E+00 0. -1.
<mgrwt>
<rscale>  1 0.63219442E+03</rscale>
<asrwt>0</asrwt>
<pdfrwt beam="1">  1        1 0.36335172E+00 0.63219442E+03</pdfrwt>
<pdfrwt beam="2">0</pdfrwt>
<totfact> 0.19484486E+00</totfact>
</mgrwt>
</event>
<event>
 6    1  0.5655254E-003  0.6508551E+03  0.7818608E-02  0.9805176E-01
          1   -1    0    0  502    0  0.00000000000E+00  0.00000000000E+00  0.11525886467E+03  0.11525886467E+03  0.00000000000E+00 0.  1.
         13   -1    0    0    0    0 -0.00000000000E+00 -0.00000000000E+00 -0.10000000000E+04  0.10000000000E+04  0.00000000000E+00 0.  1.
    9000005    2    1    2  501    0  0.82348203160E-01 -0.17709144771E+00 -0.89409579764E+03  0.11059021639E+04  0.65085502425E+03 0.  0.
         13    1    3    3    0    0 -0.18103847221E+03 -0.17423160977E+03 -0.79855331413E+03  0.83714931629E+03  0.00000000000E+00 0.  1.
          1    1    3    3  501    0  0.18112082041E+03  0.17405451833E+03 -0.95542483514E+02  0.26875284760E+03  0.00000000000E+00 0.  1.
         21    1    1    2  502  501 -0.82348203160E-01  0.17709144771E+00  0.93546623143E+01  0.93567007873E+01  0.00000000000E+00 0.  1.
<mgrwt>
<rscale>  1 0.65085505E+03</rscale>
<asrwt>0</asrwt>
<pdfrwt beam="1">  1        1 0.41912403E+00 0.65085505E+03</pdfrwt>
<pdfrwt beam="2">0</pdfrwt>
<totfact> 0.10980765E+00</totfact>
</mgrwt>
</event>
<event>
 6    1  0.5655254E-003  0.6244706E+03  0.7818608E-02  0.9855899E-01
          1   -1    0    0  502    0  0.00000000000E+00  0.00000000000E+00  0.97494693037E+02  0.97494693037E+02  0.00000000000E+00 0.  1.
         13   -1    0    0    0    0 -0.00000000000E+00 -0.00000000000E+00 -0.10000000000E+04  0.10000000000E+04  0.00000000000E+00 0.  1.
    9000005    2    1    2  501    0 -0.12312950957E-04  0.12366182865E-03 -0.90250912130E+03  0.10974908767E+04  0.62447058407E+03 0.  0.
         13    1    3    3    0    0  0.21669704314E+03 -0.10931489064E+03 -0.10603942127E+03  0.26486168595E+03  0.00000000000E+00 0.  1.
          3    1    3    3  501    0 -0.21669705545E+03  0.10931501430E+03 -0.79646970002E+03  0.83262919073E+03  0.00000000000E+00 0.  1.
         21    1    1    2  502  501  0.12312950962E-04 -0.12366182865E-03  0.38143347108E-02  0.38163586234E-02  0.00000000000E+00 0.  1.
<mgrwt>
<rscale>  1 0.62447058E+03</rscale>
<asrwt>0</asrwt>
<pdfrwt beam="1">  1        1 0.35452690E+00 0.62447058E+03</pdfrwt>
<pdfrwt beam="2">0</pdfrwt>
<totfact> 0.21324234E+00</totfact>
</mgrwt>
</event>
<event>
 6    1  0.5655254E-003  0.6417519E+03  0.7818608E-02  0.9822380E-01
          1   -1    0    0  502    0  0.00000000000E+00  0.00000000000E+00  0.10303030473E+03  0.10303030473E+03  0.00000000000E+00 0.  1.
         13   -1    0    0    0    0 -0.00000000000E+00 -0.00000000000E+00 -0.10000000000E+04  0.10000000000E+04  0.00000000000E+00 0.  1.
    9000005    2    1    2  501    0 -0.30211703589E-02  0.24736681572E-01 -0.89703613151E+03  0.11029593484E+04  0.64175190090E+03 0.  0.
         13    1    3    3    0    0 -0.12510780851E+02 -0.22497013684E+03 -0.55882159582E+02  0.23214413166E+03  0.00000000000E+00 0.  1.
          3    1    3    3  501    0  0.12507759681E+02  0.22499487352E+03 -0.84115397193E+03  0.87081521671E+03  0.00000000000E+00 0.  1.
         21    1    1    2  502  501  0.30211703589E-02 -0.24736681572E-01  0.66436234734E-01  0.70956353987E-01  0.00000000000E+00 0. -1.
<mgrwt>
<rscale>  1 0.64175190E+03</rscale>
<asrwt>0</asrwt>
<pdfrwt beam="1">  1        1 0.37465644E+00 0.64175190E+03</pdfrwt>
<pdfrwt beam="2">0</pdfrwt>
<totfact> 0.17350247E+00</totfact>
</mgrwt>
</event>
<event>
 6    1  0.5655254E-003  0.6149873E+03  0.7818608E-02  0.9874791E-01
          1   -1    0    0  502    0  0.00000000000E+00  0.00000000000E+00  0.94579980577E+02  0.94579980577E+02  0.00000000000E+00 0.  1.
         13   -1    0    0    0    0 -0.00000000000E+00 -0.00000000000E+00 -0.10000000000E+04  0.10000000000E+04  0.00000000000E+00 0.  1.
    9000005    2    1    2  501    0 -0.24905687665E-02 -0.10901910217E-02 -0.90544759386E+03  0.10945522724E+04  0.61498726153E+03 0.  0.
         13    1    3    3    0    0 -0.17983607189E+03 -0.22401160331E+03 -0.25750833845E+03  0.38578848550E+03  0.00000000000E+00 0.  1.
          3    1    3    3  501    0  0.17983358132E+03  0.22401051312E+03 -0.64793925541E+03  0.70876378693E+03  0.00000000000E+00 0.  1.
         21    1    1    2  502  501  0.24905687665E-02  0.10901910217E-02  0.27574442369E-01  0.27708145394E-01  0.00000000000E+00 0.  1.
<mgrwt>
<rscale>  1 0.61498726E+03</rscale>
<asrwt>0</asrwt>
<pdfrwt beam="1">  1        1 0.34392793E+00 0.61498726E+03</pdfrwt>
<pdfrwt beam="2">0</pdfrwt>
<totfact> 0.23756452E+00</totfact>
</mgrwt>
</event>
<event>
 6    1  0.5655254E-003  0.6513245E+03  0.7818608E-02  0.9804297E-01
          1   -1    0    0  502    0  0.00000000000E+00  0.00000000000E+00  0.10802946434E+03  0.10802946434E+03  0.00000000000E+00 0.  1.
         13   -1    0    0    0    0 -0.00000000000E+00 -0.00000000000E+00 -0.10000000000E+04  0.10000000000E+04  0.00000000000E+00 0.  1.
    9000005    2    1    2  501    0 -0.45418015067E-01 -0.41910792034E-01 -0.89394355865E+03  0.11060554737E+04  0.65132451287E+03 0.  0.
         13    1    3    3    0    0 -0.24642521661E+03 -0.21213746831E+03 -0.41532182421E+03  0.52746555386E+03  0.00000000000E+00 0.  1.
          3    1    3    3  501    0  0.24637979860E+03  0.21209555752E+03 -0.47862173444E+03  0.57858991985E+03  0.00000000000E+00 0.  1.
         21    1    1    2  502  501  0.45418015067E-01  0.41910792034E-01  0.19730229864E+01  0.19739906321E+01  0.00000000000E+00 0.  1.
<mgrwt>
<rscale>  1 0.65132452E+03</rscale>
<asrwt>0</asrwt>
<pdfrwt beam="1">  1        1 0.39283524E+00 0.65132452E+03</pdfrwt>
<pdfrwt beam="2">0</pdfrwt>
<totfact> 0.14393988E+00</totfact>
</mgrwt>
</event>
<event>
 6    1  0.5655254E-003  0.6303887E+03  0.7818608E-02  0.9844291E-01
          1   -1    0    0  502    0  0.00000000000E+00  0.00000000000E+00  0.99355815925E+02  0.99355815925E+02  0.00000000000E+00 0.  1.
         13   -1    0    0    0    0 -0.00000000000E+00 -0.00000000000E+00 -0.10000000000E+04  0.10000000000E+04  0.00000000000E+00 0.  1.
    9000005    2    1    2  501    0  0.76269603874E-03 -0.25465130540E-03 -0.90065250417E+03  0.10993474571E+04  0.63038868811E+03 0.  0.
         13    1    3    3    0    0  0.19503970929E+02  0.30366481172E+03 -0.30699870031E+03  0.43225099740E+03  0.00000000000E+00 0.  1.
          1    1    3    3  501    0 -0.19503208233E+02 -0.30366506637E+03 -0.59365380386E+03  0.66709645967E+03  0.00000000000E+00 0.  1.
         21    1    1    2  502  501 -0.76269603874E-03  0.25465130537E-03  0.83200933294E-02  0.83588579091E-02  0.00000000000E+00 0.  1.
<mgrwt>
<rscale>  1 0.63038869E+03</rscale>
<asrwt>0</asrwt>
<pdfrwt beam="1">  1        1 0.36129464E+00 0.63038869E+03</pdfrwt>
<pdfrwt beam="2">0</pdfrwt>
<totfact> 0.19899204E+00</totfact>
</mgrwt>
</event>
<event>
 6    1  0.5655254E-003  0.6753480E+03  0.7818608E-02  0.9760345E-01
          1   -1    0    0  502    0  0.00000000000E+00  0.00000000000E+00  0.11472194576E+03  0.11472194576E+03  0.00000000000E+00 0.  1.
         13   -1    0    0    0    0 -0.00000000000E+00 -0.00000000000E+00 -0.10000000000E+04  0.10000000000E+04  0.00000000000E+00 0.  1.
    9000005    2    1    2  501    0 -0.45184704230E-01  0.79356468103E-01 -0.88597292993E+03  0.11140210953E+04  0.67534802873E+03 0.  0.
         13    1    3    3    0    0  0.95623869915E+02 -0.31384159787E+03 -0.57441909186E+03  0.66151172790E+03  0.00000000000E+00 0.  1.
          1    1    3    3  501    0 -0.95669054620E+02  0.31392095434E+03 -0.31155383807E+03  0.45250936742E+03  0.00000000000E+00 0.  1.
         21    1    1    2  502  501  0.45184704230E-01 -0.79356468103E-01  0.69487569823E+00  0.70085044233E+00  0.00000000000E+00 0.  1.
<mgrwt>
<rscale>  1 0.67534803E+03</rscale>
<asrwt>0</asrwt>
<pdfrwt beam="1">  1        1 0.41717159E+00 0.67534803E+03</pdfrwt>
<pdfrwt beam="2">0</pdfrwt>
<totfact> 0.11152504E+00</totfact>
</mgrwt>
</event>
<event>
 6    1  0.5655254E-003  0.6561815E+03  0.7818608E-02  0.9795249E-01
          1   -1    0    0  502    0  0.00000000000E+00  0.00000000000E+00  0.10764359540E+03  0.10764359540E+03  0.00000000000E+00 0.  1.
         13   -1    0    0    0    0 -0.00000000000E+00 -0.00000000000E+00 -0.10000000000E+04  0.10000000000E+04  0.00000000000E+00 0.  1.
    9000005    2    1    2  501    0  0.41063573036E-04 -0.69215123432E-04 -0.89235641555E+03  0.11076435142E+04  0.65618151614E+03 0.  0.
         13    1    3    3    0    0 -0.21424491377E+03 -0.20985133099E+03 -0.67078613109E+03  0.73477377325E+03  0.00000000000E+00 0.  1.
          1    1    3    3  501    0  0.21424495484E+03  0.20985126178E+03 -0.22157028445E+03  0.37286974092E+03  0.00000000000E+00 0.  1.
         21    1    1    2  502  501 -0.41063573020E-04  0.69215123426E-04  0.10942625917E-04  0.81220018480E-04  0.00000000000E+00 0. -1.
<mgrwt>
<rscale>  1 0.65618152E+03</rscale>
<asrwt>0</asrwt>
<pdfrwt beam="1">  1        1 0.39143208E+00 0.65618152E+03</pdfrwt>
<pdfrwt beam="2">0</pdfrwt>
<totfact> 0.14588716E+00</totfact>
</mgrwt>
</event>
<event>
 6    1  0.5655254E-003  0.6574413E+03  0.7818608E-02  0.9792915E-01
          1   -1    0    0  502    0  0.00000000000E+00  0.00000000000E+00  0.10806266951E+03  0.10806266951E+03  0.00000000000E+00 0.  1.
         13   -1    0    0    0    0 -0.00000000000E+00 -0.00000000000E+00 -0.10000000000E+04  0.10000000000E+04  0.00000000000E+00 0.  1.
    9000005    2    1    2  501    0  0.48415361846E-04 -0.69068068370E-04 -0.89194273325E+03  0.11080572661E+04  0.65744130198E+03 0.  0.
         13    1    3    3    0    0 -0.11273032025E+03  0.15972894993E+03 -0.57745908844E+00  0.19550395395E+03  0.00000000000E+00 0.  1.
          3    1    3    3  501    0  0.11273036867E+03 -0.15972901900E+03 -0.89136527416E+03  0.91255331215E+03  0.00000000000E+00 0.  1.
         21    1    1    2  502  501 -0.48415361845E-04  0.69068068376E-04  0.54027621077E-02  0.54034204758E-02  0.00000000000E+00 0.  1.
<mgrwt>
<rscale>  1 0.65744130E+03</rscale>
<asrwt>0</asrwt>
<pdfrwt beam="1">  1        1 0.39295599E+00 0.65744130E+03</pdfrwt>
<pdfrwt beam="2">0</pdfrwt>
<totfact> 0.14359828E+00</totfact>
</mgrwt>
</event>
<event>
 6    1  0.5655254E-003  0.6448510E+03  0.7818608E-02  0.9816489E-01
          1   -1    0    0  502    0  0.00000000000E+00  0.00000000000E+00  0.10403380853E+03  0.10403380853E+03  0.00000000000E+00 0.  1.
         13   -1    0    0    0    0 -0.00000000000E+00 -0.00000000000E+00 -0.10000000000E+04  0.10000000000E+04  0.00000000000E+00 0.  1.
    9000005    2    1    2  501    0 -0.15186027339E-01  0.13265644289E-01 -0.89604030549E+03  0.11039570005E+04  0.64485101333E+03 0.  0.
         13    1    3    3    0    0  0.29457822002E+03  0.12747261135E+03 -0.39581125407E+03  0.50959998352E+03  0.00000000000E+00 0.  1.
          1    1    3    3  501    0 -0.29459340605E+03 -0.12745934571E+03 -0.50022905142E+03  0.59435701694E+03  0.00000000000E+00 0.  1.
         21    1    1    2  502  501  0.15186027339E-01 -0.13265644289E-01  0.74114015587E-01  0.76808072825E-01  0.00000000000E+00 0.  1.
<mgrwt>
<rscale>  1 0.64485101E+03</rscale>
<asrwt>0</asrwt>
<pdfrwt beam="1">  1        1 0.37830556E+00 0.64485101E+03</pdfrwt>
<pdfrwt beam="2">0</pdfrwt>
<totfact> 0.16710344E+00</totfact>
</mgrwt>
</event>
<event>
 6    1  0.5655254E-003  0.6482492E+03  0.7818608E-02  0.9810070E-01
          1   -1    0    0  502    0  0.00000000000E+00  0.00000000000E+00  0.10506777575E+03  0.10506777575E+03  0.00000000000E+00 0.  1.
         13   -1    0    0    0    0 -0.00000000000E+00 -0.00000000000E+00 -0.10000000000E+04  0.10000000000E+04  0.00000000000E+00 0.  1.
    9000005    2    1    2  501    0  0.35155711410E-03  0.24605435257E-03 -0.89494325481E+03  0.11050567369E+04  0.64824915144E+03 0.  0.
         13    1    3    3    0    0 -0.59573819891E+01 -0.13245171685E+03 -0.95165831950E+03  0.96084988670E+03  0.00000000000E+00 0.  1.
          1    1    3    3  501    0  0.59577335462E+01  0.13245196291E+03  0.56715064696E+02  0.14420685015E+03  0.00000000000E+00 0.  1.
         21    1    1    2  502  501 -0.35155711410E-03 -0.24605435257E-03  0.11030551800E-01  0.11038895242E-01  0.00000000000E+00 0. -1.
<mgrwt>
<rscale>  1 0.64824915E+03</rscale>
<asrwt>0</asrwt>
<pdfrwt beam="1">  1        1 0.38206544E+00 0.64824915E+03</pdfrwt>
<pdfrwt beam="2">0</pdfrwt>
<totfact> 0.16073966E+00</totfact>
</mgrwt>
</event>
<event>
 6    1  0.5655254E-003  0.6581004E+03  0.7818608E-02  0.9791697E-01
          1   -1    0    0  502    0  0.00000000000E+00  0.00000000000E+00  0.12779673996E+03  0.12779673996E+03  0.00000000000E+00 0.  1.
         13   -1    0    0    0    0 -0.00000000000E+00 -0.00000000000E+00 -0.10000000000E+04  0.10000000000E+04  0.00000000000E+00 0.  1.
    9000005    2    1    2  501    0 -0.28964347155E+00  0.23617975790E+00 -0.89172397043E+03  0.11082724523E+04  0.65810033387E+03 0.  0.
         13    1    3    3    0    0  0.31779318624E+03  0.55394332750E+02 -0.33742158891E+03  0.46681299252E+03  0.00000000000E+00 0.  1.
          1    1    3    3  501    0 -0.31808282971E+03 -0.55158152992E+02 -0.55430238152E+03  0.64145945979E+03  0.00000000000E+00 0.  1.
         21    1    1    2  502  501  0.28964347155E+00 -0.23617975790E+00  0.19520710392E+02  0.19524287655E+02  0.00000000000E+00 0. -1.
<mgrwt>
<rscale>  1 0.65810044E+03</rscale>
<asrwt>0</asrwt>
<pdfrwt beam="1">  1        1 0.46471640E+00 0.65810044E+03</pdfrwt>
<pdfrwt beam="2">0</pdfrwt>
<totfact> 0.67791519E-01</totfact>
</mgrwt>
</event>
<event>
 6    1  0.5655255E-003  0.6578985E+03  0.7818608E-02  0.9792070E-01
          1   -1    0    0  502    0  0.00000000000E+00  0.00000000000E+00  0.10820759717E+03  0.10820759717E+03  0.00000000000E+00 0.  1.
         13   -1    0    0    0    0 -0.00000000000E+00 -0.00000000000E+00 -0.10000000000E+04  0.10000000000E+04  0.00000000000E+00 0.  1.
    9000005    2    1    2  501    0 -0.49451080031E-06  0.47938154353E-05 -0.89179239981E+03  0.11082075915E+04  0.65789845832E+03 0.  0.
         13    1    3    3    0    0  0.27727608701E+03  0.59941341097E+02 -0.72641215485E+03  0.77983947805E+03  0.00000000000E+00 0.  1.
          1    1    3    3  501    0 -0.27727608751E+03 -0.59941336304E+02 -0.16538024496E+03  0.32836811344E+03  0.00000000000E+00 0.  1.
         21    1    1    2  502  501  0.49451084396E-06 -0.47938154392E-05 -0.30139668232E-05  0.56841185289E-05  0.00000000000E+00 0. -1.
<mgrwt>
<rscale>  1 0.65789846E+03</rscale>
<asrwt>0</asrwt>
<pdfrwt beam="1">  1        1 0.39348300E+00 0.65789846E+03</pdfrwt>
<pdfrwt beam="2">0</pdfrwt>
<totfact> 0.14281410E+00</totfact>
</mgrwt>
</event>
<event>
 6    1  0.5655254E-003  0.6409601E+03  0.7818608E-02  0.9823891E-01
          1   -1    0    0  502    0  0.00000000000E+00  0.00000000000E+00  0.10270746812E+03  0.10270746812E+03  0.00000000000E+00 0.  1.
         13   -1    0    0    0    0 -0.00000000000E+00 -0.00000000000E+00 -0.10000000000E+04  0.10000000000E+04  0.00000000000E+00 0.  1.
    9000005    2    1    2  501    0  0.38340109612E-05  0.12584152955E-05 -0.89729253524E+03  0.11027074629E+04  0.64096010395E+03 0.  0.
         13    1    3    3    0    0  0.59394164389E+02  0.27471262682E+03 -0.71356975540E+03  0.76692665225E+03  0.00000000000E+00 0.  1.
          1    1    3    3  501    0 -0.59394160555E+02 -0.27471262556E+03 -0.18372277984E+03  0.33578081062E+03  0.00000000000E+00 0.  1.
         21    1    1    2  502  501 -0.38340109633E-05 -0.12584152597E-05  0.33641822168E-05  0.52536626291E-05  0.00000000000E+00 0. -1.
<mgrwt>
<rscale>  1 0.64096010E+03</rscale>
<asrwt>0</asrwt>
<pdfrwt beam="1">  1        1 0.37348249E+00 0.64096010E+03</pdfrwt>
<pdfrwt beam="2">0</pdfrwt>
<totfact> 0.17560378E+00</totfact>
</mgrwt>
</event>
<event>
 6    1  0.5655254E-003  0.6467447E+03  0.7818608E-02  0.9812907E-01
          1   -1    0    0  502    0  0.00000000000E+00  0.00000000000E+00  0.10728746481E+03  0.10728746481E+03  0.00000000000E+00 0.  1.
         13   -1    0    0    0    0 -0.00000000000E+00 -0.00000000000E+00 -0.10000000000E+04  0.10000000000E+04  0.00000000000E+00 0.  1.
    9000005    2    1    2  501    0 -0.46175123874E+00 -0.14157188064E+01 -0.89520322781E+03  0.11043855648E+04  0.64674294676E+03 0.  0.
         13    1    3    3    0    0 -0.12169071825E+02 -0.20199021293E+03 -0.16525548498E+02  0.20303011152E+03  0.00000000000E+00 0.  1.
          3    1    3    3  501    0  0.11707320586E+02  0.20057449412E+03 -0.87867767931E+03  0.90135545328E+03  0.00000000000E+00 0.  1.
         21    1    1    2  502  501  0.46175123874E+00  0.14157188064E+01  0.24906926139E+01  0.29019000055E+01  0.00000000000E+00 0.  1.
<mgrwt>
<rscale>  1 0.64674466E+03</rscale>
<asrwt>0</asrwt>
<pdfrwt beam="1">  1        1 0.39013706E+00 0.64674466E+03</pdfrwt>
<pdfrwt beam="2">0</pdfrwt>
<totfact> 0.14809018E+00</totfact>
</mgrwt>
</event>
<event>
 6    1  0.5655254E-003  0.6560637E+03  0.7818608E-02  0.9795467E-01
          1   -1    0    0  502    0  0.00000000000E+00  0.00000000000E+00  0.10760945779E+03  0.10760945779E+03  0.00000000000E+00 0.  1.
         13   -1    0    0    0    0 -0.00000000000E+00 -0.00000000000E+00 -0.10000000000E+04  0.10000000000E+04  0.00000000000E+00 0.  1.
    9000005    2    1    2  501    0  0.19616485293E-02  0.28074924218E-02 -0.89239438546E+03  0.11076043099E+04  0.65606369212E+03 0.  0.
         13    1    3    3    0    0  0.11886322603E+03 -0.19066546926E+03 -0.42696709093E+02  0.22870241939E+03  0.00000000000E+00 0.  1.
          1    1    3    3  501    0 -0.11886126438E+03  0.19066827675E+03 -0.84969767637E+03  0.87890189052E+03  0.00000000000E+00 0.  1.
         21    1    1    2  502  501 -0.19616485293E-02 -0.28074924218E-02  0.38432520118E-02  0.51478796293E-02  0.00000000000E+00 0.  1.
<mgrwt>
<rscale>  1 0.65606369E+03</rscale>
<asrwt>0</asrwt>
<pdfrwt beam="1">  1        1 0.39130794E+00 0.65606369E+03</pdfrwt>
<pdfrwt beam="2">0</pdfrwt>
<totfact> 0.14607553E+00</totfact>
</mgrwt>
</event>
<event>
 6    1  0.5655254E-003  0.6633539E+03  0.7818608E-02  0.9782039E-01
          1   -1    0    0  502    0  0.00000000000E+00  0.00000000000E+00  0.11399704261E+03  0.11399704261E+03  0.00000000000E+00 0.  1.
         13   -1    0    0    0    0 -0.00000000000E+00 -0.00000000000E+00 -0.10000000000E+04  0.10000000000E+04  0.00000000000E+00 0.  1.
    9000005    2    1    2  501    0 -0.76965581925E+01  0.63994375572E+01 -0.88097891138E+03  0.11027974512E+04  0.66327836261E+03 0.  0.
         13    1    3    3    0    0  0.23615666513E+03  0.14511341816E+03 -0.14008526693E+03  0.31056683117E+03  0.00000000000E+00 0.  1.
          1    1    3    3  501    0 -0.24385322333E+03 -0.13871398060E+03 -0.74089364445E+03  0.79223062004E+03  0.00000000000E+00 0.  1.
         21    1    1    2  502  501  0.76965581925E+01 -0.63994375572E+01 -0.50240460160E+01  0.11199591396E+02  0.00000000000E+00 0. -1.
<mgrwt>
<rscale>  1 0.66335388E+03</rscale>
<asrwt>0</asrwt>
<pdfrwt beam="1">  1        1 0.41453557E+00 0.66335388E+03</pdfrwt>
<pdfrwt beam="2">0</pdfrwt>
<totfact> 0.11487731E+00</totfact>
</mgrwt>
</event>
<event>
 6    1  0.5655254E-003  0.6593673E+03  0.7818608E-02  0.9789359E-01
          1   -1    0    0  502    0  0.00000000000E+00  0.00000000000E+00  0.10869131421E+03  0.10869131421E+03  0.00000000000E+00 0.  1.
         13   -1    0    0    0    0 -0.00000000000E+00 -0.00000000000E+00 -0.10000000000E+04  0.10000000000E+04  0.00000000000E+00 0.  1.
    9000005    2    1    2  501    0  0.22683242111E-05 -0.42507173816E-05 -0.89130868670E+03  0.11086913093E+04  0.65936730610E+03 0.  0.
         13    1    3    3    0    0  0.44976800726E+01  0.23594691985E+03 -0.58555644361E+02  0.24314592655E+03  0.00000000000E+00 0.  1.
          3    1    3    3  501    0 -0.44976778043E+01 -0.23594692410E+03 -0.83275304233E+03  0.86554538276E+03  0.00000000000E+00 0.  1.
         21    1    1    2  502  501 -0.22683242103E-05  0.42507173562E-05  0.90541498780E-06  0.49024146158E-05  0.00000000000E+00 0.  1.
<mgrwt>
<rscale>  1 0.65936731E+03</rscale>
<asrwt>0</asrwt>
<pdfrwt beam="1">  1        1 0.39524198E+00 0.65936731E+03</pdfrwt>
<pdfrwt beam="2">0</pdfrwt>
<totfact> 0.14022752E+00</totfact>
</mgrwt>
</event>
<event>
 6    1  0.5655254E-003  0.6056031E+03  0.7818608E-02  0.9893849E-01
          1   -1    0    0  502    0  0.00000000000E+00  0.00000000000E+00  0.91689215390E+02  0.91689215390E+02  0.00000000000E+00 0.  1.
         13   -1    0    0    0    0 -0.00000000000E+00 -0.00000000000E+00 -0.10000000000E+04  0.10000000000E+04  0.00000000000E+00 0.  1.
    9000005    2    1    2  501    0 -0.13234820590E-02 -0.54117693679E-03 -0.90830798315E+03  0.10916860701E+04  0.60560307418E+03 0.  0.
         13    1    3    3    0    0  0.26062601603E+03  0.64848955055E+02 -0.20205949455E+03  0.33609425247E+03  0.00000000000E+00 0.  1.
          3    1    3    3  501    0 -0.26062733952E+03 -0.64849496232E+02 -0.70624848860E+03  0.75559181766E+03  0.00000000000E+00 0.  1.
         21    1    1    2  502  501  0.13234820590E-02  0.54117693679E-03 -0.28014602989E-02  0.31452594557E-02  0.00000000000E+00 0.  1.
<mgrwt>
<rscale>  1 0.60560307E+03</rscale>
<asrwt>0</asrwt>
<pdfrwt beam="1">  1        1 0.33341603E+00 0.60560307E+03</pdfrwt>
<pdfrwt beam="2">0</pdfrwt>
<totfact> 0.26432868E+00</totfact>
</mgrwt>
</event>
<event>
 6    1  0.5655254E-003  0.6485479E+03  0.7818608E-02  0.9809508E-01
          1   -1    0    0  502    0  0.00000000000E+00  0.00000000000E+00  0.10628698262E+03  0.10628698262E+03  0.00000000000E+00 0.  1.
         13   -1    0    0    0    0 -0.00000000000E+00 -0.00000000000E+00 -0.10000000000E+04  0.10000000000E+04  0.00000000000E+00 0.  1.
    9000005    2    1    2  501    0 -0.26055723654E+00  0.18773864697E+00 -0.89482120559E+03  0.11051331989E+04  0.64854783486E+03 0.  0.
         13    1    3    3    0    0 -0.14031184113E+03  0.28596978001E+03 -0.55233595534E+03  0.63760578369E+03  0.00000000000E+00 0.  1.
          3    1    3    3  501    0  0.14005128389E+03 -0.28578204136E+03 -0.34248525025E+03  0.46752741516E+03  0.00000000000E+00 0.  1.
         21    1    1    2  502  501  0.26055723654E+00 -0.18773864697E+00  0.11081882058E+01  0.11537837634E+01  0.00000000000E+00 0.  1.
<mgrwt>
<rscale>  1 0.64854791E+03</rscale>
<asrwt>0</asrwt>
<pdfrwt beam="1">  1        1 0.38649893E+00 0.64854791E+03</pdfrwt>
<pdfrwt beam="2">0</pdfrwt>
<totfact> 0.15363735E+00</totfact>
</mgrwt>
</event>
<event>
 6    1  0.5655254E-003  0.6496497E+03  0.7818608E-02  0.9807437E-01
          1   -1    0    0  502    0  0.00000000000E+00  0.00000000000E+00  0.10551118731E+03  0.10551118731E+03  0.00000000000E+00 0.  1.
         13   -1    0    0    0    0 -0.00000000000E+00 -0.00000000000E+00 -0.10000000000E+04  0.10000000000E+04  0.00000000000E+00 0.  1.
    9000005    2    1    2  501    0  0.47036237305E-05 -0.14125631992E-04 -0.89448879595E+03  0.11055111649E+04  0.64964969766E+03 0.  0.
         13    1    3    3    0    0 -0.12082286127E+03  0.28313611353E+03 -0.27083300198E+03  0.41001797223E+03  0.00000000000E+00 0.  1.
          1    1    3    3  501    0  0.12082286597E+03 -0.28313612765E+03 -0.62365579397E+03  0.69549319269E+03  0.00000000000E+00 0.  1.
         21    1    1    2  502  501 -0.47036237319E-05  0.14125631976E-04 -0.16733871277E-04  0.22398214278E-04  0.00000000000E+00 0. -1.
<mgrwt>
<rscale>  1 0.64964970E+03</rscale>
<asrwt>0</asrwt>
<pdfrwt beam="1">  1        1 0.38367785E+00 0.64964970E+03</pdfrwt>
<pdfrwt beam="2">0</pdfrwt>
<totfact> 0.15808349E+00</totfact>
</mgrwt>
</event>
<event>
 6    1  0.5655254E-003  0.6334818E+03  0.7818608E-02  0.9838278E-01
          1   -1    0    0  502    0  0.00000000000E+00  0.00000000000E+00  0.10044260207E+03  0.10044260207E+03  0.00000000000E+00 0.  1.
         13   -1    0    0    0    0 -0.00000000000E+00 -0.00000000000E+00 -0.10000000000E+04  0.10000000000E+04  0.00000000000E+00 0.  1.
    9000005    2    1    2  501    0  0.11436274992E-01  0.10669171070E-01 -0.89967462180E+03  0.11003243394E+04  0.63348182812E+03 0.  0.
         13    1    3    3    0    0 -0.36333170760E+02 -0.31376577632E+03 -0.40902053356E+03  0.51678511836E+03  0.00000000000E+00 0.  1.
          3    1    3    3  501    0  0.36344607035E+02  0.31377644549E+03 -0.49065408824E+03  0.58353922105E+03  0.00000000000E+00 0.  1.
         21    1    1    2  502  501 -0.11436274992E-01 -0.10669171070E-01  0.11722387167E+00  0.11826265550E+00  0.00000000000E+00 0.  1.
<mgrwt>
<rscale>  1 0.63348183E+03</rscale>
<asrwt>0</asrwt>
<pdfrwt beam="1">  1        1 0.36524660E+00 0.63348183E+03</pdfrwt>
<pdfrwt beam="2">0</pdfrwt>
<totfact> 0.19111115E+00</totfact>
</mgrwt>
</event>
<event>
 6    1  0.5655254E-003  0.6459170E+03  0.7818608E-02  0.9814471E-01
          1   -1    0    0  502    0  0.00000000000E+00  0.00000000000E+00  0.10432253336E+03  0.10432253336E+03  0.00000000000E+00 0.  1.
         13   -1    0    0    0    0 -0.00000000000E+00 -0.00000000000E+00 -0.10000000000E+04  0.10000000000E+04  0.00000000000E+00 0.  1.
    9000005    2    1    2  501    0 -0.32978338513E-01 -0.50096670626E-02 -0.89568146863E+03  0.11042889375E+04  0.64591699395E+03 0.  0.
         13    1    3    3    0    0  0.25945081848E+03 -0.27234846181E+02 -0.77327242518E+03  0.81609234012E+03  0.00000000000E+00 0.  1.
          3    1    3    3  501    0 -0.25948379682E+03  0.27229836514E+02 -0.12240904345E+03  0.28819659736E+03  0.00000000000E+00 0.  1.
         21    1    1    2  502  501  0.32978338513E-01  0.50096670626E-02  0.40019925661E-02  0.33595885457E-01  0.00000000000E+00 0.  1.
<mgrwt>
<rscale>  1 0.64591699E+03</rscale>
<asrwt>0</asrwt>
<pdfrwt beam="1">  1        1 0.37935547E+00 0.64591699E+03</pdfrwt>
<pdfrwt beam="2">0</pdfrwt>
<totfact> 0.16529913E+00</totfact>
</mgrwt>
</event>
<event>
 6    1  0.5655254E-003  0.6204976E+03  0.7818608E-02  0.9863770E-01
          1   -1    0    0  502    0  0.00000000000E+00  0.00000000000E+00  0.10036641006E+03  0.10036641006E+03  0.00000000000E+00 0.  1.
         13   -1    0    0    0    0 -0.00000000000E+00 -0.00000000000E+00 -0.10000000000E+04  0.10000000000E+04  0.00000000000E+00 0.  1.
    9000005    2    1    2  501    0 -0.63514587825E+01 -0.44386531512E+01 -0.89932342610E+03  0.10926114844E+04  0.62044918279E+03 0.  0.
         13    1    3    3    0    0 -0.21498042752E+03 -0.17977146506E+03 -0.20646221389E+03  0.34808190076E+03  0.00000000000E+00 0.  1.
          3    1    3    3  501    0  0.20862896874E+03  0.17533281191E+03 -0.69286121221E+03  0.74452958364E+03  0.00000000000E+00 0.  1.
         21    1    1    2  502  501  0.63514587825E+01  0.44386531512E+01 -0.31016383977E+00  0.77549256650E+01  0.00000000000E+00 0.  1.
<mgrwt>
<rscale>  1 0.62049757E+03</rscale>
<asrwt>0</asrwt>
<pdfrwt beam="1">  1        1 0.36496953E+00 0.62049757E+03</pdfrwt>
<pdfrwt beam="2">0</pdfrwt>
<totfact> 0.19210209E+00</totfact>
</mgrwt>
</event>
<event>
 6    1  0.5655254E-003  0.6415544E+03  0.7818608E-02  0.9822757E-01
          1   -1    0    0  502    0  0.00000000000E+00  0.00000000000E+00  0.13976076653E+03  0.13976076653E+03  0.00000000000E+00 0.  1.
         13   -1    0    0    0    0 -0.00000000000E+00 -0.00000000000E+00 -0.10000000000E+04  0.10000000000E+04  0.00000000000E+00 0.  1.
    9000005    2    1    2  501    0 -0.80324353243E+00 -0.53012652435E-01 -0.89709715262E+03  0.11028940578E+04  0.64155385856E+03 0.  0.
         13    1    3    3    0    0  0.22007573876E+03  0.20732539711E+03 -0.63082326164E+03  0.69953923300E+03  0.00000000000E+00 0.  1.
          1    1    3    3  501    0 -0.22087898229E+03 -0.20737840976E+03 -0.26627389098E+03  0.40335482477E+03  0.00000000000E+00 0.  1.
         21    1    1    2  502  501  0.80324353243E+00  0.53012652435E-01  0.36857919152E+02  0.36866708759E+02  0.00000000000E+00 0.  1.
<mgrwt>
<rscale>  1 0.64155436E+03</rscale>
<asrwt>0</asrwt>
<pdfrwt beam="1">  1        1 0.50822204E+00 0.64155436E+03</pdfrwt>
<pdfrwt beam="2">0</pdfrwt>
<totfact> 0.42279772E-01</totfact>
</mgrwt>
</event>
<event>
 6    1  0.5655254E-003  0.6602195E+03  0.7818608E-02  0.9787790E-01
          1   -1    0    0  502    0  0.00000000000E+00  0.00000000000E+00  0.11101853721E+03  0.11101853721E+03  0.00000000000E+00 0.  1.
         13   -1    0    0    0    0 -0.00000000000E+00 -0.00000000000E+00 -0.10000000000E+04  0.10000000000E+04  0.00000000000E+00 0.  1.
    9000005    2    1    2  501    0 -0.60367449580E+00  0.87331647366E+00 -0.89087368071E+03  0.11088488383E+04  0.66021867906E+03 0.  0.
         13    1    3    3    0    0 -0.19495004795E+03 -0.19490598414E+03 -0.14057376351E+03  0.30944280059E+03  0.00000000000E+00 0.  1.
          3    1    3    3  501    0  0.19434637346E+03  0.19577930062E+03 -0.75029991720E+03  0.79940603774E+03  0.00000000000E+00 0.  1.
         21    1    1    2  502  501  0.60367449580E+00 -0.87331647366E+00  0.18922179184E+01  0.21696988756E+01  0.00000000000E+00 0. -1.
<mgrwt>
<rscale>  1 0.66021953E+03</rscale>
<asrwt>0</asrwt>
<pdfrwt beam="1">  1        1 0.40370462E+00 0.66021953E+03</pdfrwt>
<pdfrwt beam="2">0</pdfrwt>
<totfact> 0.12854069E+00</totfact>
</mgrwt>
</event>
<event>
 6    1  0.5655254E-003  0.6479836E+03  0.7818608E-02  0.9810570E-01
          1   -1    0    0  502    0  0.00000000000E+00  0.00000000000E+00  0.10506375269E+03  0.10506375269E+03  0.00000000000E+00 0.  1.
         13   -1    0    0    0    0 -0.00000000000E+00 -0.00000000000E+00 -0.10000000000E+04  0.10000000000E+04  0.00000000000E+00 0.  1.
    9000005    2    1    2  501    0  0.26683338933E-03 -0.22156241715E-02 -0.89502928495E+03  0.11049706883E+04  0.64798364258E+03 0.  0.
         13    1    3    3    0    0  0.62222489265E+02  0.31158812514E+03 -0.55551362054E+03  0.63996420252E+03  0.00000000000E+00 0.  1.
          1    1    3    3  501    0 -0.62222222432E+02 -0.31159034077E+03 -0.33951566441E+03  0.46500648576E+03  0.00000000000E+00 0.  1.
         21    1    1    2  502  501 -0.26683338933E-03  0.22156241715E-02  0.93037643640E-01  0.93064404176E-01  0.00000000000E+00 0.  1.
<mgrwt>
<rscale>  1 0.64798364E+03</rscale>
<asrwt>0</asrwt>
<pdfrwt beam="1">  1        1 0.38205082E+00 0.64798364E+03</pdfrwt>
<pdfrwt beam="2">0</pdfrwt>
<totfact> 0.16077143E+00</totfact>
</mgrwt>
</event>
<event>
 6    1  0.5655254E-003  0.6461974E+03  0.7818608E-02  0.9813941E-01
          1   -1    0    0  502    0  0.00000000000E+00  0.00000000000E+00  0.10466787258E+03  0.10466787258E+03  0.00000000000E+00 0.  1.
         13   -1    0    0    0    0 -0.00000000000E+00 -0.00000000000E+00 -0.10000000000E+04  0.10000000000E+04  0.00000000000E+00 0.  1.
    9000005    2    1    2  501    0  0.50391426343E-01  0.16199933488E+00 -0.89557806089E+03  0.11043690978E+04  0.64619734779E+03 0.  0.
         13    1    3    3    0    0  0.18895085162E+03 -0.85017744539E+02 -0.87146036594E+03  0.89575309691E+03  0.00000000000E+00 0.  1.
          3    1    3    3  501    0 -0.18890046020E+03  0.85179743874E+02 -0.24117694953E+02  0.20861600092E+03  0.00000000000E+00 0.  1.
         21    1    1    2  502  501 -0.50391426343E-01 -0.16199933488E+00  0.24593347772E+00  0.29877475766E+00  0.00000000000E+00 0.  1.
<mgrwt>
<rscale>  1 0.64619737E+03</rscale>
<asrwt>0</asrwt>
<pdfrwt beam="1">  1        1 0.38061125E+00 0.64619737E+03</pdfrwt>
<pdfrwt beam="2">0</pdfrwt>
<totfact> 0.16319523E+00</totfact>
</mgrwt>
</event>
<event>
 6    1  0.5655254E-003  0.6523801E+03  0.7818608E-02  0.9802323E-01
          1   -1    0    0  502    0  0.00000000000E+00  0.00000000000E+00  0.10651187569E+03  0.10651187569E+03  0.00000000000E+00 0.  1.
         13   -1    0    0    0    0 -0.00000000000E+00 -0.00000000000E+00 -0.10000000000E+04  0.10000000000E+04  0.00000000000E+00 0.  1.
    9000005    2    1    2  501    0 -0.99904380619E-02  0.10049048949E-01 -0.89359955768E+03  0.11063995450E+04  0.65238009123E+03 0.  0.
         13    1    3    3    0    0 -0.34980118734E+01 -0.27803358645E+03 -0.15757587718E+03  0.31960142107E+03  0.00000000000E+00 0.  1.
          3    1    3    3  501    0  0.34880214353E+01  0.27804363549E+03 -0.73602368050E+03  0.78679812391E+03  0.00000000000E+00 0.  1.
         21    1    1    2  502  501  0.99904380619E-02 -0.10049048949E-01  0.11143336956E+00  0.11233070857E+00  0.00000000000E+00 0. -1.
<mgrwt>
<rscale>  1 0.65238009E+03</rscale>
<asrwt>0</asrwt>
<pdfrwt beam="1">  1        1 0.38731673E+00 0.65238009E+03</pdfrwt>
<pdfrwt beam="2">0</pdfrwt>
<totfact> 0.15225365E+00</totfact>
</mgrwt>
</event>
<event>
 6    1  0.5655254E-003  0.6739812E+03  0.7818608E-02  0.9762792E-01
          1   -1    0    0  502    0  0.00000000000E+00  0.00000000000E+00  0.13388660845E+03  0.13388660845E+03  0.00000000000E+00 0.  1.
         13   -1    0    0    0    0 -0.00000000000E+00 -0.00000000000E+00 -0.10000000000E+04  0.10000000000E+04  0.00000000000E+00 0.  1.
    9000005    2    1    2  501    0 -0.32025965557E+01  0.15348137928E+02 -0.88300998417E+03  0.11108362982E+04  0.67379880319E+03 0.  0.
         13    1    3    3    0    0 -0.13432238458E+03  0.31385937449E+03 -0.37425359268E+03  0.50657276041E+03  0.00000000000E+00 0.  1.
          3    1    3    3  501    0  0.13111978802E+03 -0.29851123656E+03 -0.50875639149E+03  0.60426353774E+03  0.00000000000E+00 0.  1.
         21    1    1    2  502  501  0.32025965557E+01 -0.15348137928E+02  0.16896592627E+02  0.23050310300E+02  0.00000000000E+00 0. -1.
<mgrwt>
<rscale>  1 0.67398119E+03</rscale>
<asrwt>0</asrwt>
<pdfrwt beam="1">  1        1 0.48686142E+00 0.67398119E+03</pdfrwt>
<pdfrwt beam="2">0</pdfrwt>
<totfact> 0.53149356E-01</totfact>
</mgrwt>
</event>
<event>
 6    1  0.5655254E-003  0.6429419E+03  0.7818608E-02  0.9820114E-01
          1   -1    0    0  502    0  0.00000000000E+00  0.00000000000E+00  0.10334358986E+03  0.10334358986E+03  0.00000000000E+00 0.  1.
         13   -1    0    0    0    0 -0.00000000000E+00 -0.00000000000E+00 -0.10000000000E+04  0.10000000000E+04  0.00000000000E+00 0.  1.
    9000005    2    1    2  501    0  0.35148456874E-05  0.20941103003E-05 -0.89665642262E+03  0.11033435767E+04  0.64294191655E+03 0.  0.
         13    1    3    3    0    0 -0.27849168214E+02 -0.16070707224E+03  0.27065497429E+02  0.16533263559E+03  0.00000000000E+00 0.  1.
          1    1    3    3  501    0  0.27849171728E+02  0.16070707434E+03 -0.92372192005E+03  0.93801094114E+03  0.00000000000E+00 0.  1.
         21    1    1    2  502  501 -0.35148456878E-05 -0.20941103200E-05  0.12486129725E-04  0.13139363521E-04  0.00000000000E+00 0. -1.
<mgrwt>
<rscale>  1 0.64294192E+03</rscale>
<asrwt>0</asrwt>
<pdfrwt beam="1">  1        1 0.37579566E+00 0.64294192E+03</pdfrwt>
<pdfrwt beam="2">0</pdfrwt>
<totfact> 0.17147307E+00</totfact>
</mgrwt>
</event>
<event>
 6    1  0.5655254E-003  0.6065937E+03  0.7818608E-02  0.9891820E-01
          1   -1    0    0  502    0  0.00000000000E+00  0.00000000000E+00  0.91989008568E+02  0.91989008568E+02  0.00000000000E+00 0.  1.
         13   -1    0    0    0    0 -0.00000000000E+00 -0.00000000000E+00 -0.10000000000E+04  0.10000000000E+04  0.00000000000E+00 0.  1.
    9000005    2    1    2  501    0 -0.37259238084E-04 -0.11839410547E-04 -0.90801100381E+03  0.10919889676E+04  0.60659370442E+03 0.  0.
         13    1    3    3    0    0  0.79697719928E+02 -0.27715634598E+03 -0.62308633700E+03  0.68658863233E+03  0.00000000000E+00 0.  1.
          3    1    3    3  501    0 -0.79697757188E+02  0.27715633414E+03 -0.28492466680E+03  0.40540033523E+03  0.00000000000E+00 0.  1.
         21    1    1    2  502  501  0.37259238085E-04  0.11839410557E-04  0.12376426882E-04  0.41007297001E-04  0.00000000000E+00 0.  1.
<mgrwt>
<rscale>  1 0.60659370E+03</rscale>
<asrwt>0</asrwt>
<pdfrwt beam="1">  1        1 0.33450619E+00 0.60659370E+03</pdfrwt>
<pdfrwt beam="2">0</pdfrwt>
<totfact> 0.26142148E+00</totfact>
</mgrwt>
</event>
<event>
 6    1  0.5655254E-003  0.6580516E+03  0.7818608E-02  0.9791787E-01
          1   -1    0    0  502    0  0.00000000000E+00  0.00000000000E+00  0.10905567600E+03  0.10905567600E+03  0.00000000000E+00 0.  1.
         13   -1    0    0    0    0 -0.00000000000E+00 -0.00000000000E+00 -0.10000000000E+04  0.10000000000E+04  0.00000000000E+00 0.  1.
    9000005    2    1    2  501    0  0.42494595909E+00  0.73478422127E+00 -0.89148360483E+03  0.11080500365E+04  0.65805102027E+03 0.  0.
         13    1    3    3    0    0  0.70492521178E+02 -0.30128323227E+03 -0.25840730225E+03  0.40313163539E+03  0.00000000000E+00 0.  1.
          1    1    3    3  501    0 -0.70067575219E+02  0.30201801649E+03 -0.63307630258E+03  0.70491840115E+03  0.00000000000E+00 0.  1.
         21    1    1    2  502  501 -0.42494595909E+00 -0.73478422127E+00  0.53928083301E+00  0.10056394666E+01  0.00000000000E+00 0.  1.
<mgrwt>
<rscale>  1 0.65805157E+03</rscale>
<asrwt>0</asrwt>
<pdfrwt beam="1">  1        1 0.39656693E+00 0.65805157E+03</pdfrwt>
<pdfrwt beam="2">0</pdfrwt>
<totfact> 0.13837107E+00</totfact>
</mgrwt>
</event>
<event>
 6    1  0.5655254E-003  0.6399559E+03  0.7818608E-02  0.9825811E-01
          1   -1    0    0  502    0  0.00000000000E+00  0.00000000000E+00  0.10238589671E+03  0.10238589671E+03  0.00000000000E+00 0.  1.
         13   -1    0    0    0    0 -0.00000000000E+00 -0.00000000000E+00 -0.10000000000E+04  0.10000000000E+04  0.00000000000E+00 0.  1.
    9000005    2    1    2  501    0 -0.10090692797E-05 -0.40883417398E-05 -0.89761410839E+03  0.11023858901E+04  0.63995590714E+03 0.  0.
         13    1    3    3    0    0  0.11667775797E+03 -0.18460762805E+03 -0.45954286389E+02  0.22317139596E+03  0.00000000000E+00 0.  1.
          1    1    3    3  501    0 -0.11667775898E+03  0.18460762396E+03 -0.85165982201E+03  0.87921449413E+03  0.00000000000E+00 0.  1.
         21    1    1    2  502  501  0.10090692776E-05  0.40883417285E-05  0.51030563551E-05  0.66161879553E-05  0.00000000000E+00 0. -1.
<mgrwt>
<rscale>  1 0.63995591E+03</rscale>
<asrwt>0</asrwt>
<pdfrwt beam="1">  1        1 0.37231314E+00 0.63995591E+03</pdfrwt>
<pdfrwt beam="2">0</pdfrwt>
<totfact> 0.17772798E+00</totfact>
</mgrwt>
</event>
<event>
 6    1  0.5655254E-003  0.6015570E+03  0.7818608E-02  0.9902181E-01
          1   -1    0    0  502    0  0.00000000000E+00  0.00000000000E+00  0.90467813395E+02  0.90467813395E+02  0.00000000000E+00 0.  1.
         13   -1    0    0    0    0 -0.00000000000E+00 -0.00000000000E+00 -0.10000000000E+04  0.10000000000E+04  0.00000000000E+00 0.  1.
    9000005    2    1    2  501    0  0.58013583697E-05  0.17545831753E-04 -0.90953228272E+03  0.10904677155E+04  0.60155703411E+03 0.  0.
         13    1    3    3    0    0  0.75080699269E+02  0.17259801972E+03 -0.29483843922E+02  0.19051636377E+03  0.00000000000E+00 0.  1.
          1    1    3    3  501    0 -0.75080693467E+02 -0.17259800217E+03 -0.88004843880E+03  0.89995135175E+03  0.00000000000E+00 0.  1.
         21    1    1    2  502  501 -0.58013583643E-05 -0.17545831743E-04  0.96114509541E-04  0.97874975937E-04  0.00000000000E+00 0.  1.
<mgrwt>
<rscale>  1 0.60155703E+03</rscale>
<asrwt>0</asrwt>
<pdfrwt beam="1">  1        1 0.32897456E+00 0.60155703E+03</pdfrwt>
<pdfrwt beam="2">0</pdfrwt>
<totfact> 0.27650248E+00</totfact>
</mgrwt>
</event>
<event>
 6    1  0.5655254E-003  0.6228702E+03  0.7818608E-02  0.9859062E-01
          1   -1    0    0  502    0  0.00000000000E+00  0.00000000000E+00  0.96993040321E+02  0.96993040321E+02  0.00000000000E+00 0.  1.
         13   -1    0    0    0    0 -0.00000000000E+00 -0.00000000000E+00 -0.10000000000E+04  0.10000000000E+04  0.00000000000E+00 0.  1.
    9000005    2    1    2  501    0 -0.19152670533E-02 -0.23573178331E-03 -0.90300727533E+03  0.10969910850E+04  0.62287021213E+03 0.  0.
         13    1    3    3    0    0  0.10986610683E+02 -0.24073697879E+03 -0.10406801722E+03  0.26249790624E+03  0.00000000000E+00 0.  1.
          3    1    3    3  501    0 -0.10988525950E+02  0.24073674306E+03 -0.79893925812E+03  0.83449317872E+03  0.00000000000E+00 0.  1.
         21    1    1    2  502  501  0.19152670533E-02  0.23573178330E-03  0.31565518044E-03  0.19553658358E-02  0.00000000000E+00 0. -1.
<mgrwt>
<rscale>  1 0.62287021E+03</rscale>
<asrwt>0</asrwt>
<pdfrwt beam="1">  1        1 0.35270271E+00 0.62287021E+03</pdfrwt>
<pdfrwt beam="2">0</pdfrwt>
<totfact> 0.21724864E+00</totfact>
</mgrwt>
</event>
<event>
 6    1  0.5655254E-003  0.6517913E+03  0.7818608E-02  0.9803424E-01
          1   -1    0    0  502    0  0.00000000000E+00  0.00000000000E+00  0.10718985636E+03  0.10718985636E+03  0.00000000000E+00 0.  1.
         13   -1    0    0    0    0 -0.00000000000E+00 -0.00000000000E+00 -0.10000000000E+04  0.10000000000E+04  0.00000000000E+00 0.  1.
    9000005    2    1    2  501    0 -0.13418730573E+00  0.24675396693E-01 -0.89378678175E+03  0.11062037341E+04  0.65179127910E+03 0.  0.
         13    1    3    3    0    0  0.89670934674E+02 -0.13625610952E+03  0.31928727872E+02  0.16621085274E+03  0.00000000000E+00 0.  1.
          3    1    3    3  501    0 -0.89805121980E+02  0.13628078491E+03 -0.92571550962E+03  0.93999288137E+03  0.00000000000E+00 0.  1.
         21    1    1    2  502  501  0.13418730573E+00 -0.24675396693E-01  0.97663810301E+00  0.98612225027E+00  0.00000000000E+00 0.  1.
<mgrwt>
<rscale>  1 0.65179129E+03</rscale>
<asrwt>0</asrwt>
<pdfrwt beam="1">  1        1 0.38978212E+00 0.65179129E+03</pdfrwt>
<pdfrwt beam="2">0</pdfrwt>
<totfact> 0.14848775E+00</totfact>
</mgrwt>
</event>
<event>
 6    1  0.5655254E-003  0.5242354E+03  0.7818608E-02  0.1007640E+00
          1   -1    0    0  502    0  0.00000000000E+00  0.00000000000E+00  0.68706955762E+02  0.68706955762E+02  0.00000000000E+00 0.  1.
         13   -1    0    0    0    0 -0.00000000000E+00 -0.00000000000E+00 -0.10000000000E+04  0.10000000000E+04  0.00000000000E+00 0.  1.
    9000005    2    1    2  501    0  0.16160993221E-02 -0.11843819556E-03 -0.93129375439E+03  0.10687051865E+04  0.52423536583E+03 0.  0.
         13    1    3    3    0    0 -0.20229851829E+03  0.15989563387E+03 -0.36972258173E+03  0.45076167947E+03  0.00000000000E+00 0.  1.
          3    1    3    3  501    0  0.20230013439E+03 -0.15989575231E+03 -0.56157117266E+03  0.61794350708E+03  0.00000000000E+00 0.  1.
         21    1    1    2  502  501 -0.16160993221E-02  0.11843819556E-03  0.71015213499E-03  0.17692147071E-02  0.00000000000E+00 0.  1.
<mgrwt>
<rscale>  1 0.52423537E+03</rscale>
<asrwt>0</asrwt>
<pdfrwt beam="1">  1        1 0.24984400E+00 0.52423537E+03</pdfrwt>
<pdfrwt beam="2">0</pdfrwt>
<totfact> 0.61604231E+00</totfact>
</mgrwt>
</event>
<event>
 6    1  0.5655254E-003  0.6452906E+03  0.7818608E-02  0.9815656E-01
          1   -1    0    0  502    0  0.00000000000E+00  0.00000000000E+00  0.10410265936E+03  0.10410265936E+03  0.00000000000E+00 0.  1.
         13   -1    0    0    0    0 -0.00000000000E+00 -0.00000000000E+00 -0.10000000000E+04  0.10000000000E+04  0.00000000000E+00 0.  1.
    9000005    2    1    2  501    0 -0.25042373661E-02  0.20175500431E-02 -0.89589890807E+03  0.11040990819E+04  0.64529057722E+03 0.  0.
         13    1    3    3    0    0 -0.29455401347E+03  0.24021060717E+02 -0.66947047544E+03  0.73179901318E+03  0.00000000000E+00 0.  1.
          3    1    3    3  501    0  0.29455150923E+03 -0.24019043167E+02 -0.22642843263E+03  0.37230006867E+03  0.00000000000E+00 0.  1.
         21    1    1    2  502  501  0.25042373661E-02 -0.20175500431E-02  0.15674252370E-02  0.35775039952E-02  0.00000000000E+00 0.  1.
<mgrwt>
<rscale>  1 0.64529058E+03</rscale>
<asrwt>0</asrwt>
<pdfrwt beam="1">  1        1 0.37855592E+00 0.64529058E+03</pdfrwt>
<pdfrwt beam="2">0</pdfrwt>
<totfact> 0.16666581E+00</totfact>
</mgrwt>
</event>
<event>
 6    1  0.5655254E-003  0.6499380E+03  0.7818608E-02  0.9806896E-01
          1   -1    0    0  502    0  0.00000000000E+00  0.00000000000E+00  0.10755448562E+03  0.10755448562E+03  0.00000000000E+00 0.  1.
         13   -1    0    0    0    0 -0.00000000000E+00 -0.00000000000E+00 -0.10000000000E+04  0.10000000000E+04  0.00000000000E+00 0.  1.
    9000005    2    1    2  501    0  0.74737277404E+00  0.17809654953E+01 -0.89385179910E+03  0.11051653350E+04  0.64993511096E+03 0.  0.
         13    1    3    3    0    0 -0.18161782115E+03 -0.26588761809E+03 -0.38400973810E+03  0.50114342994E+03  0.00000000000E+00 0.  1.
          1    1    3    3  501    0  0.18236519392E+03  0.26766858359E+03 -0.50984206099E+03  0.60402190503E+03  0.00000000000E+00 0.  1.
         21    1    1    2  502  501 -0.74737277404E+00 -0.17809654953E+01  0.14062847171E+01  0.23891506575E+01  0.00000000000E+00 0. -1.
<mgrwt>
<rscale>  1 0.64993798E+03</rscale>
<asrwt>0</asrwt>
<pdfrwt beam="1">  1        1 0.39110805E+00 0.64993798E+03</pdfrwt>
<pdfrwt beam="2">0</pdfrwt>
<totfact> 0.14654132E+00</totfact>
</mgrwt>
</event>
<event>
 6    1  0.5655254E-003  0.6485088E+03  0.7818608E-02  0.9809581E-01
          1   -1    0    0  502    0  0.00000000000E+00  0.00000000000E+00  0.10515657307E+03  0.10515657307E+03  0.00000000000E+00 0.  1.
         13   -1    0    0    0    0 -0.00000000000E+00 -0.00000000000E+00 -0.10000000000E+04  0.10000000000E+04  0.00000000000E+00 0.  1.
    9000005    2    1    2  501    0 -0.26087229292E-02  0.89604944478E-04 -0.89485896724E+03  0.11051408151E+04  0.64850878935E+03 0.  0.
         13    1    3    3    0    0  0.66410020109E+02  0.25603835701E+02 -0.98652290129E+03  0.98908709523E+03  0.00000000000E+00 0.  1.
          3    1    3    3  501    0 -0.66412628832E+02 -0.25603746096E+02  0.91663934049E+02  0.11605371984E+03  0.00000000000E+00 0.  1.
         21    1    1    2  502  501  0.26087229292E-02 -0.89604944475E-04  0.15540311937E-01  0.15758006202E-01  0.00000000000E+00 0.  1.
<mgrwt>
<rscale>  1 0.64850879E+03</rscale>
<asrwt>0</asrwt>
<pdfrwt beam="1">  1        1 0.38238834E+00 0.64850879E+03</pdfrwt>
<pdfrwt beam="2">0</pdfrwt>
<totfact> 0.16020497E+00</totfact>
</mgrwt>
</event>
<event>
 6    1  0.5655254E-003  0.6501029E+03  0.7818608E-02  0.9806586E-01
          1   -1    0    0  502    0  0.00000000000E+00  0.00000000000E+00  0.10746055101E+03  0.10746055101E+03  0.00000000000E+00 0.  1.
         13   -1    0    0    0    0 -0.00000000000E+00 -0.00000000000E+00 -0.10000000000E+04  0.10000000000E+04  0.00000000000E+00 0.  1.
    9000005    2    1    2  501    0  0.90768990752E-01  0.39753524913E+00 -0.89431600585E+03  0.11056377983E+04  0.65010280445E+03 0.  0.
         13    1    3    3    0    0 -0.11179121366E+03 -0.12986252406E+03 -0.91660552550E+03  0.93248444491E+03  0.00000000000E+00 0.  1.
          1    1    3    3  501    0  0.11188198265E+03  0.13026005931E+03  0.22289519652E+02  0.17315335336E+03  0.00000000000E+00 0.  1.
         21    1    1    2  502  501 -0.90768990752E-01 -0.39753524913E+00  0.17765568640E+01  0.18227527465E+01  0.00000000000E+00 0.  1.
<mgrwt>
<rscale>  1 0.65010293E+03</rscale>
<asrwt>0</asrwt>
<pdfrwt beam="1">  1        1 0.39076646E+00 0.65010293E+03</pdfrwt>
<pdfrwt beam="2">0</pdfrwt>
<totfact> 0.14704897E+00</totfact>
</mgrwt>
</event>
<event>
 6    1  0.5655254E-003  0.6599135E+03  0.7818608E-02  0.9788353E-01
          3   -1    0    0  502    0  0.00000000000E+00  0.00000000000E+00  0.10887148139E+03  0.10887148139E+03  0.00000000000E+00 0.  1.
         13   -1    0    0    0    0 -0.00000000000E+00 -0.00000000000E+00 -0.10000000000E+04  0.10000000000E+04  0.00000000000E+00 0.  1.
    9000005    2    1    2  501    0  0.53993210258E-06 -0.65038592254E-05 -0.89112852784E+03  0.11088714701E+04  0.65991354286E+03 0.  0.
         13    1    3    3    0    0  0.26178292609E+03  0.20046085300E+03 -0.42453557937E+03  0.53753633563E+03  0.00000000000E+00 0.  1.
          3    1    3    3  501    0 -0.26178292555E+03 -0.20046085951E+03 -0.46659294847E+03  0.57133513446E+03  0.00000000000E+00 0.  1.
         21    1    1    2  502  501 -0.53993207913E-06  0.65038592270E-05  0.92298825679E-05  0.11304089690E-04  0.00000000000E+00 0.  1.
<mgrwt>
<rscale>  1 0.65991354E+03</rscale>
<asrwt>0</asrwt>
<pdfrwt beam="1">  1        3 0.39589713E+00 0.65991354E+03</pdfrwt>
<pdfrwt beam="2">0</pdfrwt>
<totfact> 0.62142936E-02</totfact>
</mgrwt>
</event>
<event>
 6    1  0.5655254E-003  0.6363804E+03  0.7818608E-02  0.9832676E-01
          1   -1    0    0  502    0  0.00000000000E+00  0.00000000000E+00  0.10124827612E+03  0.10124827612E+03  0.00000000000E+00 0.  1.
         13   -1    0    0    0    0 -0.00000000000E+00 -0.00000000000E+00 -0.10000000000E+04  0.10000000000E+04  0.00000000000E+00 0.  1.
    9000005    2    1    2  501    0  0.89189017777E-02 -0.50009173825E-02 -0.89873515971E+03  0.11012288101E+04  0.63638039307E+03 0.  0.
         13    1    3    3    0    0  0.27038506972E+03 -0.16355396668E+03 -0.38485295830E+03  0.49796564686E+03  0.00000000000E+00 0.  1.
          1    1    3    3  501    0 -0.27037615082E+03  0.16354896577E+03 -0.51388220141E+03  0.60326316319E+03  0.00000000000E+00 0.  1.
         21    1    1    2  502  501 -0.89189017778E-02  0.50009173826E-02 -0.16564171416E-01  0.19466066842E-01  0.00000000000E+00 0. -1.
<mgrwt>
<rscale>  1 0.63638039E+03</rscale>
<asrwt>0</asrwt>
<pdfrwt beam="1">  1        1 0.36817633E+00 0.63638039E+03</pdfrwt>
<pdfrwt beam="2">0</pdfrwt>
<totfact> 0.18544237E+00</totfact>
</mgrwt>
</event>
<event>
 6    1  0.5655254E-003  0.6572696E+03  0.7818608E-02  0.9793233E-01
          1   -1    0    0  502    0  0.00000000000E+00  0.00000000000E+00  0.10800254564E+03  0.10800254564E+03  0.00000000000E+00 0.  1.
         13   -1    0    0    0    0 -0.00000000000E+00 -0.00000000000E+00 -0.10000000000E+04  0.10000000000E+04  0.00000000000E+00 0.  1.
    9000005    2    1    2  501    0 -0.39279699450E-02  0.22489279014E-02 -0.89199473396E+03  0.11079972648E+04  0.65726960479E+03 0.  0.
         13    1    3    3    0    0  0.19299521385E+03  0.22032909672E+03 -0.19477647015E+03  0.35175266418E+03  0.00000000000E+00 0.  1.
          1    1    3    3  501    0 -0.19299914182E+03 -0.22032684779E+03 -0.69721826380E+03  0.75624460063E+03  0.00000000000E+00 0.  1.
         21    1    1    2  502  501  0.39279699450E-02 -0.22489279014E-02 -0.27204017063E-02  0.52808342180E-02  0.00000000000E+00 0.  1.
<mgrwt>
<rscale>  1 0.65726960E+03</rscale>
<asrwt>0</asrwt>
<pdfrwt beam="1">  1        1 0.39273736E+00 0.65726960E+03</pdfrwt>
<pdfrwt beam="2">0</pdfrwt>
<totfact> 0.14392432E+00</totfact>
</mgrwt>
</event>
<event>
 6    1  0.5655254E-003  0.6177671E+03  0.7818608E-02  0.9869216E-01
          1   -1    0    0  502    0  0.00000000000E+00  0.00000000000E+00  0.97824093389E+02  0.97824093389E+02  0.00000000000E+00 0.  1.
         13   -1    0    0    0    0 -0.00000000000E+00 -0.00000000000E+00 -0.10000000000E+04  0.10000000000E+04  0.00000000000E+00 0.  1.
    9000005    2    1    2  501    0  0.35047047727E-01 -0.18436728139E-01 -0.90459078717E+03  0.10954088882E+04  0.61776705840E+03 0.  0.
         13    1    3    3    0    0 -0.45930424605E+02  0.33197969779E+02  0.86110357664E+02  0.10308590010E+03  0.00000000000E+00 0.  1.
          3    1    3    3  501    0  0.45965471652E+02 -0.33216406508E+02 -0.99070114484E+03  0.99232298806E+03  0.00000000000E+00 0.  1.
         21    1    1    2  502  501 -0.35047047727E-01  0.18436728139E-01  0.24148805613E+01  0.24152052364E+01  0.00000000000E+00 0.  1.
<mgrwt>
<rscale>  1 0.61776706E+03</rscale>
<asrwt>0</asrwt>
<pdfrwt beam="1">  1        1 0.35572473E+00 0.61776706E+03</pdfrwt>
<pdfrwt beam="2">0</pdfrwt>
<totfact> 0.21094593E+00</totfact>
</mgrwt>
</event>
<event>
 6    1  0.5655254E-003  0.6416015E+03  0.7818608E-02  0.9822667E-01
          1   -1    0    0  502    0  0.00000000000E+00  0.00000000000E+00  0.10296847823E+03  0.10296847823E+03  0.00000000000E+00 0.  1.
         13   -1    0    0    0    0 -0.00000000000E+00 -0.00000000000E+00 -0.10000000000E+04  0.10000000000E+04  0.00000000000E+00 0.  1.
    9000005    2    1    2  501    0  0.15167165738E-01 -0.42445283857E-02 -0.89708563691E+03  0.11029121177E+04  0.64160151122E+03 0.  0.
         13    1    3    3    0    0 -0.20495391170E+03  0.23463846278E+03 -0.31708153994E+03  0.44452448426E+03  0.00000000000E+00 0.  1.
          3    1    3    3  501    0  0.20496907887E+03 -0.23464270730E+03 -0.58000409697E+03  0.65838763345E+03  0.00000000000E+00 0.  1.
         21    1    1    2  502  501 -0.15167165738E-01  0.42445283857E-02  0.54115139445E-01  0.56360511485E-01  0.00000000000E+00 0.  1.
<mgrwt>
<rscale>  1 0.64160151E+03</rscale>
<asrwt>0</asrwt>
<pdfrwt beam="1">  1        1 0.37443162E+00 0.64160151E+03</pdfrwt>
<pdfrwt beam="2">0</pdfrwt>
<totfact> 0.17390299E+00</totfact>
</mgrwt>
</event>
<event>
 6    1  0.5655254E-003  0.6238564E+03  0.7818608E-02  0.9857111E-01
          1   -1    0    0  502    0  0.00000000000E+00  0.00000000000E+00  0.97504111156E+02  0.97504111156E+02  0.00000000000E+00 0.  1.
         13   -1    0    0    0    0 -0.00000000000E+00 -0.00000000000E+00 -0.10000000000E+04  0.10000000000E+04  0.00000000000E+00 0.  1.
    9000005    2    1    2  501    0 -0.24859297474E+00  0.51893780803E+00 -0.90210262246E+03  0.10968071511E+04  0.62385611649E+03 0.  0.
         13    1    3    3    0    0  0.18391632367E+03  0.91571112812E+02 -0.86370657776E+03  0.88780602345E+03  0.00000000000E+00 0.  1.
          1    1    3    3  501    0 -0.18416491665E+03 -0.91052175004E+02 -0.38396044704E+02  0.20900112762E+03  0.00000000000E+00 0.  1.
         21    1    1    2  502  501  0.24859297474E+00 -0.51893780803E+00 -0.39326637960E+00  0.69696008567E+00  0.00000000000E+00 0.  1.
<mgrwt>
<rscale>  1 0.62385638E+03</rscale>
<asrwt>0</asrwt>
<pdfrwt beam="1">  1        1 0.35456115E+00 0.62385638E+03</pdfrwt>
<pdfrwt beam="2">0</pdfrwt>
<totfact> 0.21319248E+00</totfact>
</mgrwt>
</event>
<event>
 6    1  0.5655254E-003  0.6481559E+03  0.7818608E-02  0.9810246E-01
          1   -1    0    0  502    0  0.00000000000E+00  0.00000000000E+00  0.10502766705E+03  0.10502766705E+03  0.00000000000E+00 0.  1.
         13   -1    0    0    0    0 -0.00000000000E+00 -0.00000000000E+00 -0.10000000000E+04  0.10000000000E+04  0.00000000000E+00 0.  1.
    9000005    2    1    2  501    0  0.14115756403E-03 -0.15409682862E-03 -0.89497345661E+03  0.11050265241E+04  0.64815594651E+03 0.  0.
         13    1    3    3    0    0 -0.21528516341E+03 -0.93185192680E+02 -0.82869111993E+03  0.86125498778E+03  0.00000000000E+00 0.  1.
          3    1    3    3  501    0  0.21528530457E+03  0.93185038583E+02 -0.66282336672E+02  0.24377153635E+03  0.00000000000E+00 0.  1.
         21    1    1    2  502  501 -0.14115756403E-03  0.15409682862E-03  0.11236576946E-02  0.11429251529E-02  0.00000000000E+00 0. -1.
<mgrwt>
<rscale>  1 0.64815595E+03</rscale>
<asrwt>0</asrwt>
<pdfrwt beam="1">  1        1 0.38191959E+00 0.64815595E+03</pdfrwt>
<pdfrwt beam="2">0</pdfrwt>
<totfact> 0.16098101E+00</totfact>
</mgrwt>
</event>
<event>
 6    1  0.5655254E-003  0.6419084E+03  0.7818608E-02  0.9822082E-01
          1   -1    0    0  502    0  0.00000000000E+00  0.00000000000E+00  0.10301298168E+03  0.10301298168E+03  0.00000000000E+00 0.  1.
         13   -1    0    0    0    0 -0.00000000000E+00 -0.00000000000E+00 -0.10000000000E+04  0.10000000000E+04  0.00000000000E+00 0.  1.
    9000005    2    1    2  501    0  0.41189983982E-03  0.17290498448E-03 -0.89698835847E+03  0.11030115690E+04  0.64190840951E+03 0.  0.
         13    1    3    3    0    0 -0.93621137004E+02 -0.14579148283E+03 -0.91273455565E+03  0.92903414514E+03  0.00000000000E+00 0.  1.
          3    1    3    3  501    0  0.93621548903E+02  0.14579165573E+03  0.15746197175E+02  0.17397742390E+03  0.00000000000E+00 0.  1.
         21    1    1    2  502  501 -0.41189983982E-03 -0.17290498450E-03  0.13401549390E-02  0.14126474692E-02  0.00000000000E+00 0. -1.
<mgrwt>
<rscale>  1 0.64190841E+03</rscale>
<asrwt>0</asrwt>
<pdfrwt beam="1">  1        1 0.37459345E+00 0.64190841E+03</pdfrwt>
<pdfrwt beam="2">0</pdfrwt>
<totfact> 0.17360830E+00</totfact>
</mgrwt>
</event>
<event>
 6    1  0.5655254E-003  0.6553623E+03  0.7818608E-02  0.9796769E-01
          1   -1    0    0  502    0  0.00000000000E+00  0.00000000000E+00  0.10737510246E+03  0.10737510246E+03  0.00000000000E+00 0.  1.
         13   -1    0    0    0    0 -0.00000000000E+00 -0.00000000000E+00 -0.10000000000E+04  0.10000000000E+04  0.00000000000E+00 0.  1.
    9000005    2    1    2  501    0 -0.38464647324E-03 -0.22786460079E-03 -0.89262468388E+03  0.11073746070E+04  0.65536226155E+03 0.  0.
         13    1    3    3    0    0  0.10632614986E+02 -0.21847450186E+03 -0.85858460990E+03  0.88600885595E+03  0.00000000000E+00 0.  1.
          1    1    3    3  501    0 -0.10632999632E+02  0.21847427400E+03 -0.34040073977E+02  0.22136575100E+03  0.00000000000E+00 0.  1.
         21    1    1    2  502  501  0.38464647324E-03  0.22786460080E-03 -0.21366047558E-03  0.49550578654E-03  0.00000000000E+00 0.  1.
<mgrwt>
<rscale>  1 0.65536226E+03</rscale>
<asrwt>0</asrwt>
<pdfrwt beam="1">  1        1 0.39045574E+00 0.65536226E+03</pdfrwt>
<pdfrwt beam="2">0</pdfrwt>
<totfact> 0.14737205E+00</totfact>
</mgrwt>
</event>
<event>
 6    1  0.5655254E-003  0.6502931E+03  0.7818608E-02  0.9806229E-01
          1   -1    0    0  502    0  0.00000000000E+00  0.00000000000E+00  0.11026469882E+03  0.11026469882E+03  0.00000000000E+00 0.  1.
         13   -1    0    0    0    0 -0.00000000000E+00 -0.00000000000E+00 -0.10000000000E+04  0.10000000000E+04  0.00000000000E+00 0.  1.
    9000005    2    1    2  501    0 -0.12407060085E-01 -0.66385787185E-01 -0.89427944767E+03  0.11057200505E+04  0.65029308391E+03 0.  0.
         13    1    3    3    0    0 -0.23691258090E+03 -0.21892392553E+03 -0.51692154305E+03  0.60931366129E+03  0.00000000000E+00 0.  1.
          3    1    3    3  501    0  0.23690017384E+03  0.21885753975E+03 -0.37735790462E+03  0.49640638921E+03  0.00000000000E+00 0.  1.
         21    1    1    2  502  501  0.12407060085E-01  0.66385787185E-01  0.45441464940E+01  0.45446483216E+01  0.00000000000E+00 0.  1.
<mgrwt>
<rscale>  1 0.65029309E+03</rscale>
<asrwt>0</asrwt>
<pdfrwt beam="1">  1        1 0.40096339E+00 0.65029309E+03</pdfrwt>
<pdfrwt beam="2">0</pdfrwt>
<totfact> 0.13246325E+00</totfact>
</mgrwt>
</event>
<event>
 6    1  0.5655254E-003  0.6502472E+03  0.7818608E-02  0.9806315E-01
          1   -1    0    0  502    0  0.00000000000E+00  0.00000000000E+00  0.10570619037E+03  0.10570619037E+03  0.00000000000E+00 0.  1.
         13   -1    0    0    0    0 -0.00000000000E+00 -0.00000000000E+00 -0.10000000000E+04  0.10000000000E+04  0.00000000000E+00 0.  1.
    9000005    2    1    2  501    0  0.77221192853E-05  0.92798259516E-04 -0.89429463638E+03  0.11057053584E+04  0.65024721678E+03 0.  0.
         13    1    3    3    0    0  0.60987910945E+02 -0.97069026770E+02 -0.96449275049E+03  0.97128172380E+03  0.00000000000E+00 0.  1.
          3    1    3    3  501    0 -0.60987903223E+02  0.97069119568E+02  0.70198114111E+02  0.13442363460E+03  0.00000000000E+00 0.  1.
         21    1    1    2  502  501 -0.77221192867E-05 -0.92798259521E-04  0.82674641733E-03  0.83197403004E-03  0.00000000000E+00 0.  1.
<mgrwt>
<rscale>  1 0.65024722E+03</rscale>
<asrwt>0</asrwt>
<pdfrwt beam="1">  1        1 0.38438696E+00 0.65024722E+03</pdfrwt>
<pdfrwt beam="2">0</pdfrwt>
<totfact> 0.15692915E+00</totfact>
</mgrwt>
</event>
<event>
 6    1  0.5655254E-003  0.6495129E+03  0.7818608E-02  0.9807694E-01
          1   -1    0    0  502    0  0.00000000000E+00  0.00000000000E+00  0.10548392439E+03  0.10548392439E+03  0.00000000000E+00 0.  1.
         13   -1    0    0    0    0 -0.00000000000E+00 -0.00000000000E+00 -0.10000000000E+04  0.10000000000E+04  0.00000000000E+00 0.  1.
    9000005    2    1    2  501    0  0.38427572778E-01 -0.35835335871E-01 -0.89445309759E+03  0.11054019056E+04  0.64951291472E+03 0.  0.
         13    1    3    3    0    0  0.25956906756E+03  0.16472226849E+03 -0.26905332606E+03  0.40853300826E+03  0.00000000000E+00 0.  1.
          3    1    3    3  501    0 -0.25953063999E+03 -0.16475810383E+03 -0.62539977154E+03  0.69686889736E+03  0.00000000000E+00 0.  1.
         21    1    1    2  502  501 -0.38427572778E-01  0.35835335871E-01 -0.62978010259E-01  0.82018774819E-01  0.00000000000E+00 0.  1.
<mgrwt>
<rscale>  1 0.64951292E+03</rscale>
<asrwt>0</asrwt>
<pdfrwt beam="1">  1        1 0.38357872E+00 0.64951292E+03</pdfrwt>
<pdfrwt beam="2">0</pdfrwt>
<totfact> 0.15824707E+00</totfact>
</mgrwt>
</event>
<event>
 6    1  0.5655254E-003  0.6472617E+03  0.7818608E-02  0.9811931E-01
          1   -1    0    0  502    0  0.00000000000E+00  0.00000000000E+00  0.10504807597E+03  0.10504807597E+03  0.00000000000E+00 0.  1.
         13   -1    0    0    0    0 -0.00000000000E+00 -0.00000000000E+00 -0.10000000000E+04  0.10000000000E+04  0.00000000000E+00 0.  1.
    9000005    2    1    2  501    0 -0.54603232726E+00 -0.58624621236E+00 -0.89452914165E+03  0.11041422168E+04  0.64726115887E+03 0.  0.
         13    1    3    3    0    0 -0.18659665182E+02  0.21551577675E+03 -0.85722359707E+03  0.88409701306E+03  0.00000000000E+00 0.  1.
          1    1    3    3  501    0  0.18113632855E+02 -0.21610202296E+03 -0.37305544576E+02  0.22004520372E+03  0.00000000000E+00 0.  1.
         21    1    1    2  502  501  0.54603232726E+00  0.58624621236E+00 -0.42278238765E+00  0.90585918951E+00  0.00000000000E+00 0.  1.
<mgrwt>
<rscale>  1 0.64726165E+03</rscale>
<asrwt>0</asrwt>
<pdfrwt beam="1">  1        1 0.38199381E+00 0.64726165E+03</pdfrwt>
<pdfrwt beam="2">0</pdfrwt>
<totfact> 0.16088606E+00</totfact>
</mgrwt>
</event>
<event>
 6    1  0.5655254E-003  0.6420831E+03  0.7818608E-02  0.9821749E-01
          1   -1    0    0  502    0  0.00000000000E+00  0.00000000000E+00  0.10326610219E+03  0.10326610219E+03  0.00000000000E+00 0.  1.
         13   -1    0    0    0    0 -0.00000000000E+00 -0.00000000000E+00 -0.10000000000E+04  0.10000000000E+04  0.00000000000E+00 0.  1.
    9000005    2    1    2  501    0 -0.23324164022E-02 -0.14615701840E-02 -0.89693232142E+03  0.11030676595E+04  0.64208307265E+03 0.  0.
         13    1    3    3    0    0 -0.75781265397E+02  0.10095811345E+03  0.58642007890E+02  0.13919132856E+03  0.00000000000E+00 0.  1.
          1    1    3    3  501    0  0.75778932981E+02 -0.10095957503E+03 -0.95557432931E+03  0.96387633092E+03  0.00000000000E+00 0.  1.
         21    1    1    2  502  501  0.23324164022E-02  0.14615701840E-02  0.19842361117E+00  0.19844270161E+00  0.00000000000E+00 0.  1.
<mgrwt>
<rscale>  1 0.64208307E+03</rscale>
<asrwt>0</asrwt>
<pdfrwt beam="1">  1        1 0.37551389E+00 0.64208307E+03</pdfrwt>
<pdfrwt beam="2">0</pdfrwt>
<totfact> 0.17199067E+00</totfact>
</mgrwt>
</event>
<event>
 6    1  0.5655254E-003  0.6495162E+03  0.7818608E-02  0.9807687E-01
          1   -1    0    0  502    0  0.00000000000E+00  0.00000000000E+00  0.10548959907E+03  0.10548959907E+03  0.00000000000E+00 0.  1.
         13   -1    0    0    0    0 -0.00000000000E+00 -0.00000000000E+00 -0.10000000000E+04  0.10000000000E+04  0.00000000000E+00 0.  1.
    9000005    2    1    2  501    0 -0.14222385508E-01 -0.25981824191E-02 -0.89452949182E+03  0.11054656514E+04  0.64951620039E+03 0.  0.
         13    1    3    3    0    0 -0.13661774361E+03  0.16053466675E+03 -0.26793517985E+02  0.21249395215E+03  0.00000000000E+00 0.  1.
          1    1    3    3  501    0  0.13660352122E+03 -0.16053726493E+03 -0.86773597383E+03  0.89297169929E+03  0.00000000000E+00 0.  1.
         21    1    1    2  502  501  0.14222385508E-01  0.25981824191E-02  0.19090887718E-01  0.23947626088E-01  0.00000000000E+00 0. -1.
<mgrwt>
<rscale>  1 0.64951620E+03</rscale>
<asrwt>0</asrwt>
<pdfrwt beam="1">  1        1 0.38359935E+00 0.64951620E+03</pdfrwt>
<pdfrwt beam="2">0</pdfrwt>
<totfact> 0.15821374E+00</totfact>
</mgrwt>
</event>
<event>
 6    1  0.5655254E-003  0.6521190E+03  0.7818608E-02  0.9802811E-01
          1   -1    0    0  502    0  0.00000000000E+00  0.00000000000E+00  0.10631535365E+03  0.10631535365E+03  0.00000000000E+00 0.  1.
         13   -1    0    0    0    0 -0.00000000000E+00 -0.00000000000E+00 -0.10000000000E+04  0.10000000000E+04  0.00000000000E+00 0.  1.
    9000005    2    1    2  501    0 -0.56882578434E-04 -0.66241533059E-05 -0.89368521223E+03  0.11063147849E+04  0.65211896514E+03 0.  0.
         13    1    3    3    0    0 -0.15303491591E+03  0.12363534951E+02 -0.93483782956E+03  0.94736176304E+03  0.00000000000E+00 0.  1.
          3    1    3    3  501    0  0.15303485903E+03 -0.12363541575E+02  0.41152617337E+02  0.15895302184E+03  0.00000000000E+00 0.  1.
         21    1    1    2  502  501  0.56882578452E-04  0.66241533074E-05  0.56587439157E-03  0.56876474413E-03  0.00000000000E+00 0.  1.
<mgrwt>
<rscale>  1 0.65211897E+03</rscale>
<asrwt>0</asrwt>
<pdfrwt beam="1">  1        1 0.38660210E+00 0.65211897E+03</pdfrwt>
<pdfrwt beam="2">0</pdfrwt>
<totfact> 0.15337439E+00</totfact>
</mgrwt>
</event>
<event>
 6    1  0.5655254E-003  0.6493692E+03  0.7818608E-02  0.9807963E-01
          1   -1    0    0  502    0  0.00000000000E+00  0.00000000000E+00  0.11214110356E+03  0.11214110356E+03  0.00000000000E+00 0.  1.
         13   -1    0    0    0    0 -0.00000000000E+00 -0.00000000000E+00 -0.10000000000E+04  0.10000000000E+04  0.00000000000E+00 0.  1.
    9000005    2    1    2  501    0  0.73443445332E-01  0.61614203383E-01 -0.89457952025E+03  0.11054197960E+04  0.64936923106E+03 0.  0.
         13    1    3    3    0    0 -0.19247897450E+03  0.18456991647E+03 -0.76256819649E+03  0.80785175867E+03  0.00000000000E+00 0.  1.
          3    1    3    3  501    0  0.19255241795E+03 -0.18450830227E+03 -0.13201132376E+03  0.29756803737E+03  0.00000000000E+00 0.  1.
         21    1    1    2  502  501 -0.73443445332E-01 -0.61614203383E-01  0.67206238186E+01  0.67213075187E+01  0.00000000000E+00 0.  1.
<mgrwt>
<rscale>  1 0.64936924E+03</rscale>
<asrwt>0</asrwt>
<pdfrwt beam="1">  1        1 0.40778669E+00 0.64936924E+03</pdfrwt>
<pdfrwt beam="2">0</pdfrwt>
<totfact> 0.12350523E+00</totfact>
</mgrwt>
</event>
<event>
 6    1  0.5655254E-003  0.6941403E+03  0.7818608E-02  0.9727306E-01
          1   -1    0    0  502    0  0.00000000000E+00  0.00000000000E+00  0.12047288443E+03  0.12047288443E+03  0.00000000000E+00 0.  1.
         13   -1    0    0    0    0 -0.00000000000E+00 -0.00000000000E+00 -0.10000000000E+04  0.10000000000E+04  0.00000000000E+00 0.  1.
    9000005    2    1    2  501    0 -0.22631654332E-03  0.32964331666E-04 -0.87954231038E+03  0.11204576879E+04  0.69414029894E+03 0.  0.
         13    1    3    3    0    0 -0.13569891816E+03 -0.22199255457E+03 -0.68994691929E+02  0.26917495832E+03  0.00000000000E+00 0.  1.
          1    1    3    3  501    0  0.13569869185E+03  0.22199258753E+03 -0.81054761845E+03  0.85128272957E+03  0.00000000000E+00 0.  1.
         21    1    1    2  502  501  0.22631654333E-03 -0.32964331657E-04  0.15194811283E-01  0.15196532359E-01  0.00000000000E+00 0. -1.
<mgrwt>
<rscale>  1 0.69414030E+03</rscale>
<asrwt>0</asrwt>
<pdfrwt beam="1">  1        1 0.43808414E+00 0.69414030E+03</pdfrwt>
<pdfrwt beam="2">0</pdfrwt>
<totfact> 0.89311133E-01</totfact>
</mgrwt>
</event>
<event>
 6    1  0.5655254E-003  0.6513154E+03  0.7818608E-02  0.9804314E-01
          1   -1    0    0  502    0  0.00000000000E+00  0.00000000000E+00  0.10605309079E+03  0.10605309079E+03  0.00000000000E+00 0.  1.
         13   -1    0    0    0    0 -0.00000000000E+00 -0.00000000000E+00 -0.10000000000E+04  0.10000000000E+04  0.00000000000E+00 0.  1.
    9000005    2    1    2  501    0  0.71634597703E-05  0.12335334020E-04 -0.89394706960E+03  0.11060529298E+04  0.65131537690E+03 0.  0.
         13    1    3    3    0    0  0.17697418544E+03 -0.27336122181E+03 -0.45137180674E+03  0.55658128590E+03  0.00000000000E+00 0.  1.
          3    1    3    3  501    0 -0.17697417827E+03  0.27336123414E+03 -0.44257526287E+03  0.54947164386E+03  0.00000000000E+00 0.  1.
         21    1    1    2  502  501 -0.71634597696E-05 -0.12335334008E-04  0.16039389693E-03  0.16102694742E-03  0.00000000000E+00 0.  1.
<mgrwt>
<rscale>  1 0.65131538E+03</rscale>
<asrwt>0</asrwt>
<pdfrwt beam="1">  1        1 0.38564842E+00 0.65131538E+03</pdfrwt>
<pdfrwt beam="2">0</pdfrwt>
<totfact> 0.15489527E+00</totfact>
</mgrwt>
</event>
<event>
 6    1  0.5655254E-003  0.5939373E+03  0.7818608E-02  0.9918065E-01
          1   -1    0    0  502    0  0.00000000000E+00  0.00000000000E+00  0.88251618497E+02  0.88251618497E+02  0.00000000000E+00 0.  1.
         13   -1    0    0    0    0 -0.00000000000E+00 -0.00000000000E+00 -0.10000000000E+04  0.10000000000E+04  0.00000000000E+00 0.  1.
    9000005    2    1    2  501    0 -0.11183268742E-02  0.15335939046E-02 -0.91180959464E+03  0.10881903759E+04  0.59393733458E+03 0.  0.
         13    1    3    3    0    0  0.12062152427E+03 -0.17421799941E+03 -0.74705731874E+02  0.22468290947E+03  0.00000000000E+00 0.  1.
          3    1    3    3  501    0 -0.12062264260E+03  0.17421953300E+03 -0.83710386277E+03  0.86350746647E+03  0.00000000000E+00 0.  1.
         21    1    1    2  502  501  0.11183268742E-02 -0.15335939046E-02  0.61213136557E-01  0.61242555894E-01  0.00000000000E+00 0. -1.
<mgrwt>
<rscale>  1 0.59393733E+03</rscale>
<asrwt>0</asrwt>
<pdfrwt beam="1">  1        1 0.32091565E+00 0.59393733E+03</pdfrwt>
<pdfrwt beam="2">0</pdfrwt>
<totfact> 0.30002402E+00</totfact>
</mgrwt>
</event>
<event>
 6    1  0.5655254E-003  0.6484905E+03  0.7818608E-02  0.9809616E-01
          1   -1    0    0  502    0  0.00000000000E+00  0.00000000000E+00  0.10513688816E+03  0.10513688816E+03  0.00000000000E+00 0.  1.
         13   -1    0    0    0    0 -0.00000000000E+00 -0.00000000000E+00 -0.10000000000E+04  0.10000000000E+04  0.00000000000E+00 0.  1.
    9000005    2    1    2  501    0  0.16977230278E-02  0.52126176066E-02 -0.89485874951E+03  0.11051298822E+04  0.64849045861E+03 0.  0.
         13    1    3    3    0    0 -0.21029944591E+03 -0.18972078757E+03 -0.71641247476E+03  0.77036787847E+03  0.00000000000E+00 0.  1.
          3    1    3    3  501    0  0.21030114364E+03  0.18972600019E+03 -0.17844627475E+03  0.33476200372E+03  0.00000000000E+00 0.  1.
         21    1    1    2  502  501 -0.16977230278E-02 -0.52126176066E-02 -0.43623324353E-02  0.70059681749E-02  0.00000000000E+00 0.  1.
<mgrwt>
<rscale>  1 0.64849046E+03</rscale>
<asrwt>0</asrwt>
<pdfrwt beam="1">  1        1 0.38231676E+00 0.64849046E+03</pdfrwt>
<pdfrwt beam="2">0</pdfrwt>
<totfact> 0.16032220E+00</totfact>
</mgrwt>
</event>
<event>
 6    1  0.5655254E-003  0.6513059E+03  0.7818608E-02  0.9804332E-01
          1   -1    0    0  502    0  0.00000000000E+00  0.00000000000E+00  0.11239776197E+03  0.11239776197E+03  0.00000000000E+00 0.  1.
         13   -1    0    0    0    0 -0.00000000000E+00 -0.00000000000E+00 -0.10000000000E+04  0.10000000000E+04  0.00000000000E+00 0.  1.
    9000005    2    1    2  501    0 -0.67352796874E+01  0.87909974929E+01 -0.88808246182E+03  0.11013128062E+04  0.65121178775E+03 0.  0.
         13    1    3    3    0    0 -0.79738760732E+01  0.11668859212E+03 -0.96291922863E+03  0.96999652118E+03  0.00000000000E+00 0.  1.
          3    1    3    3  501    0  0.12385963859E+01 -0.10789759463E+03  0.74836766812E+02  0.13131628503E+03  0.00000000000E+00 0.  1.
         21    1    1    2  502  501  0.67352796874E+01 -0.87909974929E+01  0.48022379000E+00  0.11084955763E+02  0.00000000000E+00 0. -1.
<mgrwt>
<rscale>  1 0.65130595E+03</rscale>
<asrwt>0</asrwt>
<pdfrwt beam="1">  1        1 0.40872000E+00 0.65130595E+03</pdfrwt>
<pdfrwt beam="2">0</pdfrwt>
<totfact> 0.12227661E+00</totfact>
</mgrwt>
</event>
<event>
 6    1  0.5655254E-003  0.6466532E+03  0.7818608E-02  0.9813080E-01
          1   -1    0    0  502    0  0.00000000000E+00  0.00000000000E+00  0.10454638094E+03  0.10454638094E+03  0.00000000000E+00 0.  1.
         13   -1    0    0    0    0 -0.00000000000E+00 -0.00000000000E+00 -0.10000000000E+04  0.10000000000E+04  0.00000000000E+00 0.  1.
    9000005    2    1    2  501    0  0.18674741061E-02  0.53611921643E-03 -0.89545974482E+03  0.11045399544E+04  0.64665319637E+03 0.  0.
         13    1    3    3    0    0  0.12671930778E+03 -0.22005285405E+03 -0.78960009702E+03  0.82942712444E+03  0.00000000000E+00 0.  1.
          1    1    3    3  501    0 -0.12671744031E+03  0.22005339017E+03 -0.10585964780E+03  0.27511283001E+03  0.00000000000E+00 0.  1.
         21    1    1    2  502  501 -0.18674741061E-02 -0.53611921643E-03  0.61257581145E-02  0.64264917202E-02  0.00000000000E+00 0. -1.
<mgrwt>
<rscale>  1 0.64665320E+03</rscale>
<asrwt>0</asrwt>
<pdfrwt beam="1">  1        1 0.38016946E+00 0.64665320E+03</pdfrwt>
<pdfrwt beam="2">0</pdfrwt>
<totfact> 0.16391575E+00</totfact>
</mgrwt>
</event>
<event>
 6    1  0.5655254E-003  0.6489873E+03  0.7818608E-02  0.9808681E-01
          1   -1    0    0  502    0  0.00000000000E+00  0.00000000000E+00  0.10529614231E+03  0.10529614231E+03  0.00000000000E+00 0.  1.
         13   -1    0    0    0    0 -0.00000000000E+00 -0.00000000000E+00 -0.10000000000E+04  0.10000000000E+04  0.00000000000E+00 0.  1.
    9000005    2    1    2  501    0  0.16923661974E-05  0.84028669178E-05 -0.89470385117E+03  0.11052961315E+04  0.64898733200E+03 0.  0.
         13    1    3    3    0    0 -0.20586006237E+03 -0.60001133201E+02 -0.86214772538E+03  0.88841274284E+03  0.00000000000E+00 0.  1.
          1    1    3    3  501    0  0.20586006406E+03  0.60001141604E+02 -0.32556125790E+02  0.21688338870E+03  0.00000000000E+00 0.  1.
         21    1    1    2  502  501 -0.16923661908E-05 -0.84028669172E-05 -0.65237761657E-05  0.10771811882E-04  0.00000000000E+00 0.  1.
<mgrwt>
<rscale>  1 0.64898733E+03</rscale>
<asrwt>0</asrwt>
<pdfrwt beam="1">  1        1 0.38289587E+00 0.64898733E+03</pdfrwt>
<pdfrwt beam="2">0</pdfrwt>
<totfact> 0.15936592E+00</totfact>
</mgrwt>
</event>
<event>
 6    1  0.5655254E-003  0.6656768E+03  0.7818608E-02  0.9777799E-01
          1   -1    0    0  502    0  0.00000000000E+00  0.00000000000E+00  0.11128131697E+03  0.11128131697E+03  0.00000000000E+00 0.  1.
         13   -1    0    0    0    0 -0.00000000000E+00 -0.00000000000E+00 -0.10000000000E+04  0.10000000000E+04  0.00000000000E+00 0.  1.
    9000005    2    1    2  501    0 -0.98955332469E-02  0.67123381942E-03 -0.88921854090E+03  0.11107813607E+04  0.66567681175E+03 0.  0.
         13    1    3    3    0    0 -0.20769558093E+03 -0.16397110699E+03 -0.78149601639E+03  0.82508181528E+03  0.00000000000E+00 0.  1.
          1    1    3    3  501    0  0.20768568539E+03  0.16397177823E+03 -0.10772252451E+03  0.28569954543E+03  0.00000000000E+00 0.  1.
         21    1    1    2  502  501  0.98955332469E-02 -0.67123381943E-03  0.49985787079E+00  0.49995626121E+00  0.00000000000E+00 0.  1.
<mgrwt>
<rscale>  1 0.66567681E+03</rscale>
<asrwt>0</asrwt>
<pdfrwt beam="1">  1        1 0.40466019E+00 0.66567681E+03</pdfrwt>
<pdfrwt beam="2">0</pdfrwt>
<totfact> 0.12715185E+00</totfact>
</mgrwt>
</event>
<event>
 6    1  0.5655254E-003  0.6505676E+03  0.7818608E-02  0.9805715E-01
          1   -1    0    0  502    0  0.00000000000E+00  0.00000000000E+00  0.10736930796E+03  0.10736930796E+03  0.00000000000E+00 0.  1.
         13   -1    0    0    0    0 -0.00000000000E+00 -0.00000000000E+00 -0.10000000000E+04  0.10000000000E+04  0.00000000000E+00 0.  1.
    9000005    2    1    2  501    0 -0.94840846077E+00  0.19019055102E+01 -0.89334607758E+03  0.11051268763E+04  0.65056412576E+03 0.  0.
         13    1    3    3    0    0  0.47365802728E+02  0.14632916571E+03 -0.93473869059E+03  0.94730785053E+03  0.00000000000E+00 0.  1.
          1    1    3    3  501    0 -0.48314211189E+02 -0.14442726020E+03  0.41392613005E+02  0.15781902579E+03  0.00000000000E+00 0.  1.
         21    1    1    2  502  501  0.94840846077E+00 -0.19019055102E+01  0.71538554302E+00  0.22424316385E+01  0.00000000000E+00 0.  1.
<mgrwt>
<rscale>  1 0.65056760E+03</rscale>
<asrwt>0</asrwt>
<pdfrwt beam="1">  1        1 0.39043467E+00 0.65056760E+03</pdfrwt>
<pdfrwt beam="2">0</pdfrwt>
<totfact> 0.14753530E+00</totfact>
</mgrwt>
</event>
<event>
 6    1  0.5655254E-003  0.6530519E+03  0.7818608E-02  0.9801069E-01
          1   -1    0    0  502    0  0.00000000000E+00  0.00000000000E+00  0.10661918614E+03  0.10661918614E+03  0.00000000000E+00 0.  1.
         13   -1    0    0    0    0 -0.00000000000E+00 -0.00000000000E+00 -0.10000000000E+04  0.10000000000E+04  0.00000000000E+00 0.  1.
    9000005    2    1    2  501    0  0.15766456585E-05  0.21415453375E-05 -0.89338081537E+03  0.11066191831E+04  0.65305186248E+03 0.  0.
         13    1    3    3    0    0  0.39941985729E+02  0.23866228518E+03 -0.75188464794E+02  0.25339367362E+03  0.00000000000E+00 0.  1.
          3    1    3    3  501    0 -0.39941984152E+02 -0.23866228304E+03 -0.81819235058E+03  0.85322550946E+03  0.00000000000E+00 0.  1.
         21    1    1    2  502  501 -0.15766456571E-05 -0.21415453519E-05  0.15178264733E-05  0.30619969343E-05  0.00000000000E+00 0. -1.
<mgrwt>
<rscale>  1 0.65305186E+03</rscale>
<asrwt>0</asrwt>
<pdfrwt beam="1">  1        1 0.38770695E+00 0.65305186E+03</pdfrwt>
<pdfrwt beam="2">0</pdfrwt>
<totfact> 0.15163011E+00</totfact>
</mgrwt>
</event>
<event>
 6    1  0.5655254E-003  0.6382364E+03  0.7818608E-02  0.9829107E-01
          1   -1    0    0  502    0  0.00000000000E+00  0.00000000000E+00  0.10184084775E+03  0.10184084775E+03  0.00000000000E+00 0.  1.
         13   -1    0    0    0    0 -0.00000000000E+00 -0.00000000000E+00 -0.10000000000E+04  0.10000000000E+04  0.00000000000E+00 0.  1.
    9000005    2    1    2  501    0  0.50214978046E-04  0.43337996487E-04 -0.89816358154E+03  0.11018364180E+04  0.63823637687E+03 0.  0.
         13    1    3    3    0    0 -0.30231655705E+03  0.76712416601E+02 -0.56561297029E+03  0.64590876111E+03  0.00000000000E+00 0.  1.
          1    1    3    3  501    0  0.30231660727E+03 -0.76712373263E+02 -0.33255061125E+03  0.45592765685E+03  0.00000000000E+00 0.  1.
         21    1    1    2  502  501 -0.50214978039E-04 -0.43337996487E-04  0.44292912284E-02  0.44297878631E-02  0.00000000000E+00 0. -1.
<mgrwt>
<rscale>  1 0.63823638E+03</rscale>
<asrwt>0</asrwt>
<pdfrwt beam="1">  1        1 0.37033114E+00 0.63823638E+03</pdfrwt>
<pdfrwt beam="2">0</pdfrwt>
<totfact> 0.18138517E+00</totfact>
</mgrwt>
</event>
<event>
 6    1  0.5655254E-003  0.6106633E+03  0.7818608E-02  0.9883527E-01
          1   -1    0    0  502    0  0.00000000000E+00  0.00000000000E+00  0.93344543026E+02  0.93344543026E+02  0.00000000000E+00 0.  1.
         13   -1    0    0    0    0 -0.00000000000E+00 -0.00000000000E+00 -0.10000000000E+04  0.10000000000E+04  0.00000000000E+00 0.  1.
    9000005    2    1    2  501    0  0.12602531599E-01  0.96223820587E-03 -0.90677222532E+03  0.10932270926E+04  0.61066325194E+03 0.  0.
         13    1    3    3    0    0  0.29411380094E+03 -0.76924915562E+02 -0.40242325955E+03  0.50434596297E+03  0.00000000000E+00 0.  1.
          3    1    3    3  501    0 -0.29410119841E+03  0.76925877801E+02 -0.50434896577E+03  0.58888112965E+03  0.00000000000E+00 0.  1.
         21    1    1    2  502  501 -0.12602531599E-01 -0.96223820588E-03  0.11676834950E+00  0.11745040293E+00  0.00000000000E+00 0.  1.
<mgrwt>
<rscale>  1 0.61066325E+03</rscale>
<asrwt>0</asrwt>
<pdfrwt beam="1">  1        1 0.33943542E+00 0.61066325E+03</pdfrwt>
<pdfrwt beam="2">0</pdfrwt>
<totfact> 0.24867794E+00</totfact>
</mgrwt>
</event>
<event>
 6    1  0.5655254E-003  0.6742414E+03  0.7818608E-02  0.9762326E-01
          1   -1    0    0  502    0  0.00000000000E+00  0.00000000000E+00  0.11842979135E+03  0.11842979135E+03  0.00000000000E+00 0.  1.
         13   -1    0    0    0    0 -0.00000000000E+00 -0.00000000000E+00 -0.10000000000E+04  0.10000000000E+04  0.00000000000E+00 0.  1.
    9000005    2    1    2  501    0 -0.46370861860E+01 -0.37621331216E+01 -0.88417061486E+03  0.11119168560E+04  0.67421492295E+03 0.  0.
         13    1    3    3    0    0  0.16829817516E+03 -0.24706908864E+03 -0.18466186677E+03  0.35137930412E+03  0.00000000000E+00 0.  1.
          3    1    3    3  501    0 -0.17293526135E+03  0.24330695551E+03 -0.69950874809E+03  0.76053755192E+03  0.00000000000E+00 0.  1.
         21    1    1    2  502  501  0.46370861860E+01  0.37621331216E+01  0.26004062090E+01  0.65129353116E+01  0.00000000000E+00 0. -1.
<mgrwt>
<rscale>  1 0.67424137E+03</rscale>
<asrwt>0</asrwt>
<pdfrwt beam="1">  1        1 0.43065469E+00 0.67424137E+03</pdfrwt>
<pdfrwt beam="2">0</pdfrwt>
<totfact> 0.96928170E-01</totfact>
</mgrwt>
</event>
<event>
 6    1  0.5655254E-003  0.6341410E+03  0.7818608E-02  0.9837001E-01
          1   -1    0    0  502    0  0.00000000000E+00  0.00000000000E+00  0.10106654363E+03  0.10106654363E+03  0.00000000000E+00 0.  1.
         13   -1    0    0    0    0 -0.00000000000E+00 -0.00000000000E+00 -0.10000000000E+04  0.10000000000E+04  0.00000000000E+00 0.  1.
    9000005    2    1    2  501    0 -0.29553958773E-02 -0.69884446640E-01 -0.89946375872E+03  0.11005316482E+04  0.63414103358E+03 0.  0.
         13    1    3    3    0    0  0.18909216497E+03  0.23807212983E+03 -0.60571509538E+03  0.67773517145E+03  0.00000000000E+00 0.  1.
          1    1    3    3  501    0 -0.18909512036E+03 -0.23814201428E+03 -0.29374866335E+03  0.42279647672E+03  0.00000000000E+00 0.  1.
         21    1    1    2  502  501  0.29553958773E-02  0.69884446640E-01  0.53030235607E+00  0.53489546558E+00  0.00000000000E+00 0.  1.
<mgrwt>
<rscale>  1 0.63414104E+03</rscale>
<asrwt>0</asrwt>
<pdfrwt beam="1">  1        1 0.36751548E+00 0.63414104E+03</pdfrwt>
<pdfrwt beam="2">0</pdfrwt>
<totfact> 0.18676068E+00</totfact>
</mgrwt>
</event>
<event>
 6    1  0.9930233E-003  0.6553389E+03  0.7818608E-02  0.9796812E-01
          1   -1    0    0  502    0  0.00000000000E+00  0.00000000000E+00  0.10736726906E+03  0.10736726906E+03  0.00000000000E+00 0.  1.
         13   -1    0    0    0    0 -0.00000000000E+00 -0.00000000000E+00 -0.10000000000E+04  0.10000000000E+04  0.00000000000E+00 0.  1.
    9000005    2    1    2  501    0  0.29169865456E-06 -0.95679132528E-06 -0.89263273036E+03  0.11073672679E+04  0.65533890065E+03 0.  0.
         13    1    3    3    0    0 -0.15471839622E+03  0.18369390658E+03 -0.69662086651E+02  0.25006807025E+03  0.00000000000E+00 0.  1.
          1    1    3    3  501    0  0.15471839651E+03 -0.18369390753E+03 -0.82297064371E+03  0.85729919765E+03  0.00000000000E+00 0.  1.
         21    1    1    2  502  501 -0.29169866651E-06  0.95679134986E-06 -0.58707641617E-06  0.11598260721E-05  0.00000000000E+00 0. -1.
<mgrwt>
<rscale>  1 0.65533890E+03</rscale>
<asrwt>0</asrwt>
<pdfrwt beam="1">  1        1 0.39042726E+00 0.65533890E+03</pdfrwt>
<pdfrwt beam="2">0</pdfrwt>
<totfact> 0.14741557E+00</totfact>
</mgrwt>
</event>
<event>
 6    1  0.5655254E-003  0.6504229E+03  0.7818608E-02  0.9805986E-01
          1   -1    0    0  502    0  0.00000000000E+00  0.00000000000E+00  0.10651581509E+03  0.10651581509E+03  0.00000000000E+00 0.  1.
         13   -1    0    0    0    0 -0.00000000000E+00 -0.00000000000E+00 -0.10000000000E+04  0.10000000000E+04  0.00000000000E+00 0.  1.
    9000005    2    1    2  501    0 -0.12342799650E-01  0.10787654027E-01 -0.89423742643E+03  0.11057623952E+04  0.65042286212E+03 0.  0.
         13    1    3    3    0    0 -0.11583448917E+03  0.81130073317E+02 -0.94499961891E+03  0.95552289215E+03  0.00000000000E+00 0.  1.
          1    1    3    3  501    0  0.11582214637E+03 -0.81119285663E+02  0.50762192478E+02  0.15023950307E+03  0.00000000000E+00 0.  1.
         21    1    1    2  502  501  0.12342799650E-01 -0.10787654027E-01  0.75324152345E+00  0.75341987685E+00  0.00000000000E+00 0.  1.
<mgrwt>
<rscale>  1 0.65042286E+03</rscale>
<asrwt>0</asrwt>
<pdfrwt beam="1">  1        1 0.38733105E+00 0.65042286E+03</pdfrwt>
<pdfrwt beam="2">0</pdfrwt>
<totfact> 0.15228662E+00</totfact>
</mgrwt>
</event>
<event>
 6    1  0.5655254E-003  0.6303844E+03  0.7818608E-02  0.9844299E-01
          1   -1    0    0  502    0  0.00000000000E+00  0.00000000000E+00  0.99347113253E+02  0.99347113253E+02  0.00000000000E+00 0.  1.
         13   -1    0    0    0    0 -0.00000000000E+00 -0.00000000000E+00 -0.10000000000E+04  0.10000000000E+04  0.00000000000E+00 0.  1.
    9000005    2    1    2  501    0  0.57411784400E-03 -0.34159097868E-03 -0.90065376731E+03  0.10993460080E+04  0.63038435626E+03 0.  0.
         13    1    3    3    0    0 -0.20090860414E+03 -0.16980993370E+03 -0.75312021777E+03  0.79774039838E+03  0.00000000000E+00 0.  1.
          1    1    3    3  501    0  0.20090917826E+03  0.16980959211E+03 -0.14753354955E+03  0.30160560957E+03  0.00000000000E+00 0.  1.
         21    1    1    2  502  501 -0.57411784401E-03  0.34159097867E-03  0.88056710973E-03  0.11053027324E-02  0.00000000000E+00 0.  1.
<mgrwt>
<rscale>  1 0.63038436E+03</rscale>
<asrwt>0</asrwt>
<pdfrwt beam="1">  1        1 0.36126299E+00 0.63038436E+03</pdfrwt>
<pdfrwt beam="2">0</pdfrwt>
<totfact> 0.19905565E+00</totfact>
</mgrwt>
</event>
