<event>
 6    1  0.1686953E-002  0.6493492E+03  0.7818608E-02  0.9808001E-01
          1   -1    0    0  502    0  0.00000000000E+00  0.00000000000E+00  0.10541375646E+03  0.10541375646E+03  0.00000000000E+00 0.  1.
         13   -1    0    0    0    0 -0.00000000000E+00 -0.00000000000E+00 -0.10000000000E+04  0.10000000000E+04  0.00000000000E+00 0.  1.
    9000005    2    1    2  501    0  0.56517491522E-05  0.90523665648E-05 -0.89458641790E+03  0.11054135818E+04  0.64934915699E+03 0.  0.
         13    1    3    3    0    0  0.25004144376E+02  0.10515084153E+03  0.73889147706E+02  0.13092560048E+03  0.00000000000E+00 0.  1.
          3    1    3    3  501    0 -0.25004138724E+02 -0.10515083248E+03 -0.96847556560E+03  0.97448798130E+03  0.00000000000E+00 0.  1.
         21    1    1    2  502  501 -0.56517491517E-05 -0.90523665715E-05  0.17435416253E-03  0.17468045569E-03  0.00000000000E+00 0.  1.
<mgrwt>
<rscale>  1 0.64934916E+03</rscale>
<asrwt>0</asrwt>
<pdfrwt beam="1">  1        1 0.38332356E+00 0.64934916E+03</pdfrwt>
<pdfrwt beam="2">0</pdfrwt>
<totfact> 0.15866331E+00</totfact>
</mgrwt>
</event>
<event>
 6    1  0.1686953E-002  0.6478897E+03  0.7818608E-02  0.9810747E-01
          1   -1    0    0  502    0  0.00000000000E+00  0.00000000000E+00  0.12940272927E+03  0.12940272927E+03  0.00000000000E+00 0.  1.
         13   -1    0    0    0    0 -0.00000000000E+00 -0.00000000000E+00 -0.10000000000E+04  0.10000000000E+04  0.00000000000E+00 0.  1.
    9000005    2    1    2  501    0 -0.58932434259E+02  0.43297754680E+01 -0.84552958826E+03  0.10652141986E+04  0.64518929436E+03 0.  0.
         13    1    3    3    0    0 -0.29458234087E+03  0.16586644322E+03 -0.31216207268E+03  0.46014735918E+03  0.00000000000E+00 0.  1.
          3    1    3    3  501    0  0.23564990661E+03 -0.16153666775E+03 -0.53336751558E+03  0.60506683944E+03  0.00000000000E+00 0.  1.
         21    1    1    2  502  501  0.58932434259E+02 -0.43297754680E+01 -0.25067682463E+02  0.64188530653E+02  0.00000000000E+00 0.  1.
<mgrwt>
<rscale>  1 0.64788965E+03</rscale>
<asrwt>0</asrwt>
<pdfrwt beam="1">  1        1 0.47055637E+00 0.64788965E+03</pdfrwt>
<pdfrwt beam="2">0</pdfrwt>
<totfact> 0.63804255E-01</totfact>
</mgrwt>
</event>
<event>
 6    1  0.1686953E-002  0.6036715E+03  0.7818608E-02  0.9897818E-01
          1   -1    0    0  502    0  0.00000000000E+00  0.00000000000E+00  0.91105158310E+02  0.91105158310E+02  0.00000000000E+00 0.  1.
         13   -1    0    0    0    0 -0.00000000000E+00 -0.00000000000E+00 -0.10000000000E+04  0.10000000000E+04  0.00000000000E+00 0.  1.
    9000005    2    1    2  501    0  0.12149133738E-04 -0.56660757814E-04 -0.90889517465E+03  0.10911048203E+04  0.60367150876E+03 0.  0.
         13    1    3    3    0    0 -0.28325650512E+03  0.36679205086E+02 -0.27804579142E+03  0.39860892351E+03  0.00000000000E+00 0.  1.
          3    1    3    3  501    0  0.28325651726E+03 -0.36679261747E+02 -0.63084938323E+03  0.69249589684E+03  0.00000000000E+00 0.  1.
         21    1    1    2  502  501 -0.12149133750E-04  0.56660757816E-04  0.33295811926E-03  0.33796324076E-03  0.00000000000E+00 0. -1.
<mgrwt>
<rscale>  1 0.60367151E+03</rscale>
<asrwt>0</asrwt>
<pdfrwt beam="1">  1        1 0.33129218E+00 0.60367151E+03</pdfrwt>
<pdfrwt beam="2">0</pdfrwt>
<totfact> 0.27008324E+00</totfact>
</mgrwt>
</event>
<event>
 6    1  0.1686953E-002  0.6459865E+03  0.7818608E-02  0.9814340E-01
          1   -1    0    0  502    0  0.00000000000E+00  0.00000000000E+00  0.10432466033E+03  0.10432466033E+03  0.00000000000E+00 0.  1.
         13   -1    0    0    0    0 -0.00000000000E+00 -0.00000000000E+00 -0.10000000000E+04  0.10000000000E+04  0.00000000000E+00 0.  1.
    9000005    2    1    2  501    0 -0.20477606171E-05 -0.79052195616E-05 -0.89567536009E+03  0.11043246383E+04  0.64598649844E+03 0.  0.
         13    1    3    3    0    0  0.11053411908E+03 -0.36435660730E+02  0.67232861581E+02  0.13440835737E+03  0.00000000000E+00 0.  1.
          1    1    3    3  501    0 -0.11053412113E+03  0.36435652824E+02 -0.96290822167E+03  0.96991628097E+03  0.00000000000E+00 0.  1.
         21    1    1    2  502  501  0.20477606200E-05  0.79052195636E-05  0.20417178394E-04  0.21989701987E-04  0.00000000000E+00 0.  1.
<mgrwt>
<rscale>  1 0.64598650E+03</rscale>
<asrwt>0</asrwt>
<pdfrwt beam="1">  1        1 0.37936320E+00 0.64598650E+03</pdfrwt>
<pdfrwt beam="2">0</pdfrwt>
<totfact> 0.16528403E+00</totfact>
</mgrwt>
</event>
<event>
 6    1  0.1686953E-002  0.6428167E+03  0.7818608E-02  0.9820352E-01
          1   -1    0    0  502    0  0.00000000000E+00  0.00000000000E+00  0.10330339347E+03  0.10330339347E+03  0.00000000000E+00 0.  1.
         13   -1    0    0    0    0 -0.00000000000E+00 -0.00000000000E+00 -0.10000000000E+04  0.10000000000E+04  0.00000000000E+00 0.  1.
    9000005    2    1    2  501    0  0.26283777459E-04  0.15710707672E-04 -0.89669667099E+03  0.11033033221E+04  0.64281669301E+03 0.  0.
         13    1    3    3    0    0 -0.12340138201E+03  0.10248222006E+03  0.29689822658E+02  0.16313182424E+03  0.00000000000E+00 0.  1.
          3    1    3    3  501    0  0.12340140830E+03 -0.10248220435E+03 -0.92638649365E+03  0.94017149786E+03  0.00000000000E+00 0.  1.
         21    1    1    2  502  501 -0.26283777461E-04 -0.15710707663E-04  0.64464122412E-04  0.71367264003E-04  0.00000000000E+00 0.  1.
<mgrwt>
<rscale>  1 0.64281669E+03</rscale>
<asrwt>0</asrwt>
<pdfrwt beam="1">  1        1 0.37564950E+00 0.64281669E+03</pdfrwt>
<pdfrwt beam="2">0</pdfrwt>
<totfact> 0.17173132E+00</totfact>
</mgrwt>
</event>
<event>
 6    1  0.1686953E-002  0.6505479E+03  0.7818608E-02  0.9805752E-01
          1   -1    0    0  502    0  0.00000000000E+00  0.00000000000E+00  0.10586071916E+03  0.10586071916E+03  0.00000000000E+00 0.  1.
         13   -1    0    0    0    0 -0.00000000000E+00 -0.00000000000E+00 -0.10000000000E+04  0.10000000000E+04  0.00000000000E+00 0.  1.
    9000005    2    1    2  501    0 -0.28311013777E-02  0.58011972532E-02 -0.89419664613E+03  0.11058029918E+04  0.65054793424E+03 0.  0.
         13    1    3    3    0    0  0.26019970288E+03  0.66499811416E+02 -0.75903191198E+03  0.80514318832E+03  0.00000000000E+00 0.  1.
          1    1    3    3  501    0 -0.26020253398E+03 -0.66494010218E+02 -0.13516473415E+03  0.30065980351E+03  0.00000000000E+00 0.  1.
         21    1    1    2  502  501  0.28311013777E-02 -0.58011972532E-02  0.57365290356E-01  0.57727338084E-01  0.00000000000E+00 0.  1.
<mgrwt>
<rscale>  1 0.65054793E+03</rscale>
<asrwt>0</asrwt>
<pdfrwt beam="1">  1        1 0.38494888E+00 0.65054793E+03</pdfrwt>
<pdfrwt beam="2">0</pdfrwt>
<totfact> 0.15602508E+00</totfact>
</mgrwt>
</event>
<event>
 6    1  0.1686953E-002  0.5021751E+03  0.7818608E-02  0.1013213E+00
          1   -1    0    0  502    0  0.00000000000E+00  0.00000000000E+00  0.63045006262E+02  0.63045006262E+02  0.00000000000E+00 0.  1.
         13   -1    0    0    0    0 -0.00000000000E+00 -0.00000000000E+00 -0.10000000000E+04  0.10000000000E+04  0.00000000000E+00 0.  1.
    9000005    2    1    2  501    0  0.44054542940E-04  0.77619723129E-04 -0.93695496984E+03  0.10630449139E+04  0.50217514214E+03 0.  0.
         13    1    3    3    0    0  0.65766625654E+02 -0.73852609913E+02  0.20084251687E+02  0.10091003026E+03  0.00000000000E+00 0.  1.
          1    1    3    3  501    0 -0.65766581600E+02  0.73852687533E+02 -0.95703922153E+03  0.96213488361E+03  0.00000000000E+00 0.  1.
         21    1    1    2  502  501 -0.44054542932E-04 -0.77619723132E-04 -0.23894141331E-04  0.92393474672E-04  0.00000000000E+00 0. -1.
<mgrwt>
<rscale>  1 0.50217514E+03</rscale>
<asrwt>0</asrwt>
<pdfrwt beam="1">  1        1 0.22925505E+00 0.50217514E+03</pdfrwt>
<pdfrwt beam="2">0</pdfrwt>
<totfact> 0.76082124E+00</totfact>
</mgrwt>
</event>
<event>
 6    1  0.1686953E-002  0.6589351E+03  0.7818608E-02  0.9790156E-01
          1   -1    0    0  502    0  0.00000000000E+00  0.00000000000E+00  0.10854886658E+03  0.10854886658E+03  0.00000000000E+00 0.  1.
         13   -1    0    0    0    0 -0.00000000000E+00 -0.00000000000E+00 -0.10000000000E+04  0.10000000000E+04  0.00000000000E+00 0.  1.
    9000005    2    1    2  501    0  0.58885933640E-06  0.23676065553E-06 -0.89145113334E+03  0.11085488659E+04  0.65893509926E+03 0.  0.
         13    1    3    3    0    0  0.24569636104E+03  0.27046685196E+02 -0.81219119250E+03  0.84897158856E+03  0.00000000000E+00 0.  1.
          3    1    3    3  501    0 -0.24569636045E+03 -0.27046684959E+02 -0.79259940833E+02  0.25957727737E+03  0.00000000000E+00 0.  1.
         21    1    1    2  502  501 -0.58885935380E-06 -0.23676065811E-06 -0.89101667244E-07  0.64089785060E-06  0.00000000000E+00 0. -1.
<mgrwt>
<rscale>  1 0.65893510E+03</rscale>
<asrwt>0</asrwt>
<pdfrwt beam="1">  1        1 0.39472398E+00 0.65893510E+03</pdfrwt>
<pdfrwt beam="2">0</pdfrwt>
<totfact> 0.14098458E+00</totfact>
</mgrwt>
</event>
<event>
 6    1  0.1686953E-002  0.6560753E+03  0.7818608E-02  0.9795446E-01
          1   -1    0    0  502    0  0.00000000000E+00  0.00000000000E+00  0.10760885277E+03  0.10760885277E+03  0.00000000000E+00 0.  1.
         13   -1    0    0    0    0 -0.00000000000E+00 -0.00000000000E+00 -0.10000000000E+04  0.10000000000E+04  0.00000000000E+00 0.  1.
    9000005    2    1    2  501    0 -0.82094369134E-05 -0.26695556812E-04 -0.89239128803E+03  0.11076087092E+04  0.65607533241E+03 0.  0.
         13    1    3    3    0    0  0.11465981302E+03  0.30582589056E+03 -0.39464630925E+03  0.51227146852E+03  0.00000000000E+00 0.  1.
          1    1    3    3  501    0 -0.11465982123E+03 -0.30582591725E+03 -0.49774497878E+03  0.59533724070E+03  0.00000000000E+00 0.  1.
         21    1    1    2  502  501  0.82094369216E-05  0.26695556824E-04  0.14079577219E-03  0.14353918307E-03  0.00000000000E+00 0.  1.
<mgrwt>
<rscale>  1 0.65607533E+03</rscale>
<asrwt>0</asrwt>
<pdfrwt beam="1">  1        1 0.39130574E+00 0.65607533E+03</pdfrwt>
<pdfrwt beam="2">0</pdfrwt>
<totfact> 0.14607850E+00</totfact>
</mgrwt>
</event>
<event>
 6    1  0.1686953E-002  0.6165002E+03  0.7818608E-02  0.9871753E-01
          1   -1    0    0  502    0  0.00000000000E+00  0.00000000000E+00  0.95018789340E+02  0.95018789340E+02  0.00000000000E+00 0.  1.
         13   -1    0    0    0    0 -0.00000000000E+00 -0.00000000000E+00 -0.10000000000E+04  0.10000000000E+04  0.00000000000E+00 0.  1.
    9000005    2    1    2  501    0 -0.16946088971E-03 -0.35152451263E-03 -0.90498181545E+03  0.10950180696E+04  0.61650019174E+03 0.  0.
         13    1    3    3    0    0  0.28754204930E+03  0.63024388505E+02 -0.61494654716E+03  0.68177104627E+03  0.00000000000E+00 0.  1.
          1    1    3    3  501    0 -0.28754221876E+03 -0.63024740029E+02 -0.29003526829E+03  0.41324702331E+03  0.00000000000E+00 0.  1.
         21    1    1    2  502  501  0.16946088969E-03  0.35152451263E-03  0.60478875545E-03  0.71976101230E-03  0.00000000000E+00 0. -1.
<mgrwt>
<rscale>  1 0.61650019E+03</rscale>
<asrwt>0</asrwt>
<pdfrwt beam="1">  1        1 0.34552360E+00 0.61650019E+03</pdfrwt>
<pdfrwt beam="2">0</pdfrwt>
<totfact> 0.23373514E+00</totfact>
</mgrwt>
</event>
<event>
 6    1  0.1686953E-002  0.6517240E+03  0.7818608E-02  0.9803550E-01
          1   -1    0    0  502    0  0.00000000000E+00  0.00000000000E+00  0.10621269061E+03  0.10621269061E+03  0.00000000000E+00 0.  1.
         13   -1    0    0    0    0 -0.00000000000E+00 -0.00000000000E+00 -0.10000000000E+04  0.10000000000E+04  0.00000000000E+00 0.  1.
    9000005    2    1    2  501    0 -0.64125196999E-03  0.67553163238E-03 -0.89381395404E+03  0.11061860297E+04  0.65172398133E+03 0.  0.
         13    1    3    3    0    0 -0.23619825469E+03  0.25287461118E+02 -0.82551738990E+03  0.85901573456E+03  0.00000000000E+00 0.  1.
          3    1    3    3  501    0  0.23619761344E+03 -0.25286785587E+02 -0.68296564141E+02  0.24717029513E+03  0.00000000000E+00 0.  1.
         21    1    1    2  502  501  0.64125197000E-03 -0.67553163238E-03  0.26644647717E-01  0.26660922697E-01  0.00000000000E+00 0.  1.
<mgrwt>
<rscale>  1 0.65172398E+03</rscale>
<asrwt>0</asrwt>
<pdfrwt beam="1">  1        1 0.38622878E+00 0.65172398E+03</pdfrwt>
<pdfrwt beam="2">0</pdfrwt>
<totfact> 0.15397033E+00</totfact>
</mgrwt>
</event>
<event>
 6    1  0.1686953E-002  0.6443122E+03  0.7818608E-02  0.9817511E-01
          1   -1    0    0  502    0  0.00000000000E+00  0.00000000000E+00  0.10383046633E+03  0.10383046633E+03  0.00000000000E+00 0.  1.
         13   -1    0    0    0    0 -0.00000000000E+00 -0.00000000000E+00 -0.10000000000E+04  0.10000000000E+04  0.00000000000E+00 0.  1.
    9000005    2    1    2  501    0  0.95617029303E-02  0.23334105549E-02 -0.89621487176E+03  0.11037840722E+04  0.64431217715E+03 0.  0.
         13    1    3    3    0    0 -0.92200587615E+02  0.50780862761E+02 -0.96970550070E+03  0.97540166212E+03  0.00000000000E+00 0.  1.
          1    1    3    3  501    0  0.92210149318E+02 -0.50778529350E+02  0.73490628941E+02  0.12838241010E+03  0.00000000000E+00 0.  1.
         21    1    1    2  502  501 -0.95617029303E-02 -0.23334105549E-02  0.45338088209E-01  0.46394107494E-01  0.00000000000E+00 0.  1.
<mgrwt>
<rscale>  1 0.64431218E+03</rscale>
<asrwt>0</asrwt>
<pdfrwt beam="1">  1        1 0.37756613E+00 0.64431218E+03</pdfrwt>
<pdfrwt beam="2">0</pdfrwt>
<totfact> 0.16837887E+00</totfact>
</mgrwt>
</event>
<event>
 6    1  0.1686953E-002  0.6487931E+03  0.7818608E-02  0.9809046E-01
          1   -1    0    0  502    0  0.00000000000E+00  0.00000000000E+00  0.10523330918E+03  0.10523330918E+03  0.00000000000E+00 0.  1.
         13   -1    0    0    0    0 -0.00000000000E+00 -0.00000000000E+00 -0.10000000000E+04  0.10000000000E+04  0.00000000000E+00 0.  1.
    9000005    2    1    2  501    0  0.30436452568E-03  0.17182546458E-03 -0.89476665616E+03  0.11052329579E+04  0.64879312755E+03 0.  0.
         13    1    3    3    0    0 -0.13961311515E+03  0.27835191558E+03 -0.29254528727E+03  0.42726380134E+03  0.00000000000E+00 0.  1.
          3    1    3    3  501    0  0.13961341952E+03 -0.27835174376E+03 -0.60222136889E+03  0.67796915661E+03  0.00000000000E+00 0.  1.
         21    1    1    2  502  501 -0.30436452566E-03 -0.17182546457E-03 -0.34664123476E-04  0.35123120051E-03  0.00000000000E+00 0. -1.
<mgrwt>
<rscale>  1 0.64879313E+03</rscale>
<asrwt>0</asrwt>
<pdfrwt beam="1">  1        1 0.38266739E+00 0.64879313E+03</pdfrwt>
<pdfrwt beam="2">0</pdfrwt>
<totfact> 0.15974251E+00</totfact>
</mgrwt>
</event>
<event>
 6    1  0.1686953E-002  0.6544625E+03  0.7818608E-02  0.9798442E-01
          1   -1    0    0  502    0  0.00000000000E+00  0.00000000000E+00  0.10708099703E+03  0.10708099703E+03  0.00000000000E+00 0.  1.
         13   -1    0    0    0    0 -0.00000000000E+00 -0.00000000000E+00 -0.10000000000E+04  0.10000000000E+04  0.00000000000E+00 0.  1.
    9000005    2    1    2  501    0 -0.14795480701E-03 -0.47776352886E-04 -0.89291971246E+03  0.11070802707E+04  0.65446246102E+03 0.  0.
         13    1    3    3    0    0 -0.20995723558E+03 -0.20162886430E+03 -0.69931730232E+03  0.75748328629E+03  0.00000000000E+00 0.  1.
          3    1    3    3  501    0  0.20995708763E+03  0.20162881652E+03 -0.19360241014E+03  0.34959698441E+03  0.00000000000E+00 0.  1.
         21    1    1    2  502  501  0.14795480700E-03  0.47776352883E-04  0.70948935765E-03  0.72632523943E-03  0.00000000000E+00 0.  1.
<mgrwt>
<rscale>  1 0.65446246E+03</rscale>
<asrwt>0</asrwt>
<pdfrwt beam="1">  1        1 0.38938626E+00 0.65446246E+03</pdfrwt>
<pdfrwt beam="2">0</pdfrwt>
<totfact> 0.14901510E+00</totfact>
</mgrwt>
</event>
<event>
 6    1  0.1686953E-002  0.6565178E+03  0.7818608E-02  0.9794625E-01
          1   -1    0    0  502    0  0.00000000000E+00  0.00000000000E+00  0.10815261297E+03  0.10815261297E+03  0.00000000000E+00 0.  1.
         13   -1    0    0    0    0 -0.00000000000E+00 -0.00000000000E+00 -0.10000000000E+04  0.10000000000E+04  0.00000000000E+00 0.  1.
    9000005    2    1    2  501    0 -0.10178636607E-01  0.13338258776E-01 -0.89224588530E+03  0.11077537616E+04  0.65651784159E+03 0.  0.
         13    1    3    3    0    0 -0.23961257396E+03 -0.16638971602E+03 -0.19215882888E+03  0.34932039550E+03  0.00000000000E+00 0.  1.
          1    1    3    3  501    0  0.23960239532E+03  0.16640305428E+03 -0.70008705642E+03  0.75843336614E+03  0.00000000000E+00 0.  1.
         21    1    1    2  502  501  0.10178636607E-01 -0.13338258776E-01  0.39849826534E+00  0.39885132728E+00  0.00000000000E+00 0.  1.
<mgrwt>
<rscale>  1 0.65651784E+03</rscale>
<asrwt>0</asrwt>
<pdfrwt beam="1">  1        1 0.39328306E+00 0.65651784E+03</pdfrwt>
<pdfrwt beam="2">0</pdfrwt>
<totfact> 0.14314328E+00</totfact>
</mgrwt>
</event>
<event>
 6    1  0.1686953E-002  0.6588698E+03  0.7818608E-02  0.9790276E-01
          1   -1    0    0  502    0  0.00000000000E+00  0.00000000000E+00  0.10873234422E+03  0.10873234422E+03  0.00000000000E+00 0.  1.
         13   -1    0    0    0    0 -0.00000000000E+00 -0.00000000000E+00 -0.10000000000E+04  0.10000000000E+04  0.00000000000E+00 0.  1.
    9000005    2    1    2  501    0  0.43410851454E+00 -0.44533121394E+00 -0.89042628038E+03  0.11076860734E+04  0.65886955431E+03 0.  0.
         13    1    3    3    0    0  0.10742243546E+03  0.30178557512E+03 -0.57334758024E+03  0.65676598630E+03  0.00000000000E+00 0.  1.
          3    1    3    3  501    0 -0.10698832695E+03 -0.30223090634E+03 -0.31707870013E+03  0.45092008707E+03  0.00000000000E+00 0.  1.
         21    1    1    2  502  501 -0.43410851454E+00  0.44533121394E+00 -0.84137540722E+00  0.10462708389E+01  0.00000000000E+00 0. -1.
<mgrwt>
<rscale>  1 0.65886985E+03</rscale>
<asrwt>0</asrwt>
<pdfrwt beam="1">  1        1 0.39539118E+00 0.65886985E+03</pdfrwt>
<pdfrwt beam="2">0</pdfrwt>
<totfact> 0.14002640E+00</totfact>
</mgrwt>
</event>
<event>
 6    1  0.1686953E-002  0.6441495E+03  0.7818608E-02  0.9817820E-01
          1   -1    0    0  502    0  0.00000000000E+00  0.00000000000E+00  0.10373883313E+03  0.10373883313E+03  0.00000000000E+00 0.  1.
         13   -1    0    0    0    0 -0.00000000000E+00 -0.00000000000E+00 -0.10000000000E+04  0.10000000000E+04  0.00000000000E+00 0.  1.
    9000005    2    1    2  501    0 -0.13612140151E-03 -0.40315555054E-04 -0.89626785422E+03  0.11037321443E+04  0.64414950112E+03 0.  0.
         13    1    3    3    0    0  0.25522205340E+03 -0.93958982646E+02 -0.74375385460E+03  0.79191942974E+03  0.00000000000E+00 0.  1.
          1    1    3    3  501    0 -0.25522218952E+03  0.93958942331E+02 -0.15251399962E+03  0.31181271453E+03  0.00000000000E+00 0.  1.
         21    1    1    2  502  501  0.13612140151E-03  0.40315555058E-04  0.66873562206E-02  0.66888629528E-02  0.00000000000E+00 0. -1.
<mgrwt>
<rscale>  1 0.64414950E+03</rscale>
<asrwt>0</asrwt>
<pdfrwt beam="1">  1        1 0.37723292E+00 0.64414950E+03</pdfrwt>
<pdfrwt beam="2">0</pdfrwt>
<totfact> 0.16895418E+00</totfact>
</mgrwt>
</event>
<event>
 6    1  0.1686953E-002  0.6591757E+03  0.7818608E-02  0.9789712E-01
          1   -1    0    0  502    0  0.00000000000E+00  0.00000000000E+00  0.10864110770E+03  0.10864110770E+03  0.00000000000E+00 0.  1.
         13   -1    0    0    0    0 -0.00000000000E+00 -0.00000000000E+00 -0.10000000000E+04  0.10000000000E+04  0.00000000000E+00 0.  1.
    9000005    2    1    2  501    0  0.19980160317E-02 -0.11251016479E-02 -0.89137173611E+03  0.11086280608E+04  0.65917570138E+03 0.  0.
         13    1    3    3    0    0 -0.15346159605E+03  0.24495603880E+03 -0.17937102300E+03  0.34018801611E+03  0.00000000000E+00 0.  1.
          1    1    3    3  501    0  0.15346359407E+03 -0.24495716390E+03 -0.71200071310E+03  0.76844004471E+03  0.00000000000E+00 0.  1.
         21    1    1    2  502  501 -0.19980160317E-02  0.11251016479E-02  0.12843804661E-01  0.13046886216E-01  0.00000000000E+00 0. -1.
<mgrwt>
<rscale>  1 0.65917570E+03</rscale>
<asrwt>0</asrwt>
<pdfrwt beam="1">  1        1 0.39505941E+00 0.65917570E+03</pdfrwt>
<pdfrwt beam="2">0</pdfrwt>
<totfact> 0.14049494E+00</totfact>
</mgrwt>
</event>
<event>
 6    1  0.1686953E-002  0.6439155E+03  0.7818608E-02  0.9818264E-01
          1   -1    0    0  502    0  0.00000000000E+00  0.00000000000E+00  0.10365758305E+03  0.10365758305E+03  0.00000000000E+00 0.  1.
         13   -1    0    0    0    0 -0.00000000000E+00 -0.00000000000E+00 -0.10000000000E+04  0.10000000000E+04  0.00000000000E+00 0.  1.
    9000005    2    1    2  501    0 -0.31189967477E-03 -0.12926498863E-02 -0.89634252897E+03  0.11036562486E+04  0.64391551139E+03 0.  0.
         13    1    3    3    0    0  0.10935336686E+03  0.24617334154E+03 -0.14592212045E+03  0.30635394263E+03  0.00000000000E+00 0.  1.
          1    1    3    3  501    0 -0.10935367876E+03 -0.24617463419E+03 -0.75042040852E+03  0.79730230597E+03  0.00000000000E+00 0.  1.
         21    1    1    2  502  501  0.31189967477E-03  0.12926498863E-02  0.11202383229E-03  0.13344566215E-02  0.00000000000E+00 0. -1.
<mgrwt>
<rscale>  1 0.64391551E+03</rscale>
<asrwt>0</asrwt>
<pdfrwt beam="1">  1        1 0.37693746E+00 0.64391551E+03</pdfrwt>
<pdfrwt beam="2">0</pdfrwt>
<totfact> 0.16946864E+00</totfact>
</mgrwt>
</event>
<event>
 6    1  0.1686953E-002  0.6394762E+03  0.7818608E-02  0.9826729E-01
          1   -1    0    0  502    0  0.00000000000E+00  0.00000000000E+00  0.10223276747E+03  0.10223276747E+03  0.00000000000E+00 0.  1.
         13   -1    0    0    0    0 -0.00000000000E+00 -0.00000000000E+00 -0.10000000000E+04  0.10000000000E+04  0.00000000000E+00 0.  1.
    9000005    2    1    2  501    0 -0.35526743261E-04  0.59757787341E-04 -0.89776755299E+03  0.11022324396E+04  0.63947616970E+03 0.  0.
         13    1    3    3    0    0  0.26170640113E+03 -0.12434843408E+03 -0.21584249363E+03  0.36130424230E+03  0.00000000000E+00 0.  1.
          1    1    3    3  501    0 -0.26170643665E+03  0.12434849384E+03 -0.68192505936E+03  0.74092819725E+03  0.00000000000E+00 0.  1.
         21    1    1    2  502  501  0.35526743282E-04 -0.59757787342E-04  0.32046258265E-03  0.32791677224E-03  0.00000000000E+00 0. -1.
<mgrwt>
<rscale>  1 0.63947617E+03</rscale>
<asrwt>0</asrwt>
<pdfrwt beam="1">  1        1 0.37175630E+00 0.63947617E+03</pdfrwt>
<pdfrwt beam="2">0</pdfrwt>
<totfact> 0.17874816E+00</totfact>
</mgrwt>
</event>
<event>
 6    1  0.1686953E-002  0.6115653E+03  0.7818608E-02  0.9881698E-01
          1   -1    0    0  502    0  0.00000000000E+00  0.00000000000E+00  0.93505905220E+02  0.93505905220E+02  0.00000000000E+00 0.  1.
         13   -1    0    0    0    0 -0.00000000000E+00 -0.00000000000E+00 -0.10000000000E+04  0.10000000000E+04  0.00000000000E+00 0.  1.
    9000005    2    1    2  501    0 -0.71982431567E-03  0.77415560185E-04 -0.90649691280E+03  0.10935029957E+04  0.61156532656E+03 0.  0.
         13    1    3    3    0    0 -0.23395245415E+03  0.16959621338E+03 -0.27438601390E+03  0.39847749123E+03  0.00000000000E+00 0.  1.
          1    1    3    3  501    0  0.23395173432E+03 -0.16959613597E+03 -0.63211089890E+03  0.69502550445E+03  0.00000000000E+00 0.  1.
         21    1    1    2  502  501  0.71982431569E-03 -0.77415560196E-04  0.28180221786E-02  0.29095341919E-02  0.00000000000E+00 0.  1.
<mgrwt>
<rscale>  1 0.61156533E+03</rscale>
<asrwt>0</asrwt>
<pdfrwt beam="1">  1        1 0.34002219E+00 0.61156533E+03</pdfrwt>
<pdfrwt beam="2">0</pdfrwt>
<totfact> 0.24718352E+00</totfact>
</mgrwt>
</event>
<event>
 6    1  0.1686953E-002  0.6473589E+03  0.7818608E-02  0.9811748E-01
          3   -1    0    0  502    0  0.00000000000E+00  0.00000000000E+00  0.10476843162E+03  0.10476843162E+03  0.00000000000E+00 0.  1.
         13   -1    0    0    0    0 -0.00000000000E+00 -0.00000000000E+00 -0.10000000000E+04  0.10000000000E+04  0.00000000000E+00 0.  1.
    9000005    2    1    2  501    0 -0.27808210916E-04  0.48610492399E-04 -0.89523161352E+03  0.11047683597E+04  0.64735885468E+03 0.  0.
         13    1    3    3    0    0 -0.12112452547E+03 -0.22553512313E+03 -0.10959649096E+03  0.27847555237E+03  0.00000000000E+00 0.  1.
          1    1    3    3  501    0  0.12112449766E+03  0.22553517174E+03 -0.78563512256E+03  0.82629280732E+03  0.00000000000E+00 0.  1.
         21    1    1    2  502  501  0.27808210914E-04 -0.48610492408E-04  0.45134055223E-04  0.71926069733E-04  0.00000000000E+00 0.  1.
<mgrwt>
<rscale>  1 0.64735885E+03</rscale>
<asrwt>0</asrwt>
<pdfrwt beam="1">  1        3 0.38097692E+00 0.64735885E+03</pdfrwt>
<pdfrwt beam="2">0</pdfrwt>
<totfact> 0.74620399E-02</totfact>
</mgrwt>
</event>
<event>
 6    1  0.1686953E-002  0.6550712E+03  0.7818608E-02  0.9797310E-01
          3   -1    0    0  502    0  0.00000000000E+00  0.00000000000E+00  0.10736454009E+03  0.10736454009E+03  0.00000000000E+00 0.  1.
         13   -1    0    0    0    0 -0.00000000000E+00 -0.00000000000E+00 -0.10000000000E+04  0.10000000000E+04  0.00000000000E+00 0.  1.
    9000005    2    1    2  501    0  0.14691621516E-01 -0.19295804019E-01 -0.89271850680E+03  0.11072780244E+04  0.65507121020E+03 0.  0.
         13    1    3    3    0    0 -0.28958746611E+03 -0.61771136527E+02 -0.68299687998E+03  0.74442011788E+03  0.00000000000E+00 0.  1.
          1    1    3    3  501    0  0.28960215774E+03  0.61751840723E+02 -0.20972162682E+03  0.36285790656E+03  0.00000000000E+00 0.  1.
         21    1    1    2  502  501 -0.14691621516E-01  0.19295804019E-01  0.83046889223E-01  0.86515649481E-01  0.00000000000E+00 0. -1.
<mgrwt>
<rscale>  1 0.65507121E+03</rscale>
<asrwt>0</asrwt>
<pdfrwt beam="1">  1        3 0.39041733E+00 0.65507121E+03</pdfrwt>
<pdfrwt beam="2">0</pdfrwt>
<totfact> 0.66457315E-02</totfact>
</mgrwt>
</event>
<event>
 6    1  0.1686953E-002  0.6412709E+03  0.7818608E-02  0.9823298E-01
          1   -1    0    0  502    0  0.00000000000E+00  0.00000000000E+00  0.10694038242E+03  0.10694038242E+03  0.00000000000E+00 0.  1.
         13   -1    0    0    0    0 -0.00000000000E+00 -0.00000000000E+00 -0.10000000000E+04  0.10000000000E+04  0.00000000000E+00 0.  1.
    9000005    2    1    2  501    0 -0.14744592160E+00 -0.77475436791E+00 -0.89715138010E+03  0.11027733085E+04  0.64127041810E+03 0.  0.
         13    1    3    3    0    0  0.14984140731E+03  0.23616485578E+03 -0.71661372533E+03  0.76926037060E+03  0.00000000000E+00 0.  1.
          1    1    3    3  501    0 -0.14998885323E+03 -0.23693961015E+03 -0.18053765477E+03  0.33351293789E+03  0.00000000000E+00 0.  1.
         21    1    1    2  502  501  0.14744592160E+00  0.77475436791E+00  0.40917625189E+01  0.41670739304E+01  0.00000000000E+00 0.  1.
<mgrwt>
<rscale>  1 0.64127090E+03</rscale>
<asrwt>0</asrwt>
<pdfrwt beam="1">  1        1 0.38887494E+00 0.64127090E+03</pdfrwt>
<pdfrwt beam="2">0</pdfrwt>
<totfact> 0.15016430E+00</totfact>
</mgrwt>
</event>
<event>
 6    1  0.1686953E-002  0.6488488E+03  0.7818608E-02  0.9808942E-01
          1   -1    0    0  502    0  0.00000000000E+00  0.00000000000E+00  0.10525128943E+03  0.10525128943E+03  0.00000000000E+00 0.  1.
         13   -1    0    0    0    0 -0.00000000000E+00 -0.00000000000E+00 -0.10000000000E+04  0.10000000000E+04  0.00000000000E+00 0.  1.
    9000005    2    1    2  501    0 -0.10657270764E-04 -0.33558757195E-05 -0.89474880718E+03  0.11052511922E+04  0.64884880353E+03 0.  0.
         13    1    3    3    0    0 -0.10784133321E+03 -0.27743619800E+03 -0.66717678989E+03  0.73056516895E+03  0.00000000000E+00 0.  1.
          3    1    3    3  501    0  0.10784132255E+03  0.27743619464E+03 -0.22757201729E+03  0.37468602323E+03  0.00000000000E+00 0.  1.
         21    1    1    2  502  501  0.10657270761E-04  0.33558757570E-05  0.96616418441E-04  0.97260329192E-04  0.00000000000E+00 0. -1.
<mgrwt>
<rscale>  1 0.64884880E+03</rscale>
<asrwt>0</asrwt>
<pdfrwt beam="1">  1        1 0.38273277E+00 0.64884880E+03</pdfrwt>
<pdfrwt beam="2">0</pdfrwt>
<totfact> 0.15963466E+00</totfact>
</mgrwt>
</event>
<event>
 6    1  0.1686953E-002  0.5965903E+03  0.7818608E-02  0.9912505E-01
          1   -1    0    0  502    0  0.00000000000E+00  0.00000000000E+00  0.88986207625E+02  0.88986207625E+02  0.00000000000E+00 0.  1.
         13   -1    0    0    0    0 -0.00000000000E+00 -0.00000000000E+00 -0.10000000000E+04  0.10000000000E+04  0.00000000000E+00 0.  1.
    9000005    2    1    2  501    0 -0.36370933913E-02  0.11583747539E-02 -0.91101935822E+03  0.10889794586E+04  0.59659030352E+03 0.  0.
         13    1    3    3    0    0 -0.68144536285E+01  0.25977274938E+03 -0.18816220241E+03  0.32083224980E+03  0.00000000000E+00 0.  1.
          3    1    3    3  501    0  0.68108165351E+01 -0.25977159101E+03 -0.72285715581E+03  0.76814720883E+03  0.00000000000E+00 0.  1.
         21    1    1    2  502  501  0.36370933913E-02 -0.11583747539E-02  0.55658452568E-02  0.67489935420E-02  0.00000000000E+00 0.  1.
<mgrwt>
<rscale>  1 0.59659030E+03</rscale>
<asrwt>0</asrwt>
<pdfrwt beam="1">  1        1 0.32358689E+00 0.59659030E+03</pdfrwt>
<pdfrwt beam="2">0</pdfrwt>
<totfact> 0.29200878E+00</totfact>
</mgrwt>
</event>
<event>
 6    1  0.1686953E-002  0.6437849E+03  0.7818608E-02  0.9818512E-01
          1   -1    0    0  502    0  0.00000000000E+00  0.00000000000E+00  0.10361530999E+03  0.10361530999E+03  0.00000000000E+00 0.  1.
         13   -1    0    0    0    0 -0.00000000000E+00 -0.00000000000E+00 -0.10000000000E+04  0.10000000000E+04  0.00000000000E+00 0.  1.
    9000005    2    1    2  501    0  0.99834559717E-03  0.63768649227E-04 -0.89638471455E+03  0.11036143093E+04  0.64378489205E+03 0.  0.
         13    1    3    3    0    0 -0.18050938506E+03  0.26647724980E+03 -0.44036986456E+03  0.54545337140E+03  0.00000000000E+00 0.  1.
          3    1    3    3  501    0  0.18051038341E+03 -0.26647718603E+03 -0.45601484999E+03  0.55816093790E+03  0.00000000000E+00 0.  1.
         21    1    1    2  502  501 -0.99834559716E-03 -0.63768649226E-04  0.24537764491E-04  0.10006810051E-02  0.00000000000E+00 0.  1.
<mgrwt>
<rscale>  1 0.64378489E+03</rscale>
<asrwt>0</asrwt>
<pdfrwt beam="1">  1        1 0.37678374E+00 0.64378489E+03</pdfrwt>
<pdfrwt beam="2">0</pdfrwt>
<totfact> 0.16973718E+00</totfact>
</mgrwt>
</event>
<event>
 6    1  0.1686953E-002  0.6472324E+03  0.7818608E-02  0.9811986E-01
          1   -1    0    0  502    0  0.00000000000E+00  0.00000000000E+00  0.10559620259E+03  0.10559620259E+03  0.00000000000E+00 0.  1.
         13   -1    0    0    0    0 -0.00000000000E+00 -0.00000000000E+00 -0.10000000000E+04  0.10000000000E+04  0.00000000000E+00 0.  1.
    9000005    2    1    2  501    0 -0.40009094221E-02 -0.13059439924E-01 -0.89527248884E+03  0.11047274038E+04  0.64723242133E+03 0.  0.
         13    1    3    3    0    0 -0.27210386681E+03  0.11822966670E+03 -0.22700755989E+03  0.37356552393E+03  0.00000000000E+00 0.  1.
          1    1    3    3  501    0  0.27209986590E+03 -0.11824272614E+03 -0.66826492895E+03  0.73116187986E+03  0.00000000000E+00 0.  1.
         21    1    1    2  502  501  0.40009094221E-02  0.13059439924E-01  0.86869143417E+00  0.86879880528E+00  0.00000000000E+00 0. -1.
<mgrwt>
<rscale>  1 0.64723242E+03</rscale>
<asrwt>0</asrwt>
<pdfrwt beam="1">  1        1 0.38398700E+00 0.64723242E+03</pdfrwt>
<pdfrwt beam="2">0</pdfrwt>
<totfact> 0.15765721E+00</totfact>
</mgrwt>
</event>
<event>
 6    1  0.1686953E-002  0.6083595E+03  0.7818608E-02  0.9888213E-01
          1   -1    0    0  502    0  0.00000000000E+00  0.00000000000E+00  0.92525514835E+02  0.92525514835E+02  0.00000000000E+00 0.  1.
         13   -1    0    0    0    0 -0.00000000000E+00 -0.00000000000E+00 -0.10000000000E+04  0.10000000000E+04  0.00000000000E+00 0.  1.
    9000005    2    1    2  501    0  0.50395935831E-03 -0.33643105411E-03 -0.90747385735E+03  0.10925246423E+04  0.60835950906E+03 0.  0.
         13    1    3    3    0    0 -0.37421341205E+02  0.26668090759E+03 -0.19972555119E+03  0.33527504985E+03  0.00000000000E+00 0.  1.
          1    1    3    3  501    0  0.37421845165E+02 -0.26668124402E+03 -0.70774830616E+03  0.75724959246E+03  0.00000000000E+00 0.  1.
         21    1    1    2  502  501 -0.50395935832E-03  0.33643105408E-03 -0.62781271444E-03  0.87253062605E-03  0.00000000000E+00 0.  1.
<mgrwt>
<rscale>  1 0.60835951E+03</rscale>
<asrwt>0</asrwt>
<pdfrwt beam="1">  1        1 0.33645713E+00 0.60835951E+03</pdfrwt>
<pdfrwt beam="2">0</pdfrwt>
<totfact> 0.25629655E+00</totfact>
</mgrwt>
</event>
<event>
 6    1  0.1686953E-002  0.6552690E+03  0.7818608E-02  0.9796942E-01
          1   -1    0    0  502    0  0.00000000000E+00  0.00000000000E+00  0.10734518180E+03  0.10734518180E+03  0.00000000000E+00 0.  1.
         13   -1    0    0    0    0 -0.00000000000E+00 -0.00000000000E+00 -0.10000000000E+04  0.10000000000E+04  0.00000000000E+00 0.  1.
    9000005    2    1    2  501    0  0.50480245761E-04  0.43303752648E-04 -0.89265563535E+03  0.11073443619E+04  0.65526899256E+03 0.  0.
         13    1    3    3    0    0 -0.11923155450E+03  0.20306591653E+03 -0.83128738402E+03  0.86399690096E+03  0.00000000000E+00 0.  1.
          3    1    3    3  501    0  0.11923160498E+03 -0.20306587322E+03 -0.61368251336E+02  0.24334746098E+03  0.00000000000E+00 0.  1.
         21    1    1    2  502  501 -0.50480245751E-04 -0.43303752645E-04  0.81715445842E-03  0.81985662108E-03  0.00000000000E+00 0. -1.
<mgrwt>
<rscale>  1 0.65526899E+03</rscale>
<asrwt>0</asrwt>
<pdfrwt beam="1">  1        1 0.39034694E+00 0.65526899E+03</pdfrwt>
<pdfrwt beam="2">0</pdfrwt>
<totfact> 0.14753847E+00</totfact>
</mgrwt>
</event>
<event>
 6    1  0.1686953E-002  0.6517015E+03  0.7818608E-02  0.9803592E-01
          1   -1    0    0  502    0  0.00000000000E+00  0.00000000000E+00  0.11044206173E+03  0.11044206173E+03  0.00000000000E+00 0.  1.
         13   -1    0    0    0    0 -0.00000000000E+00 -0.00000000000E+00 -0.10000000000E+04  0.10000000000E+04  0.00000000000E+00 0.  1.
    9000005    2    1    2  501    0 -0.41122418512E-01 -0.30412594979E+00 -0.89381519486E+03  0.11061737579E+04  0.65170137791E+03 0.  0.
         13    1    3    3    0    0 -0.27061387903E+02 -0.31244790192E+03 -0.59815408244E+03  0.67538456931E+03  0.00000000000E+00 0.  1.
          3    1    3    3  501    0  0.27020265484E+02  0.31214377597E+03 -0.29566111243E+03  0.43078918861E+03  0.00000000000E+00 0.  1.
         21    1    1    2  502  501  0.41122418512E-01  0.30412594979E+00  0.42572565913E+01  0.42683038002E+01  0.00000000000E+00 0. -1.
<mgrwt>
<rscale>  1 0.65170145E+03</rscale>
<asrwt>0</asrwt>
<pdfrwt beam="1">  1        1 0.40160834E+00 0.65170145E+03</pdfrwt>
<pdfrwt beam="2">0</pdfrwt>
<totfact> 0.13155338E+00</totfact>
</mgrwt>
</event>
<event>
 6    1  0.1686953E-002  0.6509197E+03  0.7818608E-02  0.9805055E-01
          1   -1    0    0  502    0  0.00000000000E+00  0.00000000000E+00  0.10592426582E+03  0.10592426582E+03  0.00000000000E+00 0.  1.
         13   -1    0    0    0    0 -0.00000000000E+00 -0.00000000000E+00 -0.10000000000E+04  0.10000000000E+04  0.00000000000E+00 0.  1.
    9000005    2    1    2  501    0  0.22620870936E-04  0.27893883916E-03 -0.89407575018E+03  0.11059239855E+04  0.65091966836E+03 0.  0.
         13    1    3    3    0    0 -0.13360542358E+03 -0.23576618914E+03 -0.75327560407E+03  0.80053746998E+03  0.00000000000E+00 0.  1.
          1    1    3    3  501    0  0.13360544620E+03  0.23576646808E+03 -0.14080014611E+03  0.30538651553E+03  0.00000000000E+00 0.  1.
         21    1    1    2  502  501 -0.22620870942E-04 -0.27893883916E-03  0.15995003647E-04  0.28031129113E-03  0.00000000000E+00 0. -1.
<mgrwt>
<rscale>  1 0.65091967E+03</rscale>
<asrwt>0</asrwt>
<pdfrwt beam="1">  1        1 0.38517996E+00 0.65091967E+03</pdfrwt>
<pdfrwt beam="2">0</pdfrwt>
<totfact> 0.15564761E+00</totfact>
</mgrwt>
</event>
<event>
 6    1  0.1686953E-002  0.6064924E+03  0.7818608E-02  0.9892027E-01
          1   -1    0    0  502    0  0.00000000000E+00  0.00000000000E+00  0.91960043769E+02  0.91960043769E+02  0.00000000000E+00 0.  1.
         13   -1    0    0    0    0 -0.00000000000E+00 -0.00000000000E+00 -0.10000000000E+04  0.10000000000E+04  0.00000000000E+00 0.  1.
    9000005    2    1    2  501    0  0.94975198294E-04 -0.12690501592E-03 -0.90804172525E+03  0.10919582677E+04  0.60649244310E+03 0.  0.
         13    1    3    3    0    0  0.23804287836E+03 -0.12796403043E+03 -0.20637517535E+03  0.34004399424E+03  0.00000000000E+00 0.  1.
          3    1    3    3  501    0 -0.23804278338E+03  0.12796390352E+03 -0.70166654990E+03  0.75191427342E+03  0.00000000000E+00 0.  1.
         21    1    1    2  502  501 -0.94975198291E-04  0.12690501592E-03  0.17690167788E-02  0.17761040327E-02  0.00000000000E+00 0.  1.
<mgrwt>
<rscale>  1 0.60649244E+03</rscale>
<asrwt>0</asrwt>
<pdfrwt beam="1">  1        1 0.33440086E+00 0.60649244E+03</pdfrwt>
<pdfrwt beam="2">0</pdfrwt>
<totfact> 0.26170125E+00</totfact>
</mgrwt>
</event>
