<event>
 6    1  0.4392537E-003  0.6506209E+03  0.7818608E-02  0.9805615E-01
          1   -1    0    0  502    0  0.00000000000E+00  0.00000000000E+00  0.10582702786E+03  0.10582702786E+03  0.00000000000E+00 0.  1.
         13   -1    0    0    0    0 -0.00000000000E+00 -0.00000000000E+00 -0.10000000000E+04  0.10000000000E+04  0.00000000000E+00 0.  1.
    9000005    2    1    2  501    0 -0.18505088839E-05  0.61821007762E-05 -0.89417310001E+03  0.11058268998E+04  0.65062093389E+03 0.  0.
         13    1    3    3    0    0  0.16885187021E+02 -0.14088955065E+03  0.50454669208E+02  0.15060095839E+03  0.00000000000E+00 0.  1.
          1    1    3    3  501    0 -0.16885188871E+02  0.14088955684E+03 -0.94462776921E+03  0.95522594144E+03  0.00000000000E+00 0.  1.
         21    1    1    2  502  501  0.18505088860E-05 -0.61821007636E-05  0.12786747676E-03  0.12803020880E-03  0.00000000000E+00 0. -1.
<mgrwt>
<rscale>  1 0.65062093E+03</rscale>
<asrwt>0</asrwt>
<pdfrwt beam="1">  1        1 0.38482637E+00 0.65062093E+03</pdfrwt>
<pdfrwt beam="2">0</pdfrwt>
<totfact> 0.15621777E+00</totfact>
</mgrwt>
</event>
<event>
 6    1  0.4392537E-003  0.6500951E+03  0.7818608E-02  0.9806601E-01
          1   -1    0    0  502    0  0.00000000000E+00  0.00000000000E+00  0.10565591244E+03  0.10565591244E+03  0.00000000000E+00 0.  1.
         13   -1    0    0    0    0 -0.00000000000E+00 -0.00000000000E+00 -0.10000000000E+04  0.10000000000E+04  0.00000000000E+00 0.  1.
    9000005    2    1    2  501    0  0.14508949576E-04  0.17637547160E-04 -0.89434406741E+03  0.11056558820E+04  0.65009508417E+03 0.  0.
         13    1    3    3    0    0  0.68220580142E+02 -0.76045299563E+02 -0.97198533748E+03  0.97733946581E+03  0.00000000000E+00 0.  1.
          3    1    3    3  501    0 -0.68220565633E+02  0.76045317201E+02  0.77641270070E+02  0.12831641618E+03  0.00000000000E+00 0.  1.
         21    1    1    2  502  501 -0.14508949572E-04 -0.17637547157E-04 -0.20145094271E-04  0.30453530347E-04  0.00000000000E+00 0.  1.
<mgrwt>
<rscale>  1 0.65009508E+03</rscale>
<asrwt>0</asrwt>
<pdfrwt beam="1">  1        1 0.38420413E+00 0.65009508E+03</pdfrwt>
<pdfrwt beam="2">0</pdfrwt>
<totfact> 0.15722595E+00</totfact>
</mgrwt>
</event>
<event>
 6    1  0.4392537E-003  0.6483677E+03  0.7818608E-02  0.9809847E-01
          3   -1    0    0  502    0  0.00000000000E+00  0.00000000000E+00  0.10509742566E+03  0.10509742566E+03  0.00000000000E+00 0.  1.
         13   -1    0    0    0    0 -0.00000000000E+00 -0.00000000000E+00 -0.10000000000E+04  0.10000000000E+04  0.00000000000E+00 0.  1.
    9000005    2    1    2  501    0 -0.56116120425E-03  0.13524945166E-02 -0.89490456865E+03  0.11050949515E+04  0.64836769264E+03 0.  0.
         13    1    3    3    0    0 -0.17419931508E+03 -0.51930664199E+02  0.10061519895E+02  0.18205336976E+03  0.00000000000E+00 0.  1.
          1    1    3    3  501    0  0.17419875391E+03  0.51932016693E+02 -0.90496608855E+03  0.92304158175E+03  0.00000000000E+00 0.  1.
         21    1    1    2  502  501  0.56116120425E-03 -0.13524945166E-02  0.19943165955E-02  0.24741548047E-02  0.00000000000E+00 0.  1.
<mgrwt>
<rscale>  1 0.64836769E+03</rscale>
<asrwt>0</asrwt>
<pdfrwt beam="1">  1        3 0.38217326E+00 0.64836769E+03</pdfrwt>
<pdfrwt beam="2">0</pdfrwt>
<totfact> 0.73530823E-02</totfact>
</mgrwt>
</event>
<event>
 6    1  0.4392537E-003  0.6583367E+03  0.7818608E-02  0.9791260E-01
          1   -1    0    0  502    0  0.00000000000E+00  0.00000000000E+00  0.10835439246E+03  0.10835439246E+03  0.00000000000E+00 0.  1.
         13   -1    0    0    0    0 -0.00000000000E+00 -0.00000000000E+00 -0.10000000000E+04  0.10000000000E+04  0.00000000000E+00 0.  1.
    9000005    2    1    2  501    0  0.18762828051E-03  0.62936107682E-04 -0.89164819206E+03  0.11083518004E+04  0.65833670337E+03 0.  0.
         13    1    3    3    0    0 -0.30940400817E+03  0.80229033676E+02 -0.31342893049E+03  0.44766643004E+03  0.00000000000E+00 0.  1.
          1    1    3    3  501    0  0.30940419580E+03 -0.80228970739E+02 -0.57821926157E+03  0.66068537034E+03  0.00000000000E+00 0.  1.
         21    1    1    2  502  501 -0.18762828053E-03 -0.62936107675E-04  0.25845160038E-02  0.25920818465E-02  0.00000000000E+00 0. -1.
<mgrwt>
<rscale>  1 0.65833670E+03</rscale>
<asrwt>0</asrwt>
<pdfrwt beam="1">  1        1 0.39401680E+00 0.65833670E+03</pdfrwt>
<pdfrwt beam="2">0</pdfrwt>
<totfact> 0.14202460E+00</totfact>
</mgrwt>
</event>
<event>
 6    1  0.4392537E-003  0.6449395E+03  0.7818608E-02  0.9816322E-01
          1   -1    0    0  502    0  0.00000000000E+00  0.00000000000E+00  0.10398690437E+03  0.10398690437E+03  0.00000000000E+00 0.  1.
         13   -1    0    0    0    0 -0.00000000000E+00 -0.00000000000E+00 -0.10000000000E+04  0.10000000000E+04  0.00000000000E+00 0.  1.
    9000005    2    1    2  501    0  0.21600962191E-03 -0.25335449685E-04 -0.89601319714E+03  0.11039866644E+04  0.64493945888E+03 0.  0.
         13    1    3    3    0    0 -0.31970854202E+03 -0.40648056195E+02 -0.42918929767E+03  0.53672084881E+03  0.00000000000E+00 0.  1.
          3    1    3    3  501    0  0.31970875803E+03  0.40648030860E+02 -0.46682389948E+03  0.56726581555E+03  0.00000000000E+00 0.  1.
         21    1    1    2  502  501 -0.21600962190E-03  0.25335449683E-04  0.10151766058E-03  0.24001641021E-03  0.00000000000E+00 0.  1.
<mgrwt>
<rscale>  1 0.64493946E+03</rscale>
<asrwt>0</asrwt>
<pdfrwt beam="1">  1        1 0.37813500E+00 0.64493946E+03</pdfrwt>
<pdfrwt beam="2">0</pdfrwt>
<totfact> 0.16739029E+00</totfact>
</mgrwt>
</event>
<event>
 6    1  0.4392537E-003  0.6518419E+03  0.7818608E-02  0.9803329E-01
          1   -1    0    0  502    0  0.00000000000E+00  0.00000000000E+00  0.10623470684E+03  0.10623470684E+03  0.00000000000E+00 0.  1.
         13   -1    0    0    0    0 -0.00000000000E+00 -0.00000000000E+00 -0.10000000000E+04  0.10000000000E+04  0.00000000000E+00 0.  1.
    9000005    2    1    2  501    0  0.23187487390E-02 -0.42335247481E-02 -0.89377490597E+03  0.11062239502E+04  0.65184188681E+03 0.  0.
         13    1    3    3    0    0 -0.16609607128E+03 -0.14291333809E+03 -0.85634568836E+03  0.88393442351E+03  0.00000000000E+00 0.  1.
          1    1    3    3  501    0  0.16609839003E+03  0.14290910457E+03 -0.37429217614E+02  0.22228952668E+03  0.00000000000E+00 0.  1.
         21    1    1    2  502  501 -0.23187487390E-02  0.42335247481E-02  0.96128122425E-02  0.10756648489E-01  0.00000000000E+00 0. -1.
<mgrwt>
<rscale>  1 0.65184189E+03</rscale>
<asrwt>0</asrwt>
<pdfrwt beam="1">  1        1 0.38630884E+00 0.65184189E+03</pdfrwt>
<pdfrwt beam="2">0</pdfrwt>
<totfact> 0.15384140E+00</totfact>
</mgrwt>
</event>
<event>
 6    1  0.4392537E-003  0.6477703E+03  0.7818608E-02  0.9810972E-01
          1   -1    0    0  502    0  0.00000000000E+00  0.00000000000E+00  0.10504054773E+03  0.10504054773E+03  0.00000000000E+00 0.  1.
         13   -1    0    0    0    0 -0.00000000000E+00 -0.00000000000E+00 -0.10000000000E+04  0.10000000000E+04  0.00000000000E+00 0.  1.
    9000005    2    1    2  501    0 -0.84355789731E-01 -0.61063260917E-02 -0.89508406226E+03  0.11048899461E+04  0.64777025821E+03 0.  0.
         13    1    3    3    0    0 -0.47523586154E+02 -0.17315025065E+03  0.12245140457E+02  0.17997067540E+03  0.00000000000E+00 0.  1.
          3    1    3    3  501    0  0.47439230364E+02  0.17314414432E+03 -0.90732920272E+03  0.92491927075E+03  0.00000000000E+00 0.  1.
         21    1    1    2  502  501  0.84355789731E-01  0.61063260917E-02  0.12460998796E+00  0.15060157894E+00  0.00000000000E+00 0.  1.
<mgrwt>
<rscale>  1 0.64777026E+03</rscale>
<asrwt>0</asrwt>
<pdfrwt beam="1">  1        1 0.38196643E+00 0.64777026E+03</pdfrwt>
<pdfrwt beam="2">0</pdfrwt>
<totfact> 0.16091578E+00</totfact>
</mgrwt>
</event>
<event>
 6    1  0.4392537E-003  0.5857627E+03  0.7818608E-02  0.9935392E-01
          1   -1    0    0  502    0  0.00000000000E+00  0.00000000000E+00  0.86486501266E+02  0.86486501266E+02  0.00000000000E+00 0.  1.
         13   -1    0    0    0    0 -0.00000000000E+00 -0.00000000000E+00 -0.10000000000E+04  0.10000000000E+04  0.00000000000E+00 0.  1.
    9000005    2    1    2  501    0 -0.17521401052E+00  0.21162650412E+01 -0.91187087021E+03  0.10838018214E+04  0.58575881964E+03 0.  0.
         13    1    3    3    0    0  0.22355117707E+03  0.18644784270E+03 -0.52598142122E+03  0.60116086223E+03  0.00000000000E+00 0.  1.
          3    1    3    3  501    0 -0.22372639108E+03 -0.18433157766E+03 -0.38588944900E+03  0.48264095914E+03  0.00000000000E+00 0.  1.
         21    1    1    2  502  501  0.17521401052E+00 -0.21162650412E+01 -0.16426285215E+01  0.26846798941E+01  0.00000000000E+00 0.  1.
<mgrwt>
<rscale>  1 0.58576267E+03</rscale>
<asrwt>0</asrwt>
<pdfrwt beam="1">  1        1 0.31449703E+00 0.58576267E+03</pdfrwt>
<pdfrwt beam="2">0</pdfrwt>
<totfact> 0.32028188E+00</totfact>
</mgrwt>
</event>
<event>
 6    1  0.4392537E-003  0.6539737E+03  0.7818608E-02  0.9799351E-01
          1   -1    0    0  502    0  0.00000000000E+00  0.00000000000E+00  0.10696872405E+03  0.10696872405E+03  0.00000000000E+00 0.  1.
         13   -1    0    0    0    0 -0.00000000000E+00 -0.00000000000E+00 -0.10000000000E+04  0.10000000000E+04  0.00000000000E+00 0.  1.
    9000005    2    1    2  501    0  0.71466838396E-02 -0.10106647044E-01 -0.89307870539E+03  0.11069197060E+04  0.65397374665E+03 0.  0.
         13    1    3    3    0    0  0.30811336070E+03  0.10471007480E+03 -0.50069232755E+03  0.59715228349E+03  0.00000000000E+00 0.  1.
          1    1    3    3  501    0 -0.30810621401E+03 -0.10472018145E+03 -0.39238637784E+03  0.50976742249E+03  0.00000000000E+00 0.  1.
         21    1    1    2  502  501 -0.71466838396E-02  0.10106647044E-01  0.47429444453E-01  0.49018074274E-01  0.00000000000E+00 0. -1.
<mgrwt>
<rscale>  1 0.65397375E+03</rscale>
<asrwt>0</asrwt>
<pdfrwt beam="1">  1        1 0.38897800E+00 0.65397375E+03</pdfrwt>
<pdfrwt beam="2">0</pdfrwt>
<totfact> 0.14965093E+00</totfact>
</mgrwt>
</event>
<event>
 6    1  0.4392537E-003  0.6452094E+03  0.7818608E-02  0.9815810E-01
          1   -1    0    0  502    0  0.00000000000E+00  0.00000000000E+00  0.10407432655E+03  0.10407432655E+03  0.00000000000E+00 0.  1.
         13   -1    0    0    0    0 -0.00000000000E+00 -0.00000000000E+00 -0.10000000000E+04  0.10000000000E+04  0.00000000000E+00 0.  1.
    9000005    2    1    2  501    0 -0.32014794670E-04 -0.68548223851E-04 -0.89592620406E+03  0.11040737906E+04  0.64520940160E+03 0.  0.
         13    1    3    3    0    0  0.18247994327E+03 -0.74195657251E+02 -0.88513654857E+03  0.90679139545E+03  0.00000000000E+00 0.  1.
          1    1    3    3  501    0 -0.18247997528E+03  0.74195588703E+02 -0.10789655493E+02  0.19728239513E+03  0.00000000000E+00 0.  1.
         21    1    1    2  502  501  0.32014794652E-04  0.68548223846E-04  0.53061289228E-03  0.53597933498E-03  0.00000000000E+00 0.  1.
<mgrwt>
<rscale>  1 0.64520940E+03</rscale>
<asrwt>0</asrwt>
<pdfrwt beam="1">  1        1 0.37845289E+00 0.64520940E+03</pdfrwt>
<pdfrwt beam="2">0</pdfrwt>
<totfact> 0.16684271E+00</totfact>
</mgrwt>
</event>
<event>
 6    1  0.4392537E-003  0.6168730E+03  0.7818608E-02  0.9871005E-01
          1   -1    0    0  502    0  0.00000000000E+00  0.00000000000E+00  0.95133683980E+02  0.95133683980E+02  0.00000000000E+00 0.  1.
         13   -1    0    0    0    0 -0.00000000000E+00 -0.00000000000E+00 -0.10000000000E+04  0.10000000000E+04  0.00000000000E+00 0.  1.
    9000005    2    1    2  501    0 -0.37706400039E-03 -0.30363363490E-03 -0.90486683447E+03  0.10951329746E+04  0.61687295615E+03 0.  0.
         13    1    3    3    0    0  0.15390335492E+03 -0.24751028204E+03 -0.27326472976E+03  0.39952621303E+03  0.00000000000E+00 0.  1.
          1    1    3    3  501    0 -0.15390373198E+03  0.24750997840E+03 -0.63160210471E+03  0.69560676161E+03  0.00000000000E+00 0.  1.
         21    1    1    2  502  501  0.37706400039E-03  0.30363363491E-03  0.51844898084E-03  0.70933771250E-03  0.00000000000E+00 0. -1.
<mgrwt>
<rscale>  1 0.61687296E+03</rscale>
<asrwt>0</asrwt>
<pdfrwt beam="1">  1        1 0.34594140E+00 0.61687296E+03</pdfrwt>
<pdfrwt beam="2">0</pdfrwt>
<totfact> 0.23274335E+00</totfact>
</mgrwt>
</event>
<event>
 6    1  0.4392537E-003  0.6442250E+03  0.7818608E-02  0.9817676E-01
          1   -1    0    0  502    0  0.00000000000E+00  0.00000000000E+00  0.10376802125E+03  0.10376802125E+03  0.00000000000E+00 0.  1.
         13   -1    0    0    0    0 -0.00000000000E+00 -0.00000000000E+00 -0.10000000000E+04  0.10000000000E+04  0.00000000000E+00 0.  1.
    9000005    2    1    2  501    0  0.18364958930E-03  0.35698186855E-03 -0.89624353778E+03  0.11037564552E+04  0.64422498670E+03 0.  0.
         13    1    3    3    0    0  0.15494142309E+03 -0.15174857963E+03 -0.85616975053E+03  0.88321068706E+03  0.00000000000E+00 0.  1.
          3    1    3    3  501    0 -0.15494123944E+03  0.15174893661E+03 -0.40073787248E+02  0.22054576819E+03  0.00000000000E+00 0.  1.
         21    1    1    2  502  501 -0.18364958930E-03 -0.35698186855E-03  0.11559034657E-01  0.11566003866E-01  0.00000000000E+00 0. -1.
<mgrwt>
<rscale>  1 0.64422499E+03</rscale>
<asrwt>0</asrwt>
<pdfrwt beam="1">  1        1 0.37733905E+00 0.64422499E+03</pdfrwt>
<pdfrwt beam="2">0</pdfrwt>
<totfact> 0.16876999E+00</totfact>
</mgrwt>
</event>
<event>
 6    1  0.4392537E-003  0.6418968E+03  0.7818608E-02  0.9822104E-01
          1   -1    0    0  502    0  0.00000000000E+00  0.00000000000E+00  0.10315671892E+03  0.10315671892E+03  0.00000000000E+00 0.  1.
         13   -1    0    0    0    0 -0.00000000000E+00 -0.00000000000E+00 -0.10000000000E+04  0.10000000000E+04  0.00000000000E+00 0.  1.
    9000005    2    1    2  501    0 -0.14706312319E+00  0.75791459676E-03 -0.89695100913E+03  0.11029744184E+04  0.64189674659E+03 0.  0.
         13    1    3    3    0    0 -0.13650720070E+03  0.20648877291E+03 -0.79964394089E+03  0.83707960278E+03  0.00000000000E+00 0.  1.
          1    1    3    3  501    0  0.13636013758E+03 -0.20648801500E+03 -0.97307068238E+02  0.26589481564E+03  0.00000000000E+00 0.  1.
         21    1    1    2  502  501  0.14706312319E+00 -0.75791459678E-03  0.10772804849E+00  0.18230049113E+00  0.00000000000E+00 0.  1.
<mgrwt>
<rscale>  1 0.64189676E+03</rscale>
<asrwt>0</asrwt>
<pdfrwt beam="1">  1        1 0.37511613E+00 0.64189676E+03</pdfrwt>
<pdfrwt beam="2">0</pdfrwt>
<totfact> 0.17269144E+00</totfact>
</mgrwt>
</event>
<event>
 6    1  0.4392537E-003  0.6335805E+03  0.7818608E-02  0.9838087E-01
          3   -1    0    0  502    0  0.00000000000E+00  0.00000000000E+00  0.10038558362E+03  0.10038558362E+03  0.00000000000E+00 0.  1.
         13   -1    0    0    0    0 -0.00000000000E+00 -0.00000000000E+00 -0.10000000000E+04  0.10000000000E+04  0.00000000000E+00 0.  1.
    9000005    2    1    2  501    0  0.79787287837E-03  0.65283076452E-03 -0.89964393769E+03  0.11003560443E+04  0.63358046815E+03 0.  0.
         13    1    3    3    0    0 -0.27583041477E+03  0.12242706068E+03 -0.28247194465E+03  0.41335360458E+03  0.00000000000E+00 0.  1.
          3    1    3    3  501    0  0.27583121264E+03 -0.12242640785E+03 -0.61717199304E+03  0.68700243974E+03  0.00000000000E+00 0.  1.
         21    1    1    2  502  501 -0.79787287838E-03 -0.65283076452E-03  0.29521310294E-01  0.29539305182E-01  0.00000000000E+00 0.  1.
<mgrwt>
<rscale>  1 0.63358047E+03</rscale>
<asrwt>0</asrwt>
<pdfrwt beam="1">  1        3 0.36503926E+00 0.63358047E+03</pdfrwt>
<pdfrwt beam="2">0</pdfrwt>
<totfact> 0.90823120E-02</totfact>
</mgrwt>
</event>
<event>
 6    1  0.4392537E-003  0.6386616E+03  0.7818608E-02  0.9828291E-01
          1   -1    0    0  502    0  0.00000000000E+00  0.00000000000E+00  0.11244239475E+03  0.11244239475E+03  0.00000000000E+00 0.  1.
         13   -1    0    0    0    0 -0.00000000000E+00 -0.00000000000E+00 -0.10000000000E+04  0.10000000000E+04  0.00000000000E+00 0.  1.
    9000005    2    1    2  501    0 -0.18241297705E+00  0.64332673391E-01 -0.89802685217E+03  0.11019713612E+04  0.63866158192E+03 0.  0.
         13    1    3    3    0    0 -0.21288109637E+03  0.19914507328E+03 -0.22384880774E+03  0.36753967150E+03  0.00000000000E+00 0.  1.
          1    1    3    3  501    0  0.21269868339E+03 -0.19908074060E+03 -0.67417804443E+03  0.73443168967E+03  0.00000000000E+00 0.  1.
         21    1    1    2  502  501  0.18241297705E+00 -0.64332673391E-01  0.10469246919E+02  0.10471033580E+02  0.00000000000E+00 0. -1.
<mgrwt>
<rscale>  1 0.63866161E+03</rscale>
<asrwt>0</asrwt>
<pdfrwt beam="1">  1        1 0.40888230E+00 0.63866161E+03</pdfrwt>
<pdfrwt beam="2">0</pdfrwt>
<totfact> 0.12237330E+00</totfact>
</mgrwt>
</event>
<event>
 6    1  0.4392537E-003  0.6461066E+03  0.7818608E-02  0.9814112E-01
          1   -1    0    0  502    0  0.00000000000E+00  0.00000000000E+00  0.10436737429E+03  0.10436737429E+03  0.00000000000E+00 0.  1.
         13   -1    0    0    0    0 -0.00000000000E+00 -0.00000000000E+00 -0.10000000000E+04  0.10000000000E+04  0.00000000000E+00 0.  1.
    9000005    2    1    2  501    0 -0.18314358986E-02 -0.12735530603E-02 -0.89563622072E+03  0.11043631434E+04  0.64610657999E+03 0.  0.
         13    1    3    3    0    0 -0.20238186608E+03  0.89687581742E+02 -0.84999015264E+03  0.87834249677E+03  0.00000000000E+00 0.  1.
          1    1    3    3  501    0  0.20238003464E+03 -0.89688855296E+02 -0.45646068073E+02  0.22602064666E+03  0.00000000000E+00 0.  1.
         21    1    1    2  502  501  0.18314358985E-02  0.12735530603E-02  0.35950028639E-02  0.42308557573E-02  0.00000000000E+00 0. -1.
<mgrwt>
<rscale>  1 0.64610658E+03</rscale>
<asrwt>0</asrwt>
<pdfrwt beam="1">  1        1 0.37951852E+00 0.64610658E+03</pdfrwt>
<pdfrwt beam="2">0</pdfrwt>
<totfact> 0.16501985E+00</totfact>
</mgrwt>
</event>
<event>
 6    1  0.4392537E-003  0.6579352E+03  0.7818608E-02  0.9792002E-01
          1   -1    0    0  502    0  0.00000000000E+00  0.00000000000E+00  0.10824696586E+03  0.10824696586E+03  0.00000000000E+00 0.  1.
         13   -1    0    0    0    0 -0.00000000000E+00 -0.00000000000E+00 -0.10000000000E+04  0.10000000000E+04  0.00000000000E+00 0.  1.
    9000005    2    1    2  501    0  0.29558553990E-04 -0.83792683242E-03 -0.89178031256E+03  0.11082196746E+04  0.65793519528E+03 0.  0.
         13    1    3    3    0    0  0.18846754043E+03 -0.24537061483E+03 -0.25762171785E+03  0.40261110507E+03  0.00000000000E+00 0.  1.
          3    1    3    3  501    0 -0.18846751088E+03  0.24536977690E+03 -0.63415859472E+03  0.70560856948E+03  0.00000000000E+00 0.  1.
         21    1    1    2  502  501 -0.29558553991E-04  0.83792683242E-03  0.27278428928E-01  0.27291311435E-01  0.00000000000E+00 0.  1.
<mgrwt>
<rscale>  1 0.65793520E+03</rscale>
<asrwt>0</asrwt>
<pdfrwt beam="1">  1        1 0.39362616E+00 0.65793520E+03</pdfrwt>
<pdfrwt beam="2">0</pdfrwt>
<totfact> 0.14260410E+00</totfact>
</mgrwt>
</event>
<event>
 6    1  0.4392537E-003  0.6405340E+03  0.7818608E-02  0.9824705E-01
          1   -1    0    0  502    0  0.00000000000E+00  0.00000000000E+00  0.10290510376E+03  0.10290510376E+03  0.00000000000E+00 0.  1.
         13   -1    0    0    0    0 -0.00000000000E+00 -0.00000000000E+00 -0.10000000000E+04  0.10000000000E+04  0.00000000000E+00 0.  1.
    9000005    2    1    2  501    0  0.30973296627E-01 -0.34358232880E-01 -0.89742729537E+03  0.11025695013E+04  0.64053395895E+03 0.  0.
         13    1    3    3    0    0  0.29472023210E+01 -0.27489235475E+03 -0.16586000669E+03  0.32106702496E+03  0.00000000000E+00 0.  1.
          3    1    3    3  501    0 -0.29162290244E+01  0.27485799652E+03 -0.73156728868E+03  0.78150247633E+03  0.00000000000E+00 0.  1.
         21    1    1    2  502  501 -0.30973296627E-01  0.34358232880E-01  0.33239913252E+00  0.33560246806E+00  0.00000000000E+00 0. -1.
<mgrwt>
<rscale>  1 0.64053396E+03</rscale>
<asrwt>0</asrwt>
<pdfrwt beam="1">  1        1 0.37420117E+00 0.64053396E+03</pdfrwt>
<pdfrwt beam="2">0</pdfrwt>
<totfact> 0.17434357E+00</totfact>
</mgrwt>
</event>
<event>
 6    1  0.4392537E-003  0.6295291E+03  0.7818608E-02  0.9845968E-01
          1   -1    0    0  502    0  0.00000000000E+00  0.00000000000E+00  0.99195367833E+02  0.99195367833E+02  0.00000000000E+00 0.  1.
         13   -1    0    0    0    0 -0.00000000000E+00 -0.00000000000E+00 -0.10000000000E+04  0.10000000000E+04  0.00000000000E+00 0.  1.
    9000005    2    1    2  501    0  0.10239315327E-02  0.37222108735E-02 -0.90092325880E+03  0.10990766784E+04  0.62952905153E+03 0.  0.
         13    1    3    3    0    0  0.29317593066E+03  0.58488276718E+02 -0.27847703205E+03  0.40856145463E+03  0.00000000000E+00 0.  1.
          1    1    3    3  501    0 -0.29317490673E+03 -0.58484554507E+02 -0.62244622675E+03  0.69051522376E+03  0.00000000000E+00 0.  1.
         21    1    1    2  502  501 -0.10239315327E-02 -0.37222108735E-02  0.11862663730E+00  0.11868943662E+00  0.00000000000E+00 0. -1.
<mgrwt>
<rscale>  1 0.62952905E+03</rscale>
<asrwt>0</asrwt>
<pdfrwt beam="1">  1        1 0.36071119E+00 0.62952905E+03</pdfrwt>
<pdfrwt beam="2">0</pdfrwt>
<totfact> 0.20019620E+00</totfact>
</mgrwt>
</event>
<event>
 6    1  0.4392537E-003  0.6371967E+03  0.7818608E-02  0.9831105E-01
          1   -1    0    0  502    0  0.00000000000E+00  0.00000000000E+00  0.10152652564E+03  0.10152652564E+03  0.00000000000E+00 0.  1.
         13   -1    0    0    0    0 -0.00000000000E+00 -0.00000000000E+00 -0.10000000000E+04  0.10000000000E+04  0.00000000000E+00 0.  1.
    9000005    2    1    2  501    0  0.26496255509E-01 -0.56346132899E-02 -0.89848535485E+03  0.11014969461E+04  0.63719666412E+03 0.  0.
         13    1    3    3    0    0 -0.47825574589E+02 -0.29601310325E+03 -0.63537992674E+03  0.70258002689E+03  0.00000000000E+00 0.  1.
          1    1    3    3  501    0  0.47852070844E+02  0.29600746863E+03 -0.26310542811E+03  0.39891691926E+03  0.00000000000E+00 0.  1.
         21    1    1    2  502  501 -0.26496255509E-01  0.56346132899E-02  0.11880483385E-01  0.29579491348E-01  0.00000000000E+00 0. -1.
<mgrwt>
<rscale>  1 0.63719666E+03</rscale>
<asrwt>0</asrwt>
<pdfrwt beam="1">  1        1 0.36918814E+00 0.63719666E+03</pdfrwt>
<pdfrwt beam="2">0</pdfrwt>
<totfact> 0.18352841E+00</totfact>
</mgrwt>
</event>
<event>
 6    1  0.4392537E-003  0.6486766E+03  0.7818608E-02  0.9809266E-01
          1   -1    0    0  502    0  0.00000000000E+00  0.00000000000E+00  0.10519539818E+03  0.10519539818E+03  0.00000000000E+00 0.  1.
         13   -1    0    0    0    0 -0.00000000000E+00 -0.00000000000E+00 -0.10000000000E+04  0.10000000000E+04  0.00000000000E+00 0.  1.
    9000005    2    1    2  501    0 -0.37329740792E-04  0.20622549201E-04 -0.89480466857E+03  0.11051953190E+04  0.64867657441E+03 0.  0.
         13    1    3    3    0    0  0.29431220668E+03 -0.24223995246E+02 -0.67591606908E+03  0.73761033709E+03  0.00000000000E+00 0.  1.
          1    1    3    3  501    0 -0.29431224401E+03  0.24224015868E+02 -0.21888859949E+03  0.36758498188E+03  0.00000000000E+00 0.  1.
         21    1    1    2  502  501  0.37329740760E-04 -0.20622549198E-04  0.66750162171E-04  0.79211004479E-04  0.00000000000E+00 0. -1.
<mgrwt>
<rscale>  1 0.64867657E+03</rscale>
<asrwt>0</asrwt>
<pdfrwt beam="1">  1        1 0.38252953E+00 0.64867657E+03</pdfrwt>
<pdfrwt beam="2">0</pdfrwt>
<totfact> 0.15997012E+00</totfact>
</mgrwt>
</event>
<event>
 6    1  0.4392537E-003  0.6613789E+03  0.7818608E-02  0.9785659E-01
          1   -1    0    0  502    0  0.00000000000E+00  0.00000000000E+00  0.10943092441E+03  0.10943092441E+03  0.00000000000E+00 0.  1.
         13   -1    0    0    0    0 -0.00000000000E+00 -0.00000000000E+00 -0.10000000000E+04  0.10000000000E+04  0.00000000000E+00 0.  1.
    9000005    2    1    2  501    0  0.18539741377E-02  0.64767178620E-03 -0.89064448006E+03  0.11093554944E+04  0.66137888007E+03 0.  0.
         13    1    3    3    0    0  0.19985972017E+03 -0.13099679263E+03 -0.82873925994E+03  0.86250381355E+03  0.00000000000E+00 0.  1.
          1    1    3    3  501    0 -0.19985786619E+03  0.13099744030E+03 -0.61905220128E+02  0.24685168082E+03  0.00000000000E+00 0.  1.
         21    1    1    2  502  501 -0.18539741377E-02 -0.64767178617E-03  0.75404472376E-01  0.75430041450E-01  0.00000000000E+00 0.  1.
<mgrwt>
<rscale>  1 0.66137888E+03</rscale>
<asrwt>0</asrwt>
<pdfrwt beam="1">  1        1 0.39793147E+00 0.66137888E+03</pdfrwt>
<pdfrwt beam="2">0</pdfrwt>
<totfact> 0.13636410E+00</totfact>
</mgrwt>
</event>
<event>
 6    1  0.4392537E-003  0.6469301E+03  0.7818608E-02  0.9812557E-01
          1   -1    0    0  502    0  0.00000000000E+00  0.00000000000E+00  0.10462999902E+03  0.10462999902E+03  0.00000000000E+00 0.  1.
         13   -1    0    0    0    0 -0.00000000000E+00 -0.00000000000E+00 -0.10000000000E+04  0.10000000000E+04  0.00000000000E+00 0.  1.
    9000005    2    1    2  501    0  0.19712178641E-04  0.51385316333E-04 -0.89537036909E+03  0.11046296268E+04  0.64693006933E+03 0.  0.
         13    1    3    3    0    0  0.69209859255E+02  0.40792571716E+02  0.87323844373E+02  0.11865703654E+03  0.00000000000E+00 0.  1.
          1    1    3    3  501    0 -0.69209839542E+02 -0.40792520331E+02 -0.98269421346E+03  0.98597259028E+03  0.00000000000E+00 0.  1.
         21    1    1    2  502  501 -0.19712178640E-04 -0.51385316331E-04  0.36810575188E-03  0.37219734723E-03  0.00000000000E+00 0. -1.
<mgrwt>
<rscale>  1 0.64693007E+03</rscale>
<asrwt>0</asrwt>
<pdfrwt beam="1">  1        1 0.38047353E+00 0.64693007E+03</pdfrwt>
<pdfrwt beam="2">0</pdfrwt>
<totfact> 0.16340177E+00</totfact>
</mgrwt>
</event>
<event>
 6    1  0.4392537E-003  0.6504300E+03  0.7818608E-02  0.9805973E-01
          1   -1    0    0  502    0  0.00000000000E+00  0.00000000000E+00  0.10577011069E+03  0.10577011069E+03  0.00000000000E+00 0.  1.
         13   -1    0    0    0    0 -0.00000000000E+00 -0.00000000000E+00 -0.10000000000E+04  0.10000000000E+04  0.00000000000E+00 0.  1.
    9000005    2    1    2  501    0  0.53360905243E-03 -0.41263233186E-06 -0.89423517594E+03  0.11057647972E+04  0.65043003993E+03 0.  0.
         13    1    3    3    0    0 -0.58424042903E+02  0.11611472372E+03  0.59682678902E+02  0.14303153504E+03  0.00000000000E+00 0.  1.
          3    1    3    3  501    0  0.58424576513E+02 -0.11611472413E+03 -0.95391785484E+03  0.96273326217E+03  0.00000000000E+00 0.  1.
         21    1    1    2  502  501 -0.53360905243E-03  0.41263232820E-06  0.52866240133E-02  0.53134858849E-02  0.00000000000E+00 0. -1.
<mgrwt>
<rscale>  1 0.65043004E+03</rscale>
<asrwt>0</asrwt>
<pdfrwt beam="1">  1        1 0.38461940E+00 0.65043004E+03</pdfrwt>
<pdfrwt beam="2">0</pdfrwt>
<totfact> 0.15655289E+00</totfact>
</mgrwt>
</event>
<event>
 6    1  0.4392537E-003  0.6480896E+03  0.7818608E-02  0.9810371E-01
          1   -1    0    0  502    0  0.00000000000E+00  0.00000000000E+00  0.12922066186E+03  0.12922066186E+03  0.00000000000E+00 0.  1.
         13   -1    0    0    0    0 -0.00000000000E+00 -0.00000000000E+00 -0.10000000000E+04  0.10000000000E+04  0.00000000000E+00 0.  1.
    9000005    2    1    2  501    0  0.44446327824E+00  0.38234011220E+01 -0.89482583404E+03  0.11048680458E+04  0.64807816614E+03 0.  0.
         13    1    3    3    0    0  0.21364761004E+03  0.23507790328E+03 -0.32792463107E+03  0.45655392403E+03  0.00000000000E+00 0.  1.
          3    1    3    3  501    0 -0.21320314676E+03 -0.23125450216E+03 -0.56690120297E+03  0.64831412177E+03  0.00000000000E+00 0.  1.
         21    1    1    2  502  501 -0.44446327824E+00 -0.38234011220E+01  0.24046495903E+02  0.24352616060E+02  0.00000000000E+00 0.  1.
<mgrwt>
<rscale>  1 0.64808960E+03</rscale>
<asrwt>0</asrwt>
<pdfrwt beam="1">  1        1 0.46989431E+00 0.64808960E+03</pdfrwt>
<pdfrwt beam="2">0</pdfrwt>
<totfact> 0.64258310E-01</totfact>
</mgrwt>
</event>
<event>
 6    1  0.4392537E-003  0.6518570E+03  0.7818608E-02  0.9803301E-01
          1   -1    0    0  502    0  0.00000000000E+00  0.00000000000E+00  0.10622943716E+03  0.10622943716E+03  0.00000000000E+00 0.  1.
         13   -1    0    0    0    0 -0.00000000000E+00 -0.00000000000E+00 -0.10000000000E+04  0.10000000000E+04  0.00000000000E+00 0.  1.
    9000005    2    1    2  501    0  0.23795719102E-05  0.32971398980E-05 -0.89377061705E+03  0.11062293828E+04  0.65185698696E+03 0.  0.
         13    1    3    3    0    0  0.10323776642E+03  0.17536208527E+03 -0.87894689804E+03  0.90219595817E+03  0.00000000000E+00 0.  1.
          3    1    3    3  501    0 -0.10323776404E+03 -0.17536208197E+03 -0.14823719013E+02  0.20403342462E+03  0.00000000000E+00 0.  1.
         21    1    1    2  502  501 -0.23795718993E-05 -0.32971399028E-05  0.54218537310E-04  0.54370794384E-04  0.00000000000E+00 0.  1.
<mgrwt>
<rscale>  1 0.65185699E+03</rscale>
<asrwt>0</asrwt>
<pdfrwt beam="1">  1        1 0.38628968E+00 0.65185699E+03</pdfrwt>
<pdfrwt beam="2">0</pdfrwt>
<totfact> 0.15387102E+00</totfact>
</mgrwt>
</event>
<event>
 6    1  0.4392537E-003  0.6451806E+03  0.7818608E-02  0.9815865E-01
          1   -1    0    0  502    0  0.00000000000E+00  0.00000000000E+00  0.10910113047E+03  0.10910113047E+03  0.00000000000E+00 0.  1.
         13   -1    0    0    0    0 -0.00000000000E+00 -0.00000000000E+00 -0.10000000000E+04  0.10000000000E+04  0.00000000000E+00 0.  1.
    9000005    2    1    2  501    0  0.91769071620E-01 -0.55863756631E-02 -0.89593504073E+03  0.11040641201E+04  0.64518057606E+03 0.  0.
         13    1    3    3    0    0  0.13042486782E+03  0.10927053442E+03 -0.91702744116E+03  0.93267894995E+03  0.00000000000E+00 0.  1.
          1    1    3    3  501    0 -0.13033309874E+03 -0.10927612080E+03  0.21092400435E+02  0.17138517019E+03  0.00000000000E+00 0.  1.
         21    1    1    2  502  501 -0.91769071620E-01  0.55863756631E-02  0.50361711953E+01  0.50370103314E+01  0.00000000000E+00 0. -1.
<mgrwt>
<rscale>  1 0.64518058E+03</rscale>
<asrwt>0</asrwt>
<pdfrwt beam="1">  1        1 0.39673222E+00 0.64518058E+03</pdfrwt>
<pdfrwt beam="2">0</pdfrwt>
<totfact> 0.13847280E+00</totfact>
</mgrwt>
</event>
<event>
 6    1  0.4392537E-003  0.6436731E+03  0.7818608E-02  0.9818724E-01
          1   -1    0    0  502    0  0.00000000000E+00  0.00000000000E+00  0.10358067052E+03  0.10358067052E+03  0.00000000000E+00 0.  1.
         13   -1    0    0    0    0 -0.00000000000E+00 -0.00000000000E+00 -0.10000000000E+04  0.10000000000E+04  0.00000000000E+00 0.  1.
    9000005    2    1    2  501    0 -0.42859711707E-02  0.40086914698E-02 -0.89641244970E+03  0.11035716278E+04  0.64367309846E+03 0.  0.
         13    1    3    3    0    0 -0.11757694604E+03  0.26633989232E+03 -0.68340789675E+03  0.74283755278E+03  0.00000000000E+00 0.  1.
          1    1    3    3  501    0  0.11757266007E+03 -0.26633588363E+03 -0.21300455295E+03  0.36073407502E+03  0.00000000000E+00 0.  1.
         21    1    1    2  502  501  0.42859711707E-02 -0.40086914698E-02 -0.68797863730E-02  0.90427106950E-02  0.00000000000E+00 0.  1.
<mgrwt>
<rscale>  1 0.64367310E+03</rscale>
<asrwt>0</asrwt>
<pdfrwt beam="1">  1        1 0.37665778E+00 0.64367310E+03</pdfrwt>
<pdfrwt beam="2">0</pdfrwt>
<totfact> 0.16995767E+00</totfact>
</mgrwt>
</event>
<event>
 6    1  0.4392537E-003  0.6206982E+03  0.7818608E-02  0.9863371E-01
          1   -1    0    0  502    0  0.00000000000E+00  0.00000000000E+00  0.96724226886E+02  0.96724226886E+02  0.00000000000E+00 0.  1.
         13   -1    0    0    0    0 -0.00000000000E+00 -0.00000000000E+00 -0.10000000000E+04  0.10000000000E+04  0.00000000000E+00 0.  1.
    9000005    2    1    2  501    0 -0.52017207325E-02 -0.10060902144E-01 -0.90368336276E+03  0.10963164799E+04  0.62069815842E+03 0.  0.
         13    1    3    3    0    0 -0.22745152126E+02  0.29137392464E+03 -0.63621836939E+03  0.70013564361E+03  0.00000000000E+00 0.  1.
          1    1    3    3  501    0  0.22739950406E+02 -0.29138398554E+03 -0.26746499337E+03  0.39618083630E+03  0.00000000000E+00 0.  1.
         21    1    1    2  502  501  0.52017207325E-02  0.10060902144E-01  0.40758964417E+00  0.40774697753E+00  0.00000000000E+00 0. -1.
<mgrwt>
<rscale>  1 0.62069816E+03</rscale>
<asrwt>0</asrwt>
<pdfrwt beam="1">  1        1 0.35172520E+00 0.62069816E+03</pdfrwt>
<pdfrwt beam="2">0</pdfrwt>
<totfact> 0.21947688E+00</totfact>
</mgrwt>
</event>
<event>
 6    1  0.4392537E-003  0.6407560E+03  0.7818608E-02  0.9824281E-01
          1   -1    0    0  502    0  0.00000000000E+00  0.00000000000E+00  0.10264294609E+03  0.10264294609E+03  0.00000000000E+00 0.  1.
         13   -1    0    0    0    0 -0.00000000000E+00 -0.00000000000E+00 -0.10000000000E+04  0.10000000000E+04  0.00000000000E+00 0.  1.
    9000005    2    1    2  501    0  0.96299712027E-05 -0.42821707893E-04 -0.89735792819E+03  0.11026420707E+04  0.64075602598E+03 0.  0.
         13    1    3    3    0    0  0.24797015662E+03  0.14539288107E+03 -0.69212706649E+03  0.74944523790E+03  0.00000000000E+00 0.  1.
          3    1    3    3  501    0 -0.24797014699E+03 -0.14539292389E+03 -0.20523086170E+03  0.35319683281E+03  0.00000000000E+00 0.  1.
         21    1    1    2  502  501 -0.96299712022E-05  0.42821707889E-04  0.87427853288E-03  0.87537956800E-03  0.00000000000E+00 0. -1.
<mgrwt>
<rscale>  1 0.64075603E+03</rscale>
<asrwt>0</asrwt>
<pdfrwt beam="1">  1        1 0.37324786E+00 0.64075603E+03</pdfrwt>
<pdfrwt beam="2">0</pdfrwt>
<totfact> 0.17602812E+00</totfact>
</mgrwt>
</event>
<event>
 6    1  0.4392537E-003  0.6387336E+03  0.7818608E-02  0.9828153E-01
          1   -1    0    0  502    0  0.00000000000E+00  0.00000000000E+00  0.10199548710E+03  0.10199548710E+03  0.00000000000E+00 0.  1.
         13   -1    0    0    0    0 -0.00000000000E+00 -0.00000000000E+00 -0.10000000000E+04  0.10000000000E+04  0.00000000000E+00 0.  1.
    9000005    2    1    2  501    0  0.23522546365E-03  0.16951884533E-03 -0.89800478035E+03  0.11019950926E+04  0.63873358976E+03 0.  0.
         13    1    3    3    0    0 -0.68042330197E+02 -0.17196956101E+03  0.20680215726E+00  0.18494142689E+03  0.00000000000E+00 0.  1.
          1    1    3    3  501    0  0.68042565423E+02  0.17196973053E+03 -0.89821158250E+03  0.91705366575E+03  0.00000000000E+00 0.  1.
         21    1    1    2  502  501 -0.23522546366E-03 -0.16951884534E-03  0.26744501315E-03  0.39445467767E-03  0.00000000000E+00 0.  1.
<mgrwt>
<rscale>  1 0.63873359E+03</rscale>
<asrwt>0</asrwt>
<pdfrwt beam="1">  1        1 0.37089346E+00 0.63873359E+03</pdfrwt>
<pdfrwt beam="2">0</pdfrwt>
<totfact> 0.18034001E+00</totfact>
</mgrwt>
</event>
<event>
 6    1  0.4392537E-003  0.6378356E+03  0.7818608E-02  0.9829876E-01
          1   -1    0    0  502    0  0.00000000000E+00  0.00000000000E+00  0.10178522993E+03  0.10178522993E+03  0.00000000000E+00 0.  1.
         13   -1    0    0    0    0 -0.00000000000E+00 -0.00000000000E+00 -0.10000000000E+04  0.10000000000E+04  0.00000000000E+00 0.  1.
    9000005    2    1    2  501    0 -0.10496818917E-02  0.48784905407E-02 -0.89829135846E+03  0.11017084791E+04  0.63783556527E+03 0.  0.
         13    1    3    3    0    0 -0.54317110226E+02 -0.29189215775E+03 -0.65024661739E+03  0.71482308556E+03  0.00000000000E+00 0.  1.
          1    1    3    3  501    0  0.54316060544E+02  0.29189703625E+03 -0.24804474107E+03  0.38688539359E+03  0.00000000000E+00 0.  1.
         21    1    1    2  502  501  0.10496818917E-02 -0.48784905407E-02  0.76588385669E-01  0.76750780592E-01  0.00000000000E+00 0.  1.
<mgrwt>
<rscale>  1 0.63783557E+03</rscale>
<asrwt>0</asrwt>
<pdfrwt beam="1">  1        1 0.37012889E+00 0.63783557E+03</pdfrwt>
<pdfrwt beam="2">0</pdfrwt>
<totfact> 0.18176983E+00</totfact>
</mgrwt>
</event>
<event>
 6    1  0.4392537E-003  0.6852730E+03  0.7818608E-02  0.9742754E-01
          3   -1    0    0  502    0  0.00000000000E+00  0.00000000000E+00  0.11740082585E+03  0.11740082585E+03  0.00000000000E+00 0.  1.
         13   -1    0    0    0    0 -0.00000000000E+00 -0.00000000000E+00 -0.10000000000E+04  0.10000000000E+04  0.00000000000E+00 0.  1.
    9000005    2    1    2  501    0 -0.49514622198E-03  0.72591782381E-03 -0.88260002415E+03  0.11173996033E+04  0.68527299001E+03 0.  0.
         13    1    3    3    0    0 -0.10564009488E+03 -0.19490434073E+03 -0.86729342700E+03  0.89517898780E+03  0.00000000000E+00 0.  1.
          3    1    3    3  501    0  0.10563959974E+03  0.19490506665E+03 -0.15306597150E+02  0.22222061550E+03  0.00000000000E+00 0.  1.
         21    1    1    2  502  501  0.49514622198E-03 -0.72591782380E-03  0.84999209482E-03  0.12225436717E-02  0.00000000000E+00 0.  1.
<mgrwt>
<rscale>  1 0.68527299E+03</rscale>
<asrwt>0</asrwt>
<pdfrwt beam="1">  1        3 0.42691299E+00 0.68527299E+03</pdfrwt>
<pdfrwt beam="2">0</pdfrwt>
<totfact> 0.42651615E-02</totfact>
</mgrwt>
</event>
<event>
 6    1  0.4392537E-003  0.6440866E+03  0.7818608E-02  0.9817939E-01
          1   -1    0    0  502    0  0.00000000000E+00  0.00000000000E+00  0.10375915497E+03  0.10375915497E+03  0.00000000000E+00 0.  1.
         13   -1    0    0    0    0 -0.00000000000E+00 -0.00000000000E+00 -0.10000000000E+04  0.10000000000E+04  0.00000000000E+00 0.  1.
    9000005    2    1    2  501    0  0.12278476206E-01  0.10610202938E-01 -0.89628657409E+03  0.11037106319E+04  0.64408659038E+03 0.  0.
         13    1    3    3    0    0 -0.32201140265E+03  0.40002676801E+01 -0.44949173480E+03  0.55294680145E+03  0.00000000000E+00 0.  1.
          1    1    3    3  501    0  0.32202368112E+03 -0.39896574772E+01 -0.44679483929E+03  0.55076383050E+03  0.00000000000E+00 0.  1.
         21    1    1    2  502  501 -0.12278476206E-01 -0.10610202938E-01  0.45729059898E-01  0.48523028589E-01  0.00000000000E+00 0. -1.
<mgrwt>
<rscale>  1 0.64408659E+03</rscale>
<asrwt>0</asrwt>
<pdfrwt beam="1">  1        1 0.37730681E+00 0.64408659E+03</pdfrwt>
<pdfrwt beam="2">0</pdfrwt>
<totfact> 0.16882949E+00</totfact>
</mgrwt>
</event>
<event>
 6    1  0.4392537E-003  0.6414121E+03  0.7818608E-02  0.9823029E-01
          1   -1    0    0  502    0  0.00000000000E+00  0.00000000000E+00  0.10286818496E+03  0.10286818496E+03  0.00000000000E+00 0.  1.
         13   -1    0    0    0    0 -0.00000000000E+00 -0.00000000000E+00 -0.10000000000E+04  0.10000000000E+04  0.00000000000E+00 0.  1.
    9000005    2    1    2  501    0  0.56328667350E-03 -0.64735262447E-03 -0.89714762995E+03  0.11028523468E+04  0.64141205859E+03 0.  0.
         13    1    3    3    0    0  0.23676399624E+03 -0.21571485675E+03 -0.47643425792E+03  0.57409031647E+03  0.00000000000E+00 0.  1.
          3    1    3    3  501    0 -0.23676343295E+03  0.21571420939E+03 -0.42071337202E+03  0.52876203033E+03  0.00000000000E+00 0.  1.
         21    1    1    2  502  501 -0.56328667350E-03  0.64735262449E-03  0.15814907309E-01  0.15838170680E-01  0.00000000000E+00 0.  1.
<mgrwt>
<rscale>  1 0.64141206E+03</rscale>
<asrwt>0</asrwt>
<pdfrwt beam="1">  1        1 0.37406692E+00 0.64141206E+03</pdfrwt>
<pdfrwt beam="2">0</pdfrwt>
<totfact> 0.17455283E+00</totfact>
</mgrwt>
</event>
<event>
 6    1  0.4392537E-003  0.6440148E+03  0.7818608E-02  0.9818075E-01
          1   -1    0    0  502    0  0.00000000000E+00  0.00000000000E+00  0.10461297604E+03  0.10461297604E+03  0.00000000000E+00 0.  1.
         13   -1    0    0    0    0 -0.00000000000E+00 -0.00000000000E+00 -0.10000000000E+04  0.10000000000E+04  0.00000000000E+00 0.  1.
    9000005    2    1    2  501    0  0.49225161428E-01 -0.42710556098E-02 -0.89631050807E+03  0.11036881711E+04  0.64401478989E+03 0.  0.
         13    1    3    3    0    0  0.12033118755E+03 -0.24812470154E+03 -0.16319956028E+03  0.32043651272E+03  0.00000000000E+00 0.  1.
          1    1    3    3  501    0 -0.12028196239E+03  0.24812043048E+03 -0.73311094780E+03  0.78325165833E+03  0.00000000000E+00 0.  1.
         21    1    1    2  502  501 -0.49225161428E-01  0.42710556098E-02  0.92348411324E+00  0.92480498800E+00  0.00000000000E+00 0.  1.
<mgrwt>
<rscale>  1 0.64401479E+03</rscale>
<asrwt>0</asrwt>
<pdfrwt beam="1">  1        1 0.38041162E+00 0.64401479E+03</pdfrwt>
<pdfrwt beam="2">0</pdfrwt>
<totfact> 0.16359240E+00</totfact>
</mgrwt>
</event>
<event>
 6    1  0.4392537E-003  0.6698320E+03  0.7818608E-02  0.9770261E-01
          1   -1    0    0  502    0  0.00000000000E+00  0.00000000000E+00  0.12497117631E+03  0.12497117631E+03  0.00000000000E+00 0.  1.
         13   -1    0    0    0    0 -0.00000000000E+00 -0.00000000000E+00 -0.10000000000E+04  0.10000000000E+04  0.00000000000E+00 0.  1.
    9000005    2    1    2  501    0 -0.20709476866E+01 -0.46807327876E+01 -0.88725969161E+03  0.11117125107E+04  0.66981247225E+03 0.  0.
         13    1    3    3    0    0  0.12900294422E+03  0.25733032475E+03 -0.16382783113E+03  0.33121022615E+03  0.00000000000E+00 0.  1.
          3    1    3    3  501    0 -0.13107389191E+03 -0.26201105754E+03 -0.72343186049E+03  0.78050228455E+03  0.00000000000E+00 0.  1.
         21    1    1    2  502  501  0.20709476866E+01  0.46807327876E+01  0.12230867924E+02  0.13258665616E+02  0.00000000000E+00 0.  1.
<mgrwt>
<rscale>  1 0.66983203E+03</rscale>
<asrwt>0</asrwt>
<pdfrwt beam="1">  1        1 0.45444160E+00 0.66983203E+03</pdfrwt>
<pdfrwt beam="2">0</pdfrwt>
<totfact> 0.75475496E-01</totfact>
</mgrwt>
</event>
<event>
 6    1  0.4392537E-003  0.6458688E+03  0.7818608E-02  0.9814562E-01
          1   -1    0    0  502    0  0.00000000000E+00  0.00000000000E+00  0.10428669353E+03  0.10428669353E+03  0.00000000000E+00 0.  1.
         13   -1    0    0    0    0 -0.00000000000E+00 -0.00000000000E+00 -0.10000000000E+04  0.10000000000E+04  0.00000000000E+00 0.  1.
    9000005    2    1    2  501    0 -0.76183322051E-05 -0.10589967185E-03 -0.89571332510E+03  0.11042865857E+04  0.64586879679E+03 0.  0.
         13    1    3    3    0    0  0.12950525621E+03 -0.11811383887E+03 -0.91159245552E+03  0.92829052310E+03  0.00000000000E+00 0.  1.
          3    1    3    3  501    0 -0.12950526383E+03  0.11811373298E+03  0.15879130424E+02  0.17599606263E+03  0.00000000000E+00 0.  1.
         21    1    1    2  502  501  0.76183322144E-05  0.10589967185E-03  0.18623610384E-04  0.10779433356E-03  0.00000000000E+00 0. -1.
<mgrwt>
<rscale>  1 0.64586880E+03</rscale>
<asrwt>0</asrwt>
<pdfrwt beam="1">  1        1 0.37922514E+00 0.64586880E+03</pdfrwt>
<pdfrwt beam="2">0</pdfrwt>
<totfact> 0.16551953E+00</totfact>
</mgrwt>
</event>
<event>
 6    1  0.4392537E-003  0.6474654E+03  0.7818608E-02  0.9811547E-01
          1   -1    0    0  502    0  0.00000000000E+00  0.00000000000E+00  0.10480286654E+03  0.10480286654E+03  0.00000000000E+00 0.  1.
         13   -1    0    0    0    0 -0.00000000000E+00 -0.00000000000E+00 -0.10000000000E+04  0.10000000000E+04  0.00000000000E+00 0.  1.
    9000005    2    1    2  501    0  0.33213547113E-06 -0.10725159854E-05 -0.89519713808E+03  0.11048028618E+04  0.64746540246E+03 0.  0.
         13    1    3    3    0    0 -0.59429350119E+02  0.83257508460E+02  0.76501626480E+02  0.12773472208E+03  0.00000000000E+00 0.  1.
          1    1    3    3  501    0  0.59429350451E+02 -0.83257509533E+02 -0.97169876456E+03  0.97706813971E+03  0.00000000000E+00 0.  1.
         21    1    1    2  502  501 -0.33213547174E-06  0.10725159870E-05  0.46225098370E-05  0.47569109417E-05  0.00000000000E+00 0. -1.
<mgrwt>
<rscale>  1 0.64746540E+03</rscale>
<asrwt>0</asrwt>
<pdfrwt beam="1">  1        1 0.38110214E+00 0.64746540E+03</pdfrwt>
<pdfrwt beam="2">0</pdfrwt>
<totfact> 0.16234516E+00</totfact>
</mgrwt>
</event>
<event>
 6    1  0.4392537E-003  0.6555905E+03  0.7818608E-02  0.9796345E-01
          1   -1    0    0  502    0  0.00000000000E+00  0.00000000000E+00  0.10744977867E+03  0.10744977867E+03  0.00000000000E+00 0.  1.
         13   -1    0    0    0    0 -0.00000000000E+00 -0.00000000000E+00 -0.10000000000E+04  0.10000000000E+04  0.00000000000E+00 0.  1.
    9000005    2    1    2  501    0 -0.14941838401E-04 -0.21613233571E-04 -0.89255028600E+03  0.11074497089E+04  0.65559045494E+03 0.  0.
         13    1    3    3    0    0  0.28827342750E+03  0.99693944702E+02 -0.24350119598E+03  0.39029896753E+03  0.00000000000E+00 0.  1.
          3    1    3    3  501    0 -0.28827344244E+03 -0.99693966315E+02 -0.64904909002E+03  0.71715074133E+03  0.00000000000E+00 0.  1.
         21    1    1    2  502  501  0.14941838402E-04  0.21613233565E-04  0.64674621442E-04  0.69808287893E-04  0.00000000000E+00 0. -1.
<mgrwt>
<rscale>  1 0.65559045E+03</rscale>
<asrwt>0</asrwt>
<pdfrwt beam="1">  1        1 0.39072729E+00 0.65559045E+03</pdfrwt>
<pdfrwt beam="2">0</pdfrwt>
<totfact> 0.14695761E+00</totfact>
</mgrwt>
</event>
<event>
 6    1  0.4392537E-003  0.6477049E+03  0.7818608E-02  0.9811095E-01
          1   -1    0    0  502    0  0.00000000000E+00  0.00000000000E+00  0.10488169218E+03  0.10488169218E+03  0.00000000000E+00 0.  1.
         13   -1    0    0    0    0 -0.00000000000E+00 -0.00000000000E+00 -0.10000000000E+04  0.10000000000E+04  0.00000000000E+00 0.  1.
    9000005    2    1    2  501    0 -0.98092104963E-05  0.12199283773E-03 -0.89511958747E+03  0.11048804067E+04  0.64770489980E+03 0.  0.
         13    1    3    3    0    0  0.20668971870E+03  0.19469704661E+02 -0.87155847353E+03  0.89594301269E+03  0.00000000000E+00 0.  1.
          1    1    3    3  501    0 -0.20668972851E+03 -0.19469582668E+02 -0.23561113940E+02  0.20893739400E+03  0.00000000000E+00 0.  1.
         21    1    1    2  502  501  0.98092105044E-05 -0.12199283773E-03  0.12796536781E-02  0.12854929051E-02  0.00000000000E+00 0.  1.
<mgrwt>
<rscale>  1 0.64770490E+03</rscale>
<asrwt>0</asrwt>
<pdfrwt beam="1">  1        1 0.38138878E+00 0.64770490E+03</pdfrwt>
<pdfrwt beam="2">0</pdfrwt>
<totfact> 0.16186566E+00</totfact>
</mgrwt>
</event>
<event>
 6    1  0.4392537E-003  0.6451888E+03  0.7818608E-02  0.9815849E-01
          1   -1    0    0  502    0  0.00000000000E+00  0.00000000000E+00  0.10406717304E+03  0.10406717304E+03  0.00000000000E+00 0.  1.
         13   -1    0    0    0    0 -0.00000000000E+00 -0.00000000000E+00 -0.10000000000E+04  0.10000000000E+04  0.00000000000E+00 0.  1.
    9000005    2    1    2  501    0 -0.54677284851E-05  0.99551587596E-06 -0.89593284793E+03  0.11040671513E+04  0.64518881474E+03 0.  0.
         13    1    3    3    0    0 -0.85944148239E+02  0.25301097660E+03 -0.75725079859E+03  0.80301290330E+03  0.00000000000E+00 0.  1.
          3    1    3    3  501    0  0.85944142771E+02 -0.25301097561E+03 -0.13868204934E+03  0.30105424804E+03  0.00000000000E+00 0.  1.
         21    1    1    2  502  501  0.54677284831E-05 -0.99551587574E-06  0.20974685298E-04  0.21698491421E-04  0.00000000000E+00 0. -1.
<mgrwt>
<rscale>  1 0.64518881E+03</rscale>
<asrwt>0</asrwt>
<pdfrwt beam="1">  1        1 0.37842688E+00 0.64518881E+03</pdfrwt>
<pdfrwt beam="2">0</pdfrwt>
<totfact> 0.16688741E+00</totfact>
</mgrwt>
</event>
<event>
 6    1  0.4392537E-003  0.6404063E+03  0.7818608E-02  0.9824949E-01
          1   -1    0    0  502    0  0.00000000000E+00  0.00000000000E+00  0.10712057924E+03  0.10712057924E+03  0.00000000000E+00 0.  1.
         13   -1    0    0    0    0 -0.00000000000E+00 -0.00000000000E+00 -0.10000000000E+04  0.10000000000E+04  0.00000000000E+00 0.  1.
    9000005    2    1    2  501    0 -0.11773162435E+00 -0.43057530565E-01 -0.89746898956E+03  0.11025292988E+04  0.64040631765E+03 0.  0.
         13    1    3    3    0    0  0.40933949924E+01 -0.13038093630E+03  0.54716013555E+02  0.14145595276E+03  0.00000000000E+00 0.  1.
          3    1    3    3  501    0 -0.42111266167E+01  0.13033787877E+03 -0.95218500312E+03  0.96107334600E+03  0.00000000000E+00 0.  1.
         21    1    1    2  502  501  0.11773162435E+00  0.43057530565E-01  0.45895687981E+01  0.45912804792E+01  0.00000000000E+00 0.  1.
<mgrwt>
<rscale>  1 0.64040633E+03</rscale>
<asrwt>0</asrwt>
<pdfrwt beam="1">  1        1 0.38953020E+00 0.64040633E+03</pdfrwt>
<pdfrwt beam="2">0</pdfrwt>
<totfact> 0.14918811E+00</totfact>
</mgrwt>
</event>
<event>
 6    1  0.4392537E-003  0.6468602E+03  0.7818608E-02  0.9812689E-01
          1   -1    0    0  502    0  0.00000000000E+00  0.00000000000E+00  0.10460704954E+03  0.10460704954E+03  0.00000000000E+00 0.  1.
         13   -1    0    0    0    0 -0.00000000000E+00 -0.00000000000E+00 -0.10000000000E+04  0.10000000000E+04  0.00000000000E+00 0.  1.
    9000005    2    1    2  501    0  0.11534403839E-04 -0.12880814769E-04 -0.89539294464E+03  0.11046070313E+04  0.64686023861E+03 0.  0.
         13    1    3    3    0    0  0.72744671978E+02 -0.29031476366E+02 -0.98356058759E+03  0.98667423367E+03  0.00000000000E+00 0.  1.
          3    1    3    3  501    0 -0.72744660444E+02  0.29031463485E+02  0.88167642949E+02  0.11793279764E+03  0.00000000000E+00 0.  1.
         21    1    1    2  502  501 -0.11534403847E-04  0.12880814768E-04 -0.58128045357E-05  0.18241341995E-04  0.00000000000E+00 0. -1.
<mgrwt>
<rscale>  1 0.64686024E+03</rscale>
<asrwt>0</asrwt>
<pdfrwt beam="1">  1        1 0.38039007E+00 0.64686024E+03</pdfrwt>
<pdfrwt beam="2">0</pdfrwt>
<totfact> 0.16354250E+00</totfact>
</mgrwt>
</event>
<event>
 6    1  0.4392537E-003  0.6504727E+03  0.7818608E-02  0.9805893E-01
          1   -1    0    0  502    0  0.00000000000E+00  0.00000000000E+00  0.10577926615E+03  0.10577926615E+03  0.00000000000E+00 0.  1.
         13   -1    0    0    0    0 -0.00000000000E+00 -0.00000000000E+00 -0.10000000000E+04  0.10000000000E+04  0.00000000000E+00 0.  1.
    9000005    2    1    2  501    0  0.10294476397E-04 -0.15767724442E-04 -0.89422130179E+03  0.11057786979E+04  0.65047274512E+03 0.  0.
         13    1    3    3    0    0 -0.28265099118E+03 -0.47461483641E+02 -0.18576665828E+03  0.34154564347E+03  0.00000000000E+00 0.  1.
          1    1    3    3  501    0  0.28265100148E+03  0.47461467874E+02 -0.70845464351E+03  0.76423305443E+03  0.00000000000E+00 0.  1.
         21    1    1    2  502  501 -0.10294476422E-04  0.15767724443E-04  0.56794516696E-03  0.56825725693E-03  0.00000000000E+00 0.  1.
<mgrwt>
<rscale>  1 0.65047275E+03</rscale>
<asrwt>0</asrwt>
<pdfrwt beam="1">  1        1 0.38465269E+00 0.65047275E+03</pdfrwt>
<pdfrwt beam="2">0</pdfrwt>
<totfact> 0.15649859E+00</totfact>
</mgrwt>
</event>
<event>
 6    1  0.4392537E-003  0.6466323E+03  0.7818608E-02  0.9813119E-01
          1   -1    0    0  502    0  0.00000000000E+00  0.00000000000E+00  0.10453334918E+03  0.10453334918E+03  0.00000000000E+00 0.  1.
         13   -1    0    0    0    0 -0.00000000000E+00 -0.00000000000E+00 -0.10000000000E+04  0.10000000000E+04  0.00000000000E+00 0.  1.
    9000005    2    1    2  501    0  0.40804201973E-05 -0.33398580257E-05 -0.89546665173E+03  0.11045333438E+04  0.64663234010E+03 0.  0.
         13    1    3    3    0    0 -0.96648084191E+02 -0.81786793237E+02 -0.95589443151E+03  0.96424275777E+03  0.00000000000E+00 0.  1.
          1    1    3    3  501    0  0.96648088272E+02  0.81786789897E+02  0.60427779775E+02  0.14029058606E+03  0.00000000000E+00 0.  1.
         21    1    1    2  502  501 -0.40804201973E-05  0.33398580262E-05  0.91547074550E-06  0.53518751207E-05  0.00000000000E+00 0.  1.
<mgrwt>
<rscale>  1 0.64663234E+03</rscale>
<asrwt>0</asrwt>
<pdfrwt beam="1">  1        1 0.38012207E+00 0.64663234E+03</pdfrwt>
<pdfrwt beam="2">0</pdfrwt>
<totfact> 0.16399532E+00</totfact>
</mgrwt>
</event>
<event>
 6    1  0.4392537E-003  0.6425054E+03  0.7818608E-02  0.9820945E-01
          1   -1    0    0  502    0  0.00000000000E+00  0.00000000000E+00  0.10323575445E+03  0.10323575445E+03  0.00000000000E+00 0.  1.
         13   -1    0    0    0    0 -0.00000000000E+00 -0.00000000000E+00 -0.10000000000E+04  0.10000000000E+04  0.00000000000E+00 0.  1.
    9000005    2    1    2  501    0  0.93851318055E-02 -0.73236627743E-01 -0.89674163958E+03  0.11031585358E+04  0.64250539420E+03 0.  0.
         13    1    3    3    0    0 -0.11026332951E+02 -0.28162157941E+03 -0.18358229056E+03  0.33635509721E+03  0.00000000000E+00 0.  1.
          1    1    3    3  501    0  0.11035718083E+02  0.28154834279E+03 -0.71315934902E+03  0.76680343863E+03  0.00000000000E+00 0.  1.
         21    1    1    2  502  501 -0.93851318056E-02  0.73236627743E-01 -0.22605971288E-01  0.77218613560E-01  0.00000000000E+00 0.  1.
<mgrwt>
<rscale>  1 0.64250540E+03</rscale>
<asrwt>0</asrwt>
<pdfrwt beam="1">  1        1 0.37540354E+00 0.64250540E+03</pdfrwt>
<pdfrwt beam="2">0</pdfrwt>
<totfact> 0.17216988E+00</totfact>
</mgrwt>
</event>
<event>
 6    1  0.4392537E-003  0.6427391E+03  0.7818608E-02  0.9820500E-01
          1   -1    0    0  502    0  0.00000000000E+00  0.00000000000E+00  0.10940619621E+03  0.10940619621E+03  0.00000000000E+00 0.  1.
         13   -1    0    0    0    0 -0.00000000000E+00 -0.00000000000E+00 -0.10000000000E+04  0.10000000000E+04  0.00000000000E+00 0.  1.
    9000005    2    1    2  501    0 -0.94611677602E+00 -0.25841322815E+00 -0.89667829372E+03  0.11032431668E+04  0.64273832983E+03 0.  0.
         13    1    3    3    0    0 -0.10682376584E+03  0.26973903848E+03 -0.68586805248E+03  0.74470494240E+03  0.00000000000E+00 0.  1.
          1    1    3    3  501    0  0.10587764907E+03 -0.26999745171E+03 -0.21081024125E+03  0.35853822435E+03  0.00000000000E+00 0.  1.
         21    1    1    2  502  501  0.94611677602E+00  0.25841322815E+00  0.60844899385E+01  0.61630294630E+01  0.00000000000E+00 0.  1.
<mgrwt>
<rscale>  1 0.64273908E+03</rscale>
<asrwt>0</asrwt>
<pdfrwt beam="1">  1        1 0.39784155E+00 0.64273908E+03</pdfrwt>
<pdfrwt beam="2">0</pdfrwt>
<totfact> 0.13697161E+00</totfact>
</mgrwt>
</event>
<event>
 6    1  0.7130975E-003  0.6520455E+03  0.7818608E-02  0.9802949E-01
          1   -1    0    0  502    0  0.00000000000E+00  0.00000000000E+00  0.10629082949E+03  0.10629082949E+03  0.00000000000E+00 0.  1.
         13   -1    0    0    0    0 -0.00000000000E+00 -0.00000000000E+00 -0.10000000000E+04  0.10000000000E+04  0.00000000000E+00 0.  1.
    9000005    2    1    2  501    0  0.11499438983E-05  0.41228275336E-05 -0.89370916713E+03  0.11062908240E+04  0.65204548303E+03 0.  0.
         13    1    3    3    0    0  0.14874222046E+03 -0.25339105315E+03 -0.20715524818E+03  0.35950600943E+03  0.00000000000E+00 0.  1.
          1    1    3    3  501    0 -0.14874221931E+03  0.25339105728E+03 -0.68655391895E+03  0.74678481461E+03  0.00000000000E+00 0.  1.
         21    1    1    2  502  501 -0.11499439221E-05 -0.41228275218E-05 -0.33816673559E-05  0.54548833081E-05  0.00000000000E+00 0. -1.
<mgrwt>
<rscale>  1 0.65204548E+03</rscale>
<asrwt>0</asrwt>
<pdfrwt beam="1">  1        1 0.38651292E+00 0.65204548E+03</pdfrwt>
<pdfrwt beam="2">0</pdfrwt>
<totfact> 0.15351595E+00</totfact>
</mgrwt>
</event>
<event>
 6    1  0.4392537E-003  0.6405190E+03  0.7818608E-02  0.9824734E-01
          1   -1    0    0  502    0  0.00000000000E+00  0.00000000000E+00  0.10256619382E+03  0.10256619382E+03  0.00000000000E+00 0.  1.
         13   -1    0    0    0    0 -0.00000000000E+00 -0.00000000000E+00 -0.10000000000E+04  0.10000000000E+04  0.00000000000E+00 0.  1.
    9000005    2    1    2  501    0 -0.12566499947E-05  0.25738860643E-05 -0.89743384025E+03  0.11025661596E+04  0.64051903856E+03 0.  0.
         13    1    3    3    0    0 -0.16525604399E+03 -0.10475555413E+03 -0.12281231830E+02  0.19604620591E+03  0.00000000000E+00 0.  1.
          1    1    3    3  501    0  0.16525604273E+03  0.10475555670E+03 -0.88515260842E+03  0.90651995373E+03  0.00000000000E+00 0.  1.
         21    1    1    2  502  501  0.12566499997E-05 -0.25738860755E-05  0.34068415858E-04  0.34188609475E-04  0.00000000000E+00 0. -1.
<mgrwt>
<rscale>  1 0.64051904E+03</rscale>
<asrwt>0</asrwt>
<pdfrwt beam="1">  1        1 0.37296876E+00 0.64051904E+03</pdfrwt>
<pdfrwt beam="2">0</pdfrwt>
<totfact> 0.17653398E+00</totfact>
</mgrwt>
</event>
<event>
 6    1  0.4392537E-003  0.6467034E+03  0.7818608E-02  0.9812985E-01
          1   -1    0    0  502    0  0.00000000000E+00  0.00000000000E+00  0.10587260326E+03  0.10587260326E+03  0.00000000000E+00 0.  1.
         13   -1    0    0    0    0 -0.00000000000E+00 -0.00000000000E+00 -0.10000000000E+04  0.10000000000E+04  0.00000000000E+00 0.  1.
    9000005    2    1    2  501    0 -0.14407907692E-01 -0.11445369646E-01 -0.89544362061E+03  0.11045562508E+04  0.64670335790E+03 0.  0.
         13    1    3    3    0    0 -0.17491937488E+03  0.24808654456E+03 -0.63800776227E+03  0.70653918930E+03  0.00000000000E+00 0.  1.
          3    1    3    3  501    0  0.17490496697E+03 -0.24809798993E+03 -0.25743585834E+03  0.39801706148E+03  0.00000000000E+00 0.  1.
         21    1    1    2  502  501  0.14407907692E-01  0.11445369646E-01  0.13162238635E+01  0.13163524768E+01  0.00000000000E+00 0. -1.
<mgrwt>
<rscale>  1 0.64670336E+03</rscale>
<asrwt>0</asrwt>
<pdfrwt beam="1">  1        1 0.38499210E+00 0.64670336E+03</pdfrwt>
<pdfrwt beam="2">0</pdfrwt>
<totfact> 0.15606744E+00</totfact>
</mgrwt>
</event>
<event>
 6    1  0.4392537E-003  0.6456867E+03  0.7818608E-02  0.9814907E-01
          1   -1    0    0  502    0  0.00000000000E+00  0.00000000000E+00  0.10422823814E+03  0.10422823814E+03  0.00000000000E+00 0.  1.
         13   -1    0    0    0    0 -0.00000000000E+00 -0.00000000000E+00 -0.10000000000E+04  0.10000000000E+04  0.00000000000E+00 0.  1.
    9000005    2    1    2  501    0  0.18811935007E-04 -0.18474082404E-03 -0.89577216405E+03  0.11042277951E+04  0.64568665287E+03 0.  0.
         13    1    3    3    0    0 -0.24834555860E+03 -0.13986424762E+03 -0.18858208780E+03  0.34176121500E+03  0.00000000000E+00 0.  1.
          3    1    3    3  501    0  0.24834557741E+03  0.13986406288E+03 -0.70719007625E+03  0.76246658015E+03  0.00000000000E+00 0.  1.
         21    1    1    2  502  501 -0.18811935007E-04  0.18474082402E-03  0.40219110284E-03  0.44299068180E-03  0.00000000000E+00 0. -1.
<mgrwt>
<rscale>  1 0.64568665E+03</rscale>
<asrwt>0</asrwt>
<pdfrwt beam="1">  1        1 0.37901257E+00 0.64568665E+03</pdfrwt>
<pdfrwt beam="2">0</pdfrwt>
<totfact> 0.16588276E+00</totfact>
</mgrwt>
</event>
<event>
 6    1  0.4392537E-003  0.6514264E+03  0.7818608E-02  0.9804106E-01
          1   -1    0    0  502    0  0.00000000000E+00  0.00000000000E+00  0.11032667175E+03  0.11032667175E+03  0.00000000000E+00 0.  1.
         13   -1    0    0    0    0 -0.00000000000E+00 -0.00000000000E+00 -0.10000000000E+04  0.10000000000E+04  0.00000000000E+00 0.  1.
    9000005    2    1    2  501    0  0.32502684753E-01  0.10523860509E+00 -0.89391010786E+03  0.11060884607E+04  0.65142642699E+03 0.  0.
         13    1    3    3    0    0 -0.14665942370E+03  0.27082629724E+03 -0.26685471207E+03  0.40751356689E+03  0.00000000000E+00 0.  1.
          3    1    3    3  501    0  0.14669192639E+03 -0.27072105864E+03 -0.62705539579E+03  0.69857489380E+03  0.00000000000E+00 0.  1.
         21    1    1    2  502  501 -0.32502684753E-01 -0.10523860509E+00  0.42367796080E+01  0.42382110654E+01  0.00000000000E+00 0. -1.
<mgrwt>
<rscale>  1 0.65142644E+03</rscale>
<asrwt>0</asrwt>
<pdfrwt beam="1">  1        1 0.40118874E+00 0.65142644E+03</pdfrwt>
<pdfrwt beam="2">0</pdfrwt>
<totfact> 0.13212851E+00</totfact>
</mgrwt>
</event>
<event>
 6    1  0.4392537E-003  0.6516176E+03  0.7818608E-02  0.9803749E-01
          1   -1    0    0  502    0  0.00000000000E+00  0.00000000000E+00  0.10616549505E+03  0.10616549505E+03  0.00000000000E+00 0.  1.
         13   -1    0    0    0    0 -0.00000000000E+00 -0.00000000000E+00 -0.10000000000E+04  0.10000000000E+04  0.00000000000E+00 0.  1.
    9000005    2    1    2  501    0 -0.15926240935E-01 -0.98024140946E-02 -0.89384144770E+03  0.11061455468E+04  0.65161755398E+03 0.  0.
         13    1    3    3    0    0  0.17900766279E+03  0.26297232066E+03 -0.56631448009E+03  0.64954620708E+03  0.00000000000E+00 0.  1.
          1    1    3    3  501    0 -0.17902358903E+03 -0.26298212308E+03 -0.32752696761E+03  0.45659933969E+03  0.00000000000E+00 0.  1.
         21    1    1    2  502  501  0.15926240935E-01  0.98024140946E-02  0.69427479050E-02  0.19948288670E-01  0.00000000000E+00 0.  1.
<mgrwt>
<rscale>  1 0.65161755E+03</rscale>
<asrwt>0</asrwt>
<pdfrwt beam="1">  1        1 0.38605716E+00 0.65161755E+03</pdfrwt>
<pdfrwt beam="2">0</pdfrwt>
<totfact> 0.15424289E+00</totfact>
</mgrwt>
</event>
<event>
 6    1  0.4392537E-003  0.6407468E+03  0.7818608E-02  0.9824299E-01
          1   -1    0    0  502    0  0.00000000000E+00  0.00000000000E+00  0.10263912639E+03  0.10263912639E+03  0.00000000000E+00 0.  1.
         13   -1    0    0    0    0 -0.00000000000E+00 -0.00000000000E+00 -0.10000000000E+04  0.10000000000E+04  0.00000000000E+00 0.  1.
    9000005    2    1    2  501    0  0.42196722916E-05  0.37551327665E-05 -0.89736087514E+03  0.11026391205E+04  0.64074682202E+03 0.  0.
         13    1    3    3    0    0 -0.30316799269E+03 -0.10006437015E+03 -0.40265215888E+03  0.51386036140E+03  0.00000000000E+00 0.  1.
          1    1    3    3  501    0  0.30316799691E+03  0.10006437391E+03 -0.49470871625E+03  0.58877875914E+03  0.00000000000E+00 0.  1.
         21    1    1    2  502  501 -0.42196722624E-05 -0.37551327571E-05  0.15293054126E-05  0.58519595924E-05  0.00000000000E+00 0. -1.
<mgrwt>
<rscale>  1 0.64074682E+03</rscale>
<asrwt>0</asrwt>
<pdfrwt beam="1">  1        1 0.37323397E+00 0.64074682E+03</pdfrwt>
<pdfrwt beam="2">0</pdfrwt>
<totfact> 0.17605318E+00</totfact>
</mgrwt>
</event>
<event>
 6    1  0.4392537E-003  0.6347083E+03  0.7818608E-02  0.9835904E-01
          1   -1    0    0  502    0  0.00000000000E+00  0.00000000000E+00  0.10071367325E+03  0.10071367325E+03  0.00000000000E+00 0.  1.
         13   -1    0    0    0    0 -0.00000000000E+00 -0.00000000000E+00 -0.10000000000E+04  0.10000000000E+04  0.00000000000E+00 0.  1.
    9000005    2    1    2  501    0 -0.73985147822E-05  0.73768786990E-05 -0.89928634574E+03  0.11007136516E+04  0.63470828822E+03 0.  0.
         13    1    3    3    0    0 -0.17827020158E+03 -0.12077313142E+03 -0.45356964994E+02  0.22005378506E+03  0.00000000000E+00 0.  1.
          3    1    3    3  501    0  0.17827019419E+03  0.12077313880E+03 -0.85392938075E+03  0.88065986652E+03  0.00000000000E+00 0.  1.
         21    1    1    2  502  501  0.73985147619E-05 -0.73768786987E-05  0.18985688216E-04  0.21670549533E-04  0.00000000000E+00 0. -1.
<mgrwt>
<rscale>  1 0.63470829E+03</rscale>
<asrwt>0</asrwt>
<pdfrwt beam="1">  1        1 0.36623231E+00 0.63470829E+03</pdfrwt>
<pdfrwt beam="2">0</pdfrwt>
<totfact> 0.18917698E+00</totfact>
</mgrwt>
</event>
<event>
 6    1  0.4392537E-003  0.6545240E+03  0.7818608E-02  0.9798327E-01
          1   -1    0    0  502    0  0.00000000000E+00  0.00000000000E+00  0.10711051612E+03  0.10711051612E+03  0.00000000000E+00 0.  1.
         13   -1    0    0    0    0 -0.00000000000E+00 -0.00000000000E+00 -0.10000000000E+04  0.10000000000E+04  0.00000000000E+00 0.  1.
    9000005    2    1    2  501    0 -0.14463361140E-05  0.27524160889E-03 -0.89289958646E+03  0.11071004098E+04  0.65452398416E+03 0.  0.
         13    1    3    3    0    0  0.32326357382E+03  0.43367526637E+02 -0.40105242177E+03  0.51693628770E+03  0.00000000000E+00 0.  1.
          1    1    3    3  501    0 -0.32326357527E+03 -0.43367251395E+02 -0.49184716469E+03  0.59016412209E+03  0.00000000000E+00 0.  1.
         21    1    1    2  502  501  0.14463361034E-05 -0.27524160889E-03  0.10102581309E-01  0.10106330152E-01  0.00000000000E+00 0.  1.
<mgrwt>
<rscale>  1 0.65452398E+03</rscale>
<asrwt>0</asrwt>
<pdfrwt beam="1">  1        1 0.38949361E+00 0.65452398E+03</pdfrwt>
<pdfrwt beam="2">0</pdfrwt>
<totfact> 0.14885021E+00</totfact>
</mgrwt>
</event>
<event>
 6    1  0.4392537E-003  0.6390128E+03  0.7818608E-02  0.9827617E-01
          1   -1    0    0  502    0  0.00000000000E+00  0.00000000000E+00  0.10208669717E+03  0.10208669717E+03  0.00000000000E+00 0.  1.
         13   -1    0    0    0    0 -0.00000000000E+00 -0.00000000000E+00 -0.10000000000E+04  0.10000000000E+04  0.00000000000E+00 0.  1.
    9000005    2    1    2  501    0  0.72874565348E-04  0.75067420369E-04 -0.89791564692E+03  0.11020843507E+04  0.63901283802E+03 0.  0.
         13    1    3    3    0    0 -0.26584383832E+02 -0.29045867548E+03 -0.22401361037E+03  0.36777040291E+03  0.00000000000E+00 0.  1.
          1    1    3    3  501    0  0.26584456707E+02  0.29045875055E+03 -0.67390203656E+03  0.73431394783E+03  0.00000000000E+00 0.  1.
         21    1    1    2  502  501 -0.72874565347E-04 -0.75067420393E-04  0.23440962608E-02  0.23464298625E-02  0.00000000000E+00 0.  1.
<mgrwt>
<rscale>  1 0.63901284E+03</rscale>
<asrwt>0</asrwt>
<pdfrwt beam="1">  1        1 0.37122514E+00 0.63901284E+03</pdfrwt>
<pdfrwt beam="2">0</pdfrwt>
<totfact> 0.17972672E+00</totfact>
</mgrwt>
</event>
<event>
 6    1  0.4392537E-003  0.6526170E+03  0.7818608E-02  0.9801881E-01
          1   -1    0    0  502    0  0.00000000000E+00  0.00000000000E+00  0.10647790077E+03  0.10647790077E+03  0.00000000000E+00 0.  1.
         13   -1    0    0    0    0 -0.00000000000E+00 -0.00000000000E+00 -0.10000000000E+04  0.10000000000E+04  0.00000000000E+00 0.  1.
    9000005    2    1    2  501    0  0.13032288564E-04  0.92814902814E-04 -0.89352274913E+03  0.11064772441E+04  0.65261703057E+03 0.  0.
         13    1    3    3    0    0  0.19764563551E+03  0.11215373613E+03 -0.84378197959E+03  0.87384797697E+03  0.00000000000E+00 0.  1.
          1    1    3    3  501    0 -0.19764562248E+03 -0.11215364331E+03 -0.49740769541E+02  0.23262926718E+03  0.00000000000E+00 0.  1.
         21    1    1    2  502  501 -0.13032288572E-04 -0.92814902815E-04  0.64990356729E-03  0.65662705815E-03  0.00000000000E+00 0. -1.
<mgrwt>
<rscale>  1 0.65261703E+03</rscale>
<asrwt>0</asrwt>
<pdfrwt beam="1">  1        1 0.38719318E+00 0.65261703E+03</pdfrwt>
<pdfrwt beam="2">0</pdfrwt>
<totfact> 0.15243889E+00</totfact>
</mgrwt>
</event>
<event>
 6    1  0.4392537E-003  0.6444361E+03  0.7818608E-02  0.9817276E-01
          1   -1    0    0  502    0  0.00000000000E+00  0.00000000000E+00  0.11037535973E+03  0.11037535973E+03  0.00000000000E+00 0.  1.
         13   -1    0    0    0    0 -0.00000000000E+00 -0.00000000000E+00 -0.10000000000E+04  0.10000000000E+04  0.00000000000E+00 0.  1.
    9000005    2    1    2  501    0  0.23008563449E+01 -0.37294848544E+01 -0.89535690217E+03  0.11031599718E+04  0.64442124267E+03 0.  0.
         13    1    3    3    0    0  0.12409380145E+03 -0.17878415649E+03 -0.39565030122E+02  0.22119773457E+03  0.00000000000E+00 0.  1.
          3    1    3    3  501    0 -0.12179294511E+03  0.17505467164E+03 -0.85579187205E+03  0.88196223718E+03  0.00000000000E+00 0.  1.
         21    1    1    2  502  501 -0.23008563449E+01  0.37294848544E+01  0.57322619067E+01  0.72153879844E+01  0.00000000000E+00 0.  1.
<mgrwt>
<rscale>  1 0.64443614E+03</rscale>
<asrwt>0</asrwt>
<pdfrwt beam="1">  1        1 0.40136579E+00 0.64443614E+03</pdfrwt>
<pdfrwt beam="2">0</pdfrwt>
<totfact> 0.13206500E+00</totfact>
</mgrwt>
</event>
<event>
 6    1  0.4392537E-003  0.6556029E+03  0.7818608E-02  0.9796322E-01
          1   -1    0    0  502    0  0.00000000000E+00  0.00000000000E+00  0.10745410575E+03  0.10745410575E+03  0.00000000000E+00 0.  1.
         13   -1    0    0    0    0 -0.00000000000E+00 -0.00000000000E+00 -0.10000000000E+04  0.10000000000E+04  0.00000000000E+00 0.  1.
    9000005    2    1    2  501    0 -0.32502600297E-03  0.74058765072E-03 -0.89254538097E+03  0.11074531478E+04  0.65560294202E+03 0.  0.
         13    1    3    3    0    0  0.10374332653E+02 -0.90394926808E+02 -0.97824025968E+03  0.98246265844E+03  0.00000000000E+00 0.  1.
          1    1    3    3  501    0 -0.10374657679E+02  0.90395667396E+02  0.85694878708E+02  0.12499048941E+03  0.00000000000E+00 0.  1.
         21    1    1    2  502  501  0.32502600296E-03 -0.74058765072E-03 -0.51328075821E-03  0.95789827631E-03  0.00000000000E+00 0. -1.
<mgrwt>
<rscale>  1 0.65560294E+03</rscale>
<asrwt>0</asrwt>
<pdfrwt beam="1">  1        1 0.39074303E+00 0.65560294E+03</pdfrwt>
<pdfrwt beam="2">0</pdfrwt>
<totfact> 0.14693365E+00</totfact>
</mgrwt>
</event>
<event>
 6    1  0.4392537E-003  0.6518038E+03  0.7818608E-02  0.9803400E-01
          1   -1    0    0  502    0  0.00000000000E+00  0.00000000000E+00  0.10621317598E+03  0.10621317598E+03  0.00000000000E+00 0.  1.
         13   -1    0    0    0    0 -0.00000000000E+00 -0.00000000000E+00 -0.10000000000E+04  0.10000000000E+04  0.00000000000E+00 0.  1.
    9000005    2    1    2  501    0  0.15237497848E-04 -0.36731670178E-04 -0.89378795498E+03  0.11062120443E+04  0.65180378836E+03 0.  0.
         13    1    3    3    0    0 -0.18082943939E+03  0.24842233207E+03 -0.63124507549E+03  0.70205646963E+03  0.00000000000E+00 0.  1.
          3    1    3    3  501    0  0.18082945463E+03 -0.24842236880E+03 -0.26254287949E+03  0.40415557469E+03  0.00000000000E+00 0.  1.
         21    1    1    2  502  501 -0.15237497849E-04  0.36731670182E-04  0.11309672418E-02  0.11316661606E-02  0.00000000000E+00 0. -1.
<mgrwt>
<rscale>  1 0.65180379E+03</rscale>
<asrwt>0</asrwt>
<pdfrwt beam="1">  1        1 0.38623055E+00 0.65180379E+03</pdfrwt>
<pdfrwt beam="2">0</pdfrwt>
<totfact> 0.15396529E+00</totfact>
</mgrwt>
</event>
<event>
 6    1  0.4392537E-003  0.6437109E+03  0.7818608E-02  0.9818652E-01
          1   -1    0    0  502    0  0.00000000000E+00  0.00000000000E+00  0.10366832506E+03  0.10366832506E+03  0.00000000000E+00 0.  1.
         13   -1    0    0    0    0 -0.00000000000E+00 -0.00000000000E+00 -0.10000000000E+04  0.10000000000E+04  0.00000000000E+00 0.  1.
    9000005    2    1    2  501    0  0.24549809580E-01  0.33889885956E-01 -0.89640278260E+03  0.11035858174E+04  0.64371088691E+03 0.  0.
         13    1    3    3    0    0  0.11280426345E+03  0.13423403730E+03 -0.91096457262E+03  0.92768530828E+03  0.00000000000E+00 0.  1.
          1    1    3    3  501    0 -0.11277971364E+03 -0.13420014742E+03  0.14561790024E+02  0.17590050910E+03  0.00000000000E+00 0.  1.
         21    1    1    2  502  501 -0.24549809580E-01 -0.33889885956E-01  0.71107653772E-01  0.82507672040E-01  0.00000000000E+00 0. -1.
<mgrwt>
<rscale>  1 0.64371089E+03</rscale>
<asrwt>0</asrwt>
<pdfrwt beam="1">  1        1 0.37697652E+00 0.64371089E+03</pdfrwt>
<pdfrwt beam="2">0</pdfrwt>
<totfact> 0.16940785E+00</totfact>
</mgrwt>
</event>
<event>
 6    1  0.4392537E-003  0.6670127E+03  0.7818608E-02  0.9775369E-01
          1   -1    0    0  502    0  0.00000000000E+00  0.00000000000E+00  0.11130331989E+03  0.11130331989E+03  0.00000000000E+00 0.  1.
         13   -1    0    0    0    0 -0.00000000000E+00 -0.00000000000E+00 -0.10000000000E+04  0.10000000000E+04  0.00000000000E+00 0.  1.
    9000005    2    1    2  501    0 -0.30727288010E-01 -0.15968205730E-01 -0.88876913738E+03  0.11112230129E+04  0.66701274629E+03 0.  0.
         13    1    3    3    0    0 -0.16168889850E+02 -0.13032349877E+03  0.66341896847E+02  0.14712883677E+03  0.00000000000E+00 0.  1.
          1    1    3    3  501    0  0.16138162562E+02  0.13030753057E+03 -0.95511103423E+03  0.96409417617E+03  0.00000000000E+00 0.  1.
         21    1    1    2  502  501  0.30727288010E-01  0.15968205730E-01  0.72457276422E-01  0.80306953180E-01  0.00000000000E+00 0.  1.
<mgrwt>
<rscale>  1 0.66701275E+03</rscale>
<asrwt>0</asrwt>
<pdfrwt beam="1">  1        1 0.40474020E+00 0.66701275E+03</pdfrwt>
<pdfrwt beam="2">0</pdfrwt>
<totfact> 0.12701525E+00</totfact>
</mgrwt>
</event>
<event>
 6    1  0.4392537E-003  0.5114927E+03  0.7818608E-02  0.1010822E+00
          3   -1    0    0  502    0  0.00000000000E+00  0.00000000000E+00  0.65409291210E+02  0.65409291210E+02  0.00000000000E+00 0.  1.
         13   -1    0    0    0    0 -0.00000000000E+00 -0.00000000000E+00 -0.10000000000E+04  0.10000000000E+04  0.00000000000E+00 0.  1.
    9000005    2    1    2  501    0  0.73301386356E-02  0.62289224245E-02 -0.93458389115E+03  0.10653975009E+04  0.51149270308E+03 0.  0.
         13    1    3    3    0    0  0.25165817672E+03  0.16574595541E+02 -0.55570864251E+03  0.61026113303E+03  0.00000000000E+00 0.  1.
          3    1    3    3  501    0 -0.25165084658E+03 -0.16568366619E+02 -0.37887524864E+03  0.45513636791E+03  0.00000000000E+00 0.  1.
         21    1    1    2  502  501 -0.73301386356E-02 -0.62289224245E-02 -0.68176402437E-02  0.11790276735E-01  0.00000000000E+00 0.  1.
<mgrwt>
<rscale>  1 0.51149270E+03</rscale>
<asrwt>0</asrwt>
<pdfrwt beam="1">  1        3 0.23785247E+00 0.51149270E+03</pdfrwt>
<pdfrwt beam="2">0</pdfrwt>
<totfact> 0.45519919E-01</totfact>
</mgrwt>
</event>
<event>
 6    1  0.4392537E-003  0.6356745E+03  0.7818608E-02  0.9834038E-01
          1   -1    0    0  502    0  0.00000000000E+00  0.00000000000E+00  0.10165836825E+03  0.10165836825E+03  0.00000000000E+00 0.  1.
         13   -1    0    0    0    0 -0.00000000000E+00 -0.00000000000E+00 -0.10000000000E+04  0.10000000000E+04  0.00000000000E+00 0.  1.
    9000005    2    1    2  501    0 -0.18727153205E+00 -0.16345688465E+00 -0.89895271436E+03  0.11009986632E+04  0.63567445439E+03 0.  0.
         13    1    3    3    0    0 -0.19681890555E+03  0.50293639183E+02 -0.87302419034E+03  0.89634723664E+03  0.00000000000E+00 0.  1.
          1    1    3    3  501    0  0.19663163402E+03 -0.50457096067E+02 -0.25928524017E+02  0.20465142657E+03  0.00000000000E+00 0.  1.
         21    1    1    2  502  501  0.18727153205E+00  0.16345688465E+00  0.61108260152E+00  0.65970502933E+00  0.00000000000E+00 0.  1.
<mgrwt>
<rscale>  1 0.63567450E+03</rscale>
<asrwt>0</asrwt>
<pdfrwt beam="1">  1        1 0.36966757E+00 0.63567450E+03</pdfrwt>
<pdfrwt beam="2">0</pdfrwt>
<totfact> 0.18269171E+00</totfact>
</mgrwt>
</event>
<event>
 6    1  0.4392537E-003  0.6242756E+03  0.7818608E-02  0.9856284E-01
          1   -1    0    0  502    0  0.00000000000E+00  0.00000000000E+00  0.97639770180E+02  0.97639770180E+02  0.00000000000E+00 0.  1.
         13   -1    0    0    0    0 -0.00000000000E+00 -0.00000000000E+00 -0.10000000000E+04  0.10000000000E+04  0.00000000000E+00 0.  1.
    9000005    2    1    2  501    0  0.56073291887E-01 -0.80822777812E-01 -0.90255727145E+03  0.10974195386E+04  0.62427558484E+03 0.  0.
         13    1    3    3    0    0  0.45784293662E+02  0.29150529987E+03 -0.27249757038E+03  0.40165466169E+03  0.00000000000E+00 0.  1.
          1    1    3    3  501    0 -0.45728220370E+02 -0.29158612265E+03 -0.63005970107E+03  0.69576487693E+03  0.00000000000E+00 0.  1.
         21    1    1    2  502  501 -0.56073291887E-01  0.80822777812E-01  0.19704162863E+00  0.22023155744E+00  0.00000000000E+00 0. -1.
<mgrwt>
<rscale>  1 0.62427559E+03</rscale>
<asrwt>0</asrwt>
<pdfrwt beam="1">  1        1 0.35505446E+00 0.62427559E+03</pdfrwt>
<pdfrwt beam="2">0</pdfrwt>
<totfact> 0.21212213E+00</totfact>
</mgrwt>
</event>
<event>
 6    1  0.4392537E-003  0.6465684E+03  0.7818608E-02  0.9813240E-01
          1   -1    0    0  502    0  0.00000000000E+00  0.00000000000E+00  0.10471053276E+03  0.10471053276E+03  0.00000000000E+00 0.  1.
         13   -1    0    0    0    0 -0.00000000000E+00 -0.00000000000E+00 -0.10000000000E+04  0.10000000000E+04  0.00000000000E+00 0.  1.
    9000005    2    1    2  501    0  0.23440057176E-01 -0.45043684442E-01 -0.89548372237E+03  0.11045097507E+04  0.64656839534E+03 0.  0.
         13    1    3    3    0    0  0.71059177716E+02  0.25394376406E+03 -0.76715291780E+03  0.81120924633E+03  0.00000000000E+00 0.  1.
          3    1    3    3  501    0 -0.71035737658E+02 -0.25398880774E+03 -0.12833080457E+03  0.29330050440E+03  0.00000000000E+00 0.  1.
         21    1    1    2  502  501 -0.23440057176E-01  0.45043684442E-01  0.19425512465E+00  0.20078202917E+00  0.00000000000E+00 0. -1.
<mgrwt>
<rscale>  1 0.64656840E+03</rscale>
<asrwt>0</asrwt>
<pdfrwt beam="1">  1        1 0.38076638E+00 0.64656840E+03</pdfrwt>
<pdfrwt beam="2">0</pdfrwt>
<totfact> 0.16292703E+00</totfact>
</mgrwt>
</event>
<event>
 6    1  0.4392537E-003  0.6362613E+03  0.7818608E-02  0.9832906E-01
          1   -1    0    0  502    0  0.00000000000E+00  0.00000000000E+00  0.10153190485E+03  0.10153190485E+03  0.00000000000E+00 0.  1.
         13   -1    0    0    0    0 -0.00000000000E+00 -0.00000000000E+00 -0.10000000000E+04  0.10000000000E+04  0.00000000000E+00 0.  1.
    9000005    2    1    2  501    0  0.33494502900E-01 -0.30989256319E-01 -0.89879112261E+03  0.11012056703E+04  0.63626130184E+03 0.  0.
         13    1    3    3    0    0  0.18774814320E+03 -0.68849377711E+02 -0.87766746678E+03  0.90016097690E+03  0.00000000000E+00 0.  1.
          1    1    3    3  501    0 -0.18771464870E+03  0.68818388455E+02 -0.21123655831E+02  0.20104469344E+03  0.00000000000E+00 0.  1.
         21    1    1    2  502  501 -0.33494502900E-01  0.30989256319E-01  0.32302746339E+00  0.32623451356E+00  0.00000000000E+00 0.  1.
<mgrwt>
<rscale>  1 0.63626130E+03</rscale>
<asrwt>0</asrwt>
<pdfrwt beam="1">  1        1 0.36920771E+00 0.63626130E+03</pdfrwt>
<pdfrwt beam="2">0</pdfrwt>
<totfact> 0.18352338E+00</totfact>
</mgrwt>
</event>
<event>
 6    1  0.4392537E-003  0.6449072E+03  0.7818608E-02  0.9816383E-01
          1   -1    0    0  502    0  0.00000000000E+00  0.00000000000E+00  0.10433099440E+03  0.10433099440E+03  0.00000000000E+00 0.  1.
         13   -1    0    0    0    0 -0.00000000000E+00 -0.00000000000E+00 -0.10000000000E+04  0.10000000000E+04  0.00000000000E+00 0.  1.
    9000005    2    1    2  501    0 -0.43015006584E-01  0.15804355682E-01 -0.89602204291E+03  0.11039749952E+04  0.64490719225E+03 0.  0.
         13    1    3    3    0    0  0.14824461355E+03  0.25391638904E+03 -0.22139641583E+03  0.36805756481E+03  0.00000000000E+00 0.  1.
          3    1    3    3  501    0 -0.14828762855E+03 -0.25390058469E+03 -0.67462562708E+03  0.73591743042E+03  0.00000000000E+00 0.  1.
         21    1    1    2  502  501  0.43015006584E-01 -0.15804355682E-01  0.35303730665E+00  0.35599916901E+00  0.00000000000E+00 0.  1.
<mgrwt>
<rscale>  1 0.64490719E+03</rscale>
<asrwt>0</asrwt>
<pdfrwt beam="1">  1        1 0.37938623E+00 0.64490719E+03</pdfrwt>
<pdfrwt beam="2">0</pdfrwt>
<totfact> 0.16527815E+00</totfact>
</mgrwt>
</event>
<event>
 6    1  0.4392537E-003  0.6366247E+03  0.7818608E-02  0.9832206E-01
          1   -1    0    0  502    0  0.00000000000E+00  0.00000000000E+00  0.10238848452E+03  0.10238848452E+03  0.00000000000E+00 0.  1.
         13   -1    0    0    0    0 -0.00000000000E+00 -0.00000000000E+00 -0.10000000000E+04  0.10000000000E+04  0.00000000000E+00 0.  1.
    9000005    2    1    2  501    0  0.65713982952E-01  0.13452310791E-01 -0.89867608529E+03  0.11013218036E+04  0.63662469660E+03 0.  0.
         13    1    3    3    0    0  0.22889182244E+03  0.12693967296E+03 -0.13590589918E+03  0.29491619213E+03  0.00000000000E+00 0.  1.
          1    1    3    3  501    0 -0.22882610845E+03 -0.12692622065E+03 -0.76277018611E+03  0.80640561147E+03  0.00000000000E+00 0.  1.
         21    1    1    2  502  501 -0.65713982952E-01 -0.13452310791E-01  0.10645698081E+01  0.10666809122E+01  0.00000000000E+00 0.  1.
<mgrwt>
<rscale>  1 0.63662470E+03</rscale>
<asrwt>0</asrwt>
<pdfrwt beam="1">  1        1 0.37232255E+00 0.63662470E+03</pdfrwt>
<pdfrwt beam="2">0</pdfrwt>
<totfact> 0.17781937E+00</totfact>
</mgrwt>
</event>
<event>
 6    1  0.4392537E-003  0.6006867E+03  0.7818608E-02  0.9903982E-01
          3   -1    0    0  502    0  0.00000000000E+00  0.00000000000E+00  0.90295146036E+02  0.90295146036E+02  0.00000000000E+00 0.  1.
         13   -1    0    0    0    0 -0.00000000000E+00 -0.00000000000E+00 -0.10000000000E+04  0.10000000000E+04  0.00000000000E+00 0.  1.
    9000005    2    1    2  501    0  0.92137800567E-03 -0.44969115143E-02 -0.90979379312E+03  0.10902060885E+04  0.60068674813E+03 0.  0.
         13    1    3    3    0    0 -0.15735730352E+02  0.93034266765E+02 -0.97239906950E+03  0.97696619100E+03  0.00000000000E+00 0.  1.
          1    1    3    3  501    0  0.15736651730E+02 -0.93038763676E+02  0.62605276378E+02  0.11323989749E+03  0.00000000000E+00 0.  1.
         21    1    1    2  502  501 -0.92137800567E-03  0.44969115143E-02  0.88939157600E-01  0.89057537048E-01  0.00000000000E+00 0. -1.
<mgrwt>
<rscale>  1 0.60068675E+03</rscale>
<asrwt>0</asrwt>
<pdfrwt beam="1">  1        3 0.32834668E+00 0.60068675E+03</pdfrwt>
<pdfrwt beam="2">0</pdfrwt>
<totfact> 0.14322417E-01</totfact>
</mgrwt>
</event>
<event>
 6    1  0.4392537E-003  0.6622054E+03  0.7818608E-02  0.9784142E-01
          1   -1    0    0  502    0  0.00000000000E+00  0.00000000000E+00  0.10980897779E+03  0.10980897779E+03  0.00000000000E+00 0.  1.
         13   -1    0    0    0    0 -0.00000000000E+00 -0.00000000000E+00 -0.10000000000E+04  0.10000000000E+04  0.00000000000E+00 0.  1.
    9000005    2    1    2  501    0  0.21311022830E+00  0.34549137597E+00 -0.89006587544E+03  0.11093841932E+04  0.66220530097E+03 0.  0.
         13    1    3    3    0    0  0.11140377947E+03  0.17516761913E+03 -0.12802160670E+02  0.20798651925E+03  0.00000000000E+00 0.  1.
          3    1    3    3  501    0 -0.11119066924E+03 -0.17482212776E+03 -0.87726371477E+03  0.90139767391E+03  0.00000000000E+00 0.  1.
         21    1    1    2  502  501 -0.21311022830E+00 -0.34549137597E+00 -0.12514676855E+00  0.42478462067E+00  0.00000000000E+00 0.  1.
<mgrwt>
<rscale>  1 0.66220543E+03</rscale>
<asrwt>0</asrwt>
<pdfrwt beam="1">  1        1 0.39930622E+00 0.66220543E+03</pdfrwt>
<pdfrwt beam="2">0</pdfrwt>
<totfact> 0.13443347E+00</totfact>
</mgrwt>
</event>
<event>
 6    1  0.4392537E-003  0.6387710E+03  0.7818608E-02  0.9828081E-01
          1   -1    0    0  502    0  0.00000000000E+00  0.00000000000E+00  0.11132636826E+03  0.11132636826E+03  0.00000000000E+00 0.  1.
         13   -1    0    0    0    0 -0.00000000000E+00 -0.00000000000E+00 -0.10000000000E+04  0.10000000000E+04  0.00000000000E+00 0.  1.
    9000005    2    1    2  501    0 -0.16332809799E+01  0.11144690810E+00 -0.89791360917E+03  0.11019424879E+04  0.63876890746E+03 0.  0.
         13    1    3    3    0    0 -0.14622116376E+03 -0.48873922532E+02  0.33775491165E+02  0.15782925216E+03  0.00000000000E+00 0.  1.
          3    1    3    3  501    0  0.14458788278E+03  0.48985369440E+02 -0.93168910033E+03  0.94411323577E+03  0.00000000000E+00 0.  1.
         21    1    1    2  502  501  0.16332809799E+01 -0.11144690810E+00  0.92399774248E+01  0.93838803265E+01  0.00000000000E+00 0. -1.
<mgrwt>
<rscale>  1 0.63877101E+03</rscale>
<asrwt>0</asrwt>
<pdfrwt beam="1">  1        1 0.40482401E+00 0.63877101E+03</pdfrwt>
<pdfrwt beam="2">0</pdfrwt>
<totfact> 0.12759343E+00</totfact>
</mgrwt>
</event>
<event>
 6    1  0.4392537E-003  0.6507017E+03  0.7818608E-02  0.9805463E-01
          1   -1    0    0  502    0  0.00000000000E+00  0.00000000000E+00  0.10667687554E+03  0.10667687554E+03  0.00000000000E+00 0.  1.
         13   -1    0    0    0    0 -0.00000000000E+00 -0.00000000000E+00 -0.10000000000E+04  0.10000000000E+04  0.00000000000E+00 0.  1.
    9000005    2    1    2  501    0 -0.15025526219E+00 -0.11785209366E+00 -0.89413457918E+03  0.11058432542E+04  0.65070163725E+03 0.  0.
         13    1    3    3    0    0 -0.22246247634E+03 -0.23583071971E+03 -0.39886802545E+03  0.51400523681E+03  0.00000000000E+00 0.  1.
          3    1    3    3  501    0  0.22231222108E+03  0.23571286761E+03 -0.49526655373E+03  0.59183801740E+03  0.00000000000E+00 0.  1.
         21    1    1    2  502  501  0.15025526219E+00  0.11785209366E+00  0.81145472124E+00  0.83362133155E+00  0.00000000000E+00 0.  1.
<mgrwt>
<rscale>  1 0.65070167E+03</rscale>
<asrwt>0</asrwt>
<pdfrwt beam="1">  1        1 0.38791673E+00 0.65070167E+03</pdfrwt>
<pdfrwt beam="2">0</pdfrwt>
<totfact> 0.15137194E+00</totfact>
</mgrwt>
</event>
<event>
 6    1  0.4392537E-003  0.6417929E+03  0.7818608E-02  0.9822302E-01
          1   -1    0    0  502    0  0.00000000000E+00  0.00000000000E+00  0.10369028661E+03  0.10369028661E+03  0.00000000000E+00 0.  1.
         13   -1    0    0    0    0 -0.00000000000E+00 -0.00000000000E+00 -0.10000000000E+04  0.10000000000E+04  0.00000000000E+00 0.  1.
    9000005    2    1    2  501    0 -0.79168670540E-01  0.44855222299E-01 -0.89702228531E+03  0.11029719285E+04  0.64179286875E+03 0.  0.
         13    1    3    3    0    0 -0.90895125558E+02  0.30560576116E+03 -0.51143457526E+03  0.60267912680E+03  0.00000000000E+00 0.  1.
          3    1    3    3  501    0  0.90815956888E+02 -0.30556090594E+03 -0.38558771005E+03  0.50029280167E+03  0.00000000000E+00 0.  1.
         21    1    1    2  502  501  0.79168670540E-01 -0.44855222299E-01  0.71257191953E+00  0.71835813482E+00  0.00000000000E+00 0. -1.
<mgrwt>
<rscale>  1 0.64179288E+03</rscale>
<asrwt>0</asrwt>
<pdfrwt beam="1">  1        1 0.37705638E+00 0.64179288E+03</pdfrwt>
<pdfrwt beam="2">0</pdfrwt>
<totfact> 0.16933027E+00</totfact>
</mgrwt>
</event>
<event>
 6    1  0.4392537E-003  0.6441914E+03  0.7818608E-02  0.9817740E-01
          1   -1    0    0  502    0  0.00000000000E+00  0.00000000000E+00  0.10374566822E+03  0.10374566822E+03  0.00000000000E+00 0.  1.
         13   -1    0    0    0    0 -0.00000000000E+00 -0.00000000000E+00 -0.10000000000E+04  0.10000000000E+04  0.00000000000E+00 0.  1.
    9000005    2    1    2  501    0  0.12956940907E-05 -0.23382976337E-05 -0.89625436171E+03  0.11037456382E+04  0.64419139462E+03 0.  0.
         13    1    3    3    0    0  0.13365152079E+03  0.19295326864E+03 -0.70203430420E+02  0.24499431530E+03  0.00000000000E+00 0.  1.
          3    1    3    3  501    0 -0.13365151949E+03 -0.19295327098E+03 -0.82605093129E+03  0.85875132287E+03  0.00000000000E+00 0.  1.
         21    1    1    2  502  501 -0.12956940903E-05  0.23382976097E-05  0.29932880891E-04  0.30052018524E-04  0.00000000000E+00 0.  1.
<mgrwt>
<rscale>  1 0.64419139E+03</rscale>
<asrwt>0</asrwt>
<pdfrwt beam="1">  1        1 0.37725777E+00 0.64419139E+03</pdfrwt>
<pdfrwt beam="2">0</pdfrwt>
<totfact> 0.16891028E+00</totfact>
</mgrwt>
</event>
<event>
 6    1  0.4392537E-003  0.6738880E+03  0.7818608E-02  0.9762960E-01
          1   -1    0    0  502    0  0.00000000000E+00  0.00000000000E+00  0.11353127674E+03  0.11353127674E+03  0.00000000000E+00 0.  1.
         13   -1    0    0    0    0 -0.00000000000E+00 -0.00000000000E+00 -0.10000000000E+04  0.10000000000E+04  0.00000000000E+00 0.  1.
    9000005    2    1    2  501    0  0.13716724823E-05 -0.20471896562E-04 -0.88646873821E+03  0.11135312514E+04  0.67388799064E+03 0.  0.
         13    1    3    3    0    0 -0.14968893613E+03 -0.28960480372E+03 -0.58396537302E+03  0.66879987801E+03  0.00000000000E+00 0.  1.
          3    1    3    3  501    0  0.14968893750E+03  0.28960478325E+03 -0.30250336519E+03  0.44473137335E+03  0.00000000000E+00 0.  1.
         21    1    1    2  502  501 -0.13716724994E-05  0.20471896534E-04  0.14947245616E-04  0.25385038599E-04  0.00000000000E+00 0. -1.
<mgrwt>
<rscale>  1 0.67388799E+03</rscale>
<asrwt>0</asrwt>
<pdfrwt beam="1">  1        1 0.41284188E+00 0.67388799E+03</pdfrwt>
<pdfrwt beam="2">0</pdfrwt>
<totfact> 0.11667456E+00</totfact>
</mgrwt>
</event>
<event>
 6    1  0.4392537E-003  0.6575080E+03  0.7818608E-02  0.9792792E-01
          1   -1    0    0  502    0  0.00000000000E+00  0.00000000000E+00  0.10809164059E+03  0.10809164059E+03  0.00000000000E+00 0.  1.
         13   -1    0    0    0    0 -0.00000000000E+00 -0.00000000000E+00 -0.10000000000E+04  0.10000000000E+04  0.00000000000E+00 0.  1.
    9000005    2    1    2  501    0  0.36417712742E-03 -0.58702720830E-03 -0.89192078587E+03  0.11080791949E+04  0.65750803342E+03 0.  0.
         13    1    3    3    0    0  0.31686443501E+02  0.24839434099E+03 -0.86972519173E+02  0.26508111669E+03  0.00000000000E+00 0.  1.
          3    1    3    3  501    0 -0.31686079324E+02 -0.24839492801E+03 -0.80494826669E+03  0.84299807825E+03  0.00000000000E+00 0.  1.
         21    1    1    2  502  501 -0.36417712742E-03  0.58702720827E-03  0.12426461302E-01  0.12445648493E-01  0.00000000000E+00 0. -1.
<mgrwt>
<rscale>  1 0.65750803E+03</rscale>
<asrwt>0</asrwt>
<pdfrwt beam="1">  1        1 0.39306134E+00 0.65750803E+03</pdfrwt>
<pdfrwt beam="2">0</pdfrwt>
<totfact> 0.14344185E+00</totfact>
</mgrwt>
</event>
<event>
 6    1  0.4392537E-003  0.5273087E+03  0.7818608E-02  0.1006887E+00
          1   -1    0    0  502    0  0.00000000000E+00  0.00000000000E+00  0.73129973386E+02  0.73129973386E+02  0.00000000000E+00 0.  1.
         13   -1    0    0    0    0 -0.00000000000E+00 -0.00000000000E+00 -0.10000000000E+04  0.10000000000E+04  0.00000000000E+00 0.  1.
    9000005    2    1    2  501    0 -0.65435113169E-01 -0.20414584517E+00 -0.93048297996E+03  0.10695106656E+04  0.52730867789E+03 0.  0.
         13    1    3    3    0    0  0.20747581926E+03 -0.57632202232E+02 -0.15667485224E+03  0.26629813300E+03  0.00000000000E+00 0.  1.
          1    1    3    3  501    0 -0.20754125438E+03  0.57428056387E+02 -0.77380812772E+03  0.80321253256E+03  0.00000000000E+00 0.  1.
         21    1    1    2  502  501  0.65435113169E-01  0.20414584517E+00  0.36129533468E+01  0.36193078297E+01  0.00000000000E+00 0.  1.
<mgrwt>
<rscale>  1 0.52730872E+03</rscale>
<asrwt>0</asrwt>
<pdfrwt beam="1">  1        1 0.26592774E+00 0.52730872E+03</pdfrwt>
<pdfrwt beam="2">0</pdfrwt>
<totfact> 0.52433059E+00</totfact>
</mgrwt>
</event>
<event>
 6    1  0.4392537E-003  0.6469121E+03  0.7818608E-02  0.9812591E-01
          1   -1    0    0  502    0  0.00000000000E+00  0.00000000000E+00  0.10462532546E+03  0.10462532546E+03  0.00000000000E+00 0.  1.
         13   -1    0    0    0    0 -0.00000000000E+00 -0.00000000000E+00 -0.10000000000E+04  0.10000000000E+04  0.00000000000E+00 0.  1.
    9000005    2    1    2  501    0 -0.32847661430E-04  0.24033677647E-04 -0.89537617191E+03  0.11046238275E+04  0.64691213557E+03 0.  0.
         13    1    3    3    0    0  0.23367962265E+03 -0.22284345436E+03 -0.48001610754E+03  0.57851606261E+03  0.00000000000E+00 0.  1.
          3    1    3    3  501    0 -0.23367965549E+03  0.22284347840E+03 -0.41536006436E+03  0.52610776493E+03  0.00000000000E+00 0.  1.
         21    1    1    2  502  501  0.32847661449E-04 -0.24033677664E-04  0.14973666251E-02  0.14979196896E-02  0.00000000000E+00 0.  1.
<mgrwt>
<rscale>  1 0.64691214E+03</rscale>
<asrwt>0</asrwt>
<pdfrwt beam="1">  1        1 0.38045653E+00 0.64691214E+03</pdfrwt>
<pdfrwt beam="2">0</pdfrwt>
<totfact> 0.16343053E+00</totfact>
</mgrwt>
</event>
<event>
 6    1  0.4392537E-003  0.6468558E+03  0.7818608E-02  0.9812697E-01
          1   -1    0    0  502    0  0.00000000000E+00  0.00000000000E+00  0.10461598440E+03  0.10461598440E+03  0.00000000000E+00 0.  1.
         13   -1    0    0    0    0 -0.00000000000E+00 -0.00000000000E+00 -0.10000000000E+04  0.10000000000E+04  0.00000000000E+00 0.  1.
    9000005    2    1    2  501    0 -0.90150788222E-03  0.28298479139E-03 -0.89539437959E+03  0.11046055774E+04  0.64685576960E+03 0.  0.
         13    1    3    3    0    0 -0.19425640645E+03  0.13032143894E+02 -0.66718162555E+01  0.19480734419E+03  0.00000000000E+00 0.  1.
          3    1    3    3  501    0  0.19425550494E+03 -0.13031860909E+02 -0.88872256334E+03  0.90979823323E+03  0.00000000000E+00 0.  1.
         21    1    1    2  502  501  0.90150788221E-03 -0.28298479139E-03  0.10363999022E-01  0.10406981915E-01  0.00000000000E+00 0.  1.
<mgrwt>
<rscale>  1 0.64685577E+03</rscale>
<asrwt>0</asrwt>
<pdfrwt beam="1">  1        1 0.38042256E+00 0.64685577E+03</pdfrwt>
<pdfrwt beam="2">0</pdfrwt>
<totfact> 0.16348865E+00</totfact>
</mgrwt>
</event>
<event>
 6    1  0.4392537E-003  0.6537709E+03  0.7818608E-02  0.9799729E-01
          1   -1    0    0  502    0  0.00000000000E+00  0.00000000000E+00  0.10687778274E+03  0.10687778274E+03  0.00000000000E+00 0.  1.
         13   -1    0    0    0    0 -0.00000000000E+00 -0.00000000000E+00 -0.10000000000E+04  0.10000000000E+04  0.00000000000E+00 0.  1.
    9000005    2    1    2  501    0  0.10073409425E-02 -0.20422681349E-02 -0.89314583448E+03  0.11068540560E+04  0.65377092289E+03 0.  0.
         13    1    3    3    0    0 -0.13913043471E+03  0.14733956883E+03 -0.12325577458E+02  0.20302252650E+03  0.00000000000E+00 0.  1.
          1    1    3    3  501    0  0.13913144205E+03 -0.14734161110E+03 -0.88082025702E+03  0.90383152949E+03  0.00000000000E+00 0.  1.
         21    1    1    2  502  501 -0.10073409425E-02  0.20422681349E-02  0.23617211856E-01  0.23726742101E-01  0.00000000000E+00 0.  1.
<mgrwt>
<rscale>  1 0.65377092E+03</rscale>
<asrwt>0</asrwt>
<pdfrwt beam="1">  1        1 0.38864730E+00 0.65377092E+03</pdfrwt>
<pdfrwt beam="2">0</pdfrwt>
<totfact> 0.15016246E+00</totfact>
</mgrwt>
</event>
<event>
 6    1  0.4392537E-003  0.6451443E+03  0.7818608E-02  0.9815934E-01
          1   -1    0    0  502    0  0.00000000000E+00  0.00000000000E+00  0.10836282602E+03  0.10836282602E+03  0.00000000000E+00 0.  1.
         13   -1    0    0    0    0 -0.00000000000E+00 -0.00000000000E+00 -0.10000000000E+04  0.10000000000E+04  0.00000000000E+00 0.  1.
    9000005    2    1    2  501    0 -0.52726793061E+00 -0.62997792209E+00 -0.89590396362E+03  0.11040176704E+04  0.64514372786E+03 0.  0.
         13    1    3    3    0    0  0.45392137193E+01 -0.15838176307E+03 -0.92928253124E+03  0.94269369904E+03  0.00000000000E+00 0.  1.
          3    1    3    3  501    0 -0.50664816499E+01  0.15775178515E+03  0.33378567618E+02  0.16132397135E+03  0.00000000000E+00 0.  1.
         21    1    1    2  502  501  0.52726793061E+00  0.62997792209E+00  0.42667896429E+01  0.43451556370E+01  0.00000000000E+00 0. -1.
<mgrwt>
<rscale>  1 0.64514425E+03</rscale>
<asrwt>0</asrwt>
<pdfrwt beam="1">  1        1 0.39404747E+00 0.64514425E+03</pdfrwt>
<pdfrwt beam="2">0</pdfrwt>
<totfact> 0.14233200E+00</totfact>
</mgrwt>
</event>
<event>
 6    1  0.4392537E-003  0.6545260E+03  0.7818608E-02  0.9798323E-01
          1   -1    0    0  502    0  0.00000000000E+00  0.00000000000E+00  0.10710109551E+03  0.10710109551E+03  0.00000000000E+00 0.  1.
         13   -1    0    0    0    0 -0.00000000000E+00 -0.00000000000E+00 -0.10000000000E+04  0.10000000000E+04  0.00000000000E+00 0.  1.
    9000005    2    1    2  501    0  0.17851853443E-04 -0.22257340959E-04 -0.89289888962E+03  0.11071010633E+04  0.65452604025E+03 0.  0.
         13    1    3    3    0    0 -0.19246114831E+03 -0.25656732973E+03 -0.33640088388E+03  0.46479419420E+03  0.00000000000E+00 0.  1.
          3    1    3    3  501    0  0.19246116617E+03  0.25656730747E+03 -0.55649800574E+03  0.64230686914E+03  0.00000000000E+00 0.  1.
         21    1    1    2  502  501 -0.17851853430E-04  0.22257341007E-04 -0.14865309175E-04  0.32172275588E-04  0.00000000000E+00 0.  1.
<mgrwt>
<rscale>  1 0.65452604E+03</rscale>
<asrwt>0</asrwt>
<pdfrwt beam="1">  1        1 0.38945935E+00 0.65452604E+03</pdfrwt>
<pdfrwt beam="2">0</pdfrwt>
<totfact> 0.14890221E+00</totfact>
</mgrwt>
</event>
<event>
 6    1  0.4392537E-003  0.5808475E+03  0.7818608E-02  0.9945958E-01
          1   -1    0    0  502    0  0.00000000000E+00  0.00000000000E+00  0.84361785623E+02  0.84361785623E+02  0.00000000000E+00 0.  1.
         13   -1    0    0    0    0 -0.00000000000E+00 -0.00000000000E+00 -0.10000000000E+04  0.10000000000E+04  0.00000000000E+00 0.  1.
    9000005    2    1    2  501    0 -0.61604721792E-03 -0.38356804955E-02 -0.91565379575E+03  0.10843457273E+04  0.58084746926E+03 0.  0.
         13    1    3    3    0    0 -0.57537998466E+01 -0.28298542579E+03 -0.33636828200E+03  0.43961059878E+03  0.00000000000E+00 0.  1.
          1    1    3    3  501    0  0.57531837993E+01  0.28298159011E+03 -0.57928551375E+03  0.64473512848E+03  0.00000000000E+00 0.  1.
         21    1    1    2  502  501  0.61604721792E-03  0.38356804955E-02  0.15581370637E-01  0.16058364486E-01  0.00000000000E+00 0.  1.
<mgrwt>
<rscale>  1 0.58084747E+03</rscale>
<asrwt>0</asrwt>
<pdfrwt beam="1">  1        1 0.30677078E+00 0.58084747E+03</pdfrwt>
<pdfrwt beam="2">0</pdfrwt>
<totfact> 0.34615341E+00</totfact>
</mgrwt>
</event>
<event>
 6    1  0.5282238E-003  0.6396321E+03  0.7818608E-02  0.9826431E-01
          1   -1    0    0  502    0  0.00000000000E+00  0.00000000000E+00  0.10228231249E+03  0.10228231249E+03  0.00000000000E+00 0.  1.
         13   -1    0    0    0    0 -0.00000000000E+00 -0.00000000000E+00 -0.10000000000E+04  0.10000000000E+04  0.00000000000E+00 0.  1.
    9000005    2    1    2  501    0 -0.72977627497E-06 -0.58228593502E-06 -0.89771769111E+03  0.11022823088E+04  0.63963210933E+03 0.  0.
         13    1    3    3    0    0 -0.29346956929E+03  0.89777984434E+02 -0.29378197631E+03  0.42484388214E+03  0.00000000000E+00 0.  1.
          1    1    3    3  501    0  0.29346956856E+03 -0.89777985017E+02 -0.60393571480E+03  0.67743842663E+03  0.00000000000E+00 0.  1.
         21    1    1    2  502  501  0.72977632008E-06  0.58228593420E-06  0.36055002217E-05  0.37244143479E-05  0.00000000000E+00 0. -1.
<mgrwt>
<rscale>  1 0.63963211E+03</rscale>
<asrwt>0</asrwt>
<pdfrwt beam="1">  1        1 0.37193647E+00 0.63963211E+03</pdfrwt>
<pdfrwt beam="2">0</pdfrwt>
<totfact> 0.17841745E+00</totfact>
</mgrwt>
</event>
<event>
 6    1  0.4392537E-003  0.6764697E+03  0.7818608E-02  0.9758340E-01
          1   -1    0    0  502    0  0.00000000000E+00  0.00000000000E+00  0.11440325889E+03  0.11440325889E+03  0.00000000000E+00 0.  1.
         13   -1    0    0    0    0 -0.00000000000E+00 -0.00000000000E+00 -0.10000000000E+04  0.10000000000E+04  0.00000000000E+00 0.  1.
    9000005    2    1    2  501    0  0.87978196461E-05 -0.43713103537E-06 -0.88559717548E+03  0.11144028244E+04  0.67646973168E+03 0.  0.
         13    1    3    3    0    0 -0.27589455969E+03  0.15591499632E+03 -0.24804836836E+03  0.40243668718E+03  0.00000000000E+00 0.  1.
          3    1    3    3  501    0  0.27589456848E+03 -0.15591499676E+03 -0.63754880712E+03  0.71196613725E+03  0.00000000000E+00 0.  1.
         21    1    1    2  502  501 -0.87978196612E-05  0.43713105136E-06  0.43437239371E-03  0.43446170042E-03  0.00000000000E+00 0. -1.
<mgrwt>
<rscale>  1 0.67646973E+03</rscale>
<asrwt>0</asrwt>
<pdfrwt beam="1">  1        1 0.41601273E+00 0.67646973E+03</pdfrwt>
<pdfrwt beam="2">0</pdfrwt>
<totfact> 0.11284960E+00</totfact>
</mgrwt>
</event>
<event>
 6    1  0.4392537E-003  0.6317163E+03  0.7818608E-02  0.9841705E-01
          1   -1    0    0  502    0  0.00000000000E+00  0.00000000000E+00  0.99766823876E+02  0.99766823876E+02  0.00000000000E+00 0.  1.
         13   -1    0    0    0    0 -0.00000000000E+00 -0.00000000000E+00 -0.10000000000E+04  0.10000000000E+04  0.00000000000E+00 0.  1.
    9000005    2    1    2  501    0 -0.83838156783E-03  0.45792565913E-03 -0.90023300461E+03  0.10997658533E+04  0.63171628879E+03 0.  0.
         13    1    3    3    0    0  0.16953203489E+03  0.13513056436E+03 -0.50216929402E+02  0.22253790751E+03  0.00000000000E+00 0.  1.
          3    1    3    3  501    0 -0.16953287328E+03 -0.13513010644E+03 -0.85001607520E+03  0.87722794580E+03  0.00000000000E+00 0.  1.
         21    1    1    2  502  501  0.83838156782E-03 -0.45792565911E-03 -0.17151829384E-03  0.97056585952E-03  0.00000000000E+00 0. -1.
<mgrwt>
<rscale>  1 0.63171629E+03</rscale>
<asrwt>0</asrwt>
<pdfrwt beam="1">  1        1 0.36278922E+00 0.63171629E+03</pdfrwt>
<pdfrwt beam="2">0</pdfrwt>
<totfact> 0.19597003E+00</totfact>
</mgrwt>
</event>
<event>
 6    1  0.4392537E-003  0.6538126E+03  0.7818608E-02  0.9799651E-01
          1   -1    0    0  502    0  0.00000000000E+00  0.00000000000E+00  0.10686829717E+03  0.10686829717E+03  0.00000000000E+00 0.  1.
         13   -1    0    0    0    0 -0.00000000000E+00 -0.00000000000E+00 -0.10000000000E+04  0.10000000000E+04  0.00000000000E+00 0.  1.
    9000005    2    1    2  501    0 -0.58459886816E-04  0.39389439610E-04 -0.89313228122E+03  0.11068677145E+04  0.65381256155E+03 0.  0.
         13    1    3    3    0    0 -0.31535654575E+03  0.89780068445E+01 -0.59158118925E+03  0.67044661162E+03  0.00000000000E+00 0.  1.
          1    1    3    3  501    0  0.31535648729E+03 -0.89779674551E+01 -0.30155109197E+03  0.43642110288E+03  0.00000000000E+00 0.  1.
         21    1    1    2  502  501  0.58459886788E-04 -0.39389439611E-04  0.57839512008E-03  0.58267486752E-03  0.00000000000E+00 0. -1.
<mgrwt>
<rscale>  1 0.65381256E+03</rscale>
<asrwt>0</asrwt>
<pdfrwt beam="1">  1        1 0.38861281E+00 0.65381256E+03</pdfrwt>
<pdfrwt beam="2">0</pdfrwt>
<totfact> 0.15021416E+00</totfact>
</mgrwt>
</event>
<event>
 6    1  0.4392537E-003  0.6515532E+03  0.7818608E-02  0.9803869E-01
          1   -1    0    0  502    0  0.00000000000E+00  0.00000000000E+00  0.10613061937E+03  0.10613061937E+03  0.00000000000E+00 0.  1.
         13   -1    0    0    0    0 -0.00000000000E+00 -0.00000000000E+00 -0.10000000000E+04  0.10000000000E+04  0.00000000000E+00 0.  1.
    9000005    2    1    2  501    0 -0.18735659359E-03  0.13924464324E-03 -0.89386954426E+03  0.11061303343E+04  0.65155318607E+03 0.  0.
         13    1    3    3    0    0  0.15081065419E+03 -0.23980688799E+03 -0.17382862715E+03  0.33236664779E+03  0.00000000000E+00 0.  1.
          3    1    3    3  501    0 -0.15081084154E+03  0.23980702724E+03 -0.72004091711E+03  0.77376368651E+03  0.00000000000E+00 0.  1.
         21    1    1    2  502  501  0.18735659361E-03 -0.13924464322E-03  0.16363187518E-03  0.28507359472E-03  0.00000000000E+00 0.  1.
<mgrwt>
<rscale>  1 0.65155319E+03</rscale>
<asrwt>0</asrwt>
<pdfrwt beam="1">  1        1 0.38593034E+00 0.65155319E+03</pdfrwt>
<pdfrwt beam="2">0</pdfrwt>
<totfact> 0.15444419E+00</totfact>
</mgrwt>
</event>
<event>
 6    1  0.4392537E-003  0.6821480E+03  0.7818608E-02  0.9748258E-01
          1   -1    0    0  502    0  0.00000000000E+00  0.00000000000E+00  0.11633164594E+03  0.11633164594E+03  0.00000000000E+00 0.  1.
         13   -1    0    0    0    0 -0.00000000000E+00 -0.00000000000E+00 -0.10000000000E+04  0.10000000000E+04  0.00000000000E+00 0.  1.
    9000005    2    1    2  501    0  0.17373599428E-03 -0.15499111996E-04 -0.88366848345E+03  0.11163314288E+04  0.68214798263E+03 0.  0.
         13    1    3    3    0    0 -0.66482987591E+02 -0.10034657847E+03 -0.96408378575E+03  0.97156933329E+03  0.00000000000E+00 0.  1.
          3    1    3    3  501    0  0.66483161327E+02  0.10034656297E+03  0.80415302301E+02  0.14476209547E+03  0.00000000000E+00 0.  1.
         21    1    1    2  502  501 -0.17373599429E-03  0.15499111994E-04  0.12939387802E-03  0.21718009543E-03  0.00000000000E+00 0.  1.
<mgrwt>
<rscale>  1 0.68214798E+03</rscale>
<asrwt>0</asrwt>
<pdfrwt beam="1">  1        1 0.42302506E+00 0.68214798E+03</pdfrwt>
<pdfrwt beam="2">0</pdfrwt>
<totfact> 0.10480521E+00</totfact>
</mgrwt>
</event>
<event>
 6    1  0.4392537E-003  0.6495580E+03  0.7818608E-02  0.9807609E-01
          1   -1    0    0  502    0  0.00000000000E+00  0.00000000000E+00  0.10548599752E+03  0.10548599752E+03  0.00000000000E+00 0.  1.
         13   -1    0    0    0    0 -0.00000000000E+00 -0.00000000000E+00 -0.10000000000E+04  0.10000000000E+04  0.00000000000E+00 0.  1.
    9000005    2    1    2  501    0 -0.86570421274E-04 -0.52678568267E-04 -0.89451859874E+03  0.11054814001E+04  0.64955800555E+03 0.  0.
         13    1    3    3    0    0  0.19942553329E+03 -0.25532934402E+03 -0.40853299527E+03  0.52140466575E+03  0.00000000000E+00 0.  1.
          1    1    3    3  501    0 -0.19942561986E+03  0.25532929134E+03 -0.48598560347E+03  0.58407673439E+03  0.00000000000E+00 0.  1.
         21    1    1    2  502  501  0.86570421272E-04  0.52678568268E-04  0.45962584575E-02  0.45973754771E-02  0.00000000000E+00 0. -1.
<mgrwt>
<rscale>  1 0.64955801E+03</rscale>
<asrwt>0</asrwt>
<pdfrwt beam="1">  1        1 0.38358625E+00 0.64955801E+03</pdfrwt>
<pdfrwt beam="2">0</pdfrwt>
<totfact> 0.15823361E+00</totfact>
</mgrwt>
</event>
<event>
 6    1  0.4392537E-003  0.6405198E+03  0.7818608E-02  0.9824732E-01
          1   -1    0    0  502    0  0.00000000000E+00  0.00000000000E+00  0.10256647684E+03  0.10256647684E+03  0.00000000000E+00 0.  1.
         13   -1    0    0    0    0 -0.00000000000E+00 -0.00000000000E+00 -0.10000000000E+04  0.10000000000E+04  0.00000000000E+00 0.  1.
    9000005    2    1    2  501    0  0.22966324309E-06  0.29288001571E-05 -0.89743358717E+03  0.11025664128E+04  0.64051982888E+03 0.  0.
         13    1    3    3    0    0 -0.16627894434E+03 -0.24758071277E+02 -0.91794110620E+03  0.93320818892E+03  0.00000000000E+00 0.  1.
          1    1    3    3  501    0  0.16627894457E+03  0.24758074206E+02  0.20507519028E+02  0.16935822384E+03  0.00000000000E+00 0.  1.
         21    1    1    2  502  501 -0.22966321878E-06 -0.29288001586E-05  0.64002654852E-04  0.64070043263E-04  0.00000000000E+00 0.  1.
<mgrwt>
<rscale>  1 0.64051983E+03</rscale>
<asrwt>0</asrwt>
<pdfrwt beam="1">  1        1 0.37296979E+00 0.64051983E+03</pdfrwt>
<pdfrwt beam="2">0</pdfrwt>
<totfact> 0.17653212E+00</totfact>
</mgrwt>
</event>
<event>
 6    1  0.4392537E-003  0.6953940E+03  0.7818608E-02  0.9725142E-01
          1   -1    0    0  502    0  0.00000000000E+00  0.00000000000E+00  0.13246846956E+03  0.13246846956E+03  0.00000000000E+00 0.  1.
         13   -1    0    0    0    0 -0.00000000000E+00 -0.00000000000E+00 -0.10000000000E+04  0.10000000000E+04  0.00000000000E+00 0.  1.
    9000005    2    1    2  501    0 -0.13736582231E+02  0.57879554338E+01 -0.87342235164E+03  0.11164404973E+04  0.69523419479E+03 0.  0.
         13    1    3    3    0    0  0.25951110388E+03 -0.12296534341E+03 -0.13240730048E+03  0.31622489139E+03  0.00000000000E+00 0.  1.
          1    1    3    3  501    0 -0.27324768611E+03  0.12875329884E+03 -0.74101505116E+03  0.80021560593E+03  0.00000000000E+00 0.  1.
         21    1    1    2  502  501  0.13736582231E+02 -0.57879554338E+01  0.58908212070E+01  0.16027972236E+02  0.00000000000E+00 0.  1.
<mgrwt>
<rscale>  1 0.69539397E+03</rscale>
<asrwt>0</asrwt>
<pdfrwt beam="1">  1        1 0.48170454E+00 0.69539397E+03</pdfrwt>
<pdfrwt beam="2">0</pdfrwt>
<totfact> 0.55974793E-01</totfact>
</mgrwt>
</event>
<event>
 6    1  0.4392537E-003  0.6517013E+03  0.7818608E-02  0.9803592E-01
          1   -1    0    0  502    0  0.00000000000E+00  0.00000000000E+00  0.10617879255E+03  0.10617879255E+03  0.00000000000E+00 0.  1.
         13   -1    0    0    0    0 -0.00000000000E+00 -0.00000000000E+00 -0.10000000000E+04  0.10000000000E+04  0.00000000000E+00 0.  1.
    9000005    2    1    2  501    0  0.30786460676E-03 -0.33247806213E-03 -0.89382053259E+03  0.11061779797E+04  0.65170129527E+03 0.  0.
         13    1    3    3    0    0  0.18853200546E+02  0.85249005142E+02  0.85955139445E+02  0.12251988429E+03  0.00000000000E+00 0.  1.
          1    1    3    3  501    0 -0.18852892682E+02 -0.85249337620E+02 -0.97977567204E+03  0.98365809540E+03  0.00000000000E+00 0.  1.
         21    1    1    2  502  501 -0.30786460676E-03  0.33247806214E-03 -0.67485799898E-03  0.81286874505E-03  0.00000000000E+00 0. -1.
<mgrwt>
<rscale>  1 0.65170130E+03</rscale>
<asrwt>0</asrwt>
<pdfrwt beam="1">  1        1 0.38610551E+00 0.65170130E+03</pdfrwt>
<pdfrwt beam="2">0</pdfrwt>
<totfact> 0.15416452E+00</totfact>
</mgrwt>
</event>
<event>
 6    1  0.4392537E-003  0.6563003E+03  0.7818608E-02  0.9795028E-01
          1   -1    0    0  502    0  0.00000000000E+00  0.00000000000E+00  0.10768253825E+03  0.10768253825E+03  0.00000000000E+00 0.  1.
         13   -1    0    0    0    0 -0.00000000000E+00 -0.00000000000E+00 -0.10000000000E+04  0.10000000000E+04  0.00000000000E+00 0.  1.
    9000005    2    1    2  501    0  0.18361639458E-05  0.29644412507E-05 -0.89231747853E+03  0.11076825211E+04  0.65630030100E+03 0.  0.
         13    1    3    3    0    0  0.23353130505E+01  0.32801106652E+03 -0.43052443439E+03  0.54124671089E+03  0.00000000000E+00 0.  1.
          1    1    3    3  501    0 -0.23353112144E+01 -0.32801106355E+03 -0.46179304414E+03  0.56643581022E+03  0.00000000000E+00 0.  1.
         21    1    1    2  502  501 -0.18361639455E-05 -0.29644412175E-05  0.16776565748E-04  0.17135126731E-04  0.00000000000E+00 0. -1.
<mgrwt>
<rscale>  1 0.65630030E+03</rscale>
<asrwt>0</asrwt>
<pdfrwt beam="1">  1        1 0.39157369E+00 0.65630030E+03</pdfrwt>
<pdfrwt beam="2">0</pdfrwt>
<totfact> 0.14567296E+00</totfact>
</mgrwt>
</event>
<event>
 6    1  0.4392537E-003  0.6458864E+03  0.7818608E-02  0.9814529E-01
          1   -1    0    0  502    0  0.00000000000E+00  0.00000000000E+00  0.10429235152E+03  0.10429235152E+03  0.00000000000E+00 0.  1.
         13   -1    0    0    0    0 -0.00000000000E+00 -0.00000000000E+00 -0.10000000000E+04  0.10000000000E+04  0.00000000000E+00 0.  1.
    9000005    2    1    2  501    0 -0.63017598393E-05 -0.38729901348E-05 -0.89570767643E+03  0.11042923226E+04  0.64588643906E+03 0.  0.
         13    1    3    3    0    0 -0.21637092235E+03  0.23944072448E+03 -0.46837680574E+03  0.56879264124E+03  0.00000000000E+00 0.  1.
          3    1    3    3  501    0  0.21637091604E+03 -0.23944072835E+03 -0.42733087069E+03  0.53549968137E+03  0.00000000000E+00 0.  1.
         21    1    1    2  502  501  0.63017598213E-05  0.38729901433E-05  0.27953669896E-04  0.28915737759E-04  0.00000000000E+00 0.  1.
<mgrwt>
<rscale>  1 0.64588644E+03</rscale>
<asrwt>0</asrwt>
<pdfrwt beam="1">  1        1 0.37924571E+00 0.64588644E+03</pdfrwt>
<pdfrwt beam="2">0</pdfrwt>
<totfact> 0.16548441E+00</totfact>
</mgrwt>
</event>
<event>
 6    1  0.4392537E-003  0.6564980E+03  0.7818608E-02  0.9794662E-01
          1   -1    0    0  502    0  0.00000000000E+00  0.00000000000E+00  0.10774741295E+03  0.10774741295E+03  0.00000000000E+00 0.  1.
         13   -1    0    0    0    0 -0.00000000000E+00 -0.00000000000E+00 -0.10000000000E+04  0.10000000000E+04  0.00000000000E+00 0.  1.
    9000005    2    1    2  501    0 -0.17812936676E-04  0.13761717270E-04 -0.89225254092E+03  0.11077473616E+04  0.65649799724E+03 0.  0.
         13    1    3    3    0    0  0.20569874596E+03 -0.14953766441E+03 -0.95927600168E+02  0.27180064688E+03  0.00000000000E+00 0.  1.
          1    1    3    3  501    0 -0.20569876378E+03  0.14953767818E+03 -0.79632494075E+03  0.83594671473E+03  0.00000000000E+00 0.  1.
         21    1    1    2  502  501  0.17812936681E-04 -0.13761717266E-04 -0.46135701195E-04  0.51334087116E-04  0.00000000000E+00 0.  1.
<mgrwt>
<rscale>  1 0.65649800E+03</rscale>
<asrwt>0</asrwt>
<pdfrwt beam="1">  1        1 0.39180960E+00 0.65649800E+03</pdfrwt>
<pdfrwt beam="2">0</pdfrwt>
<totfact> 0.14531681E+00</totfact>
</mgrwt>
</event>
<event>
 6    1  0.4392537E-003  0.6500293E+03  0.7818608E-02  0.9806724E-01
          1   -1    0    0  502    0  0.00000000000E+00  0.00000000000E+00  0.10563451887E+03  0.10563451887E+03  0.00000000000E+00 0.  1.
         13   -1    0    0    0    0 -0.00000000000E+00 -0.00000000000E+00 -0.10000000000E+04  0.10000000000E+04  0.00000000000E+00 0.  1.
    9000005    2    1    2  501    0  0.11872855737E-04  0.73390293878E-05 -0.89436546384E+03  0.11056344967E+04  0.65002927418E+03 0.  0.
         13    1    3    3    0    0 -0.23589021600E+03 -0.40749012518E+02 -0.82110929215E+03  0.85529243284E+03  0.00000000000E+00 0.  1.
          1    1    3    3  501    0  0.23589022787E+03  0.40749019857E+02 -0.73256171690E+02  0.25034206381E+03  0.00000000000E+00 0.  1.
         21    1    1    2  502  501 -0.11872855722E-04 -0.73390293914E-05 -0.17288484950E-04  0.22219760738E-04  0.00000000000E+00 0.  1.
<mgrwt>
<rscale>  1 0.65002927E+03</rscale>
<asrwt>0</asrwt>
<pdfrwt beam="1">  1        1 0.38412633E+00 0.65002927E+03</pdfrwt>
<pdfrwt beam="2">0</pdfrwt>
<totfact> 0.15735243E+00</totfact>
</mgrwt>
</event>
<event>
 6    1  0.4392537E-003  0.6517193E+03  0.7818608E-02  0.9803558E-01
          1   -1    0    0  502    0  0.00000000000E+00  0.00000000000E+00  0.11030602702E+03  0.11030602702E+03  0.00000000000E+00 0.  1.
         13   -1    0    0    0    0 -0.00000000000E+00 -0.00000000000E+00 -0.10000000000E+04  0.10000000000E+04  0.00000000000E+00 0.  1.
    9000005    2    1    2  501    0 -0.10389195811E+02  0.43836331507E+01 -0.88198158505E+03  0.10966446744E+04  0.65162172600E+03 0.  0.
         13    1    3    3    0    0  0.24145520767E+03  0.13560970913E+03 -0.71605670877E+03  0.76774202743E+03  0.00000000000E+00 0.  1.
          3    1    3    3  501    0 -0.25184440348E+03 -0.13122607598E+03 -0.16592487628E+03  0.32890264692E+03  0.00000000000E+00 0.  1.
         21    1    1    2  502  501  0.10389195811E+02 -0.43836331507E+01 -0.77123879319E+01  0.13661352671E+02  0.00000000000E+00 0.  1.
<mgrwt>
<rscale>  1 0.65171928E+03</rscale>
<asrwt>0</asrwt>
<pdfrwt beam="1">  1        1 0.40111367E+00 0.65171928E+03</pdfrwt>
<pdfrwt beam="2">0</pdfrwt>
<totfact> 0.13222306E+00</totfact>
</mgrwt>
</event>
<event>
 6    1  0.4392537E-003  0.6471063E+03  0.7818608E-02  0.9812224E-01
          3   -1    0    0  502    0  0.00000000000E+00  0.00000000000E+00  0.10474499387E+03  0.10474499387E+03  0.00000000000E+00 0.  1.
         13   -1    0    0    0    0 -0.00000000000E+00 -0.00000000000E+00 -0.10000000000E+04  0.10000000000E+04  0.00000000000E+00 0.  1.
    9000005    2    1    2  501    0 -0.10268672996E-01 -0.66209962851E-01 -0.89529130589E+03  0.11046687910E+04  0.64710633664E+03 0.  0.
         13    1    3    3    0    0  0.30558670771E+02 -0.27766464651E+03 -0.16888331912E+03  0.32642466781E+03  0.00000000000E+00 0.  1.
          1    1    3    3  501    0 -0.30568939444E+02  0.27759843654E+03 -0.72640798677E+03  0.77824412319E+03  0.00000000000E+00 0.  1.
         21    1    1    2  502  501  0.10268672996E-01  0.66209962851E-01  0.36299761102E-01  0.76202870562E-01  0.00000000000E+00 0.  1.
<mgrwt>
<rscale>  1 0.64710634E+03</rscale>
<asrwt>0</asrwt>
<pdfrwt beam="1">  1        3 0.38089169E+00 0.64710634E+03</pdfrwt>
<pdfrwt beam="2">0</pdfrwt>
<totfact> 0.74700884E-02</totfact>
</mgrwt>
</event>
<event>
 6    1  0.4392537E-003  0.6407297E+03  0.7818608E-02  0.9824331E-01
          1   -1    0    0  502    0  0.00000000000E+00  0.00000000000E+00  0.10850985341E+03  0.10850985341E+03  0.00000000000E+00 0.  1.
         13   -1    0    0    0    0 -0.00000000000E+00 -0.00000000000E+00 -0.10000000000E+04  0.10000000000E+04  0.00000000000E+00 0.  1.
    9000005    2    1    2  501    0  0.44496640072E-01  0.10808828238E+00 -0.89736572869E+03  0.11026331087E+04  0.64072966824E+03 0.  0.
         13    1    3    3    0    0 -0.24180996855E+02  0.16193045249E+03  0.25213642677E+02  0.16565602866E+03  0.00000000000E+00 0.  1.
          3    1    3    3  501    0  0.24225493495E+02 -0.16182236421E+03 -0.92257937137E+03  0.93697708007E+03  0.00000000000E+00 0.  1.
         21    1    1    2  502  501 -0.44496640072E-01 -0.10808828238E+00  0.58755821011E+01  0.58767446818E+01  0.00000000000E+00 0.  1.
<mgrwt>
<rscale>  1 0.64072968E+03</rscale>
<asrwt>0</asrwt>
<pdfrwt beam="1">  1        1 0.39458212E+00 0.64072968E+03</pdfrwt>
<pdfrwt beam="2">0</pdfrwt>
<totfact> 0.14167447E+00</totfact>
</mgrwt>
</event>
<event>
 6    1  0.4392537E-003  0.6437221E+03  0.7818608E-02  0.9818631E-01
          1   -1    0    0  502    0  0.00000000000E+00  0.00000000000E+00  0.10874206501E+03  0.10874206501E+03  0.00000000000E+00 0.  1.
         13   -1    0    0    0    0 -0.00000000000E+00 -0.00000000000E+00 -0.10000000000E+04  0.10000000000E+04  0.00000000000E+00 0.  1.
    9000005    2    1    2  501    0 -0.23786008186E+00  0.43189203475E+00 -0.89639242970E+03  0.11035839506E+04  0.64372191583E+03 0.  0.
         13    1    3    3    0    0  0.30918012208E+03  0.66931180207E+02 -0.34699962024E+03  0.46955390236E+03  0.00000000000E+00 0.  1.
          3    1    3    3  501    0 -0.30941798216E+03 -0.66499288172E+02 -0.54939280946E+03  0.63403004826E+03  0.00000000000E+00 0.  1.
         21    1    1    2  502  501  0.23786008186E+00 -0.43189203475E+00  0.51344947167E+01  0.51581143981E+01  0.00000000000E+00 0. -1.
<mgrwt>
<rscale>  1 0.64372210E+03</rscale>
<asrwt>0</asrwt>
<pdfrwt beam="1">  1        1 0.39542652E+00 0.64372210E+03</pdfrwt>
<pdfrwt beam="2">0</pdfrwt>
<totfact> 0.14037554E+00</totfact>
</mgrwt>
</event>
<event>
 6    1  0.4392537E-003  0.6494427E+03  0.7818608E-02  0.9807826E-01
          3   -1    0    0  502    0  0.00000000000E+00  0.00000000000E+00  0.10544418076E+03  0.10544418076E+03  0.00000000000E+00 0.  1.
         13   -1    0    0    0    0 -0.00000000000E+00 -0.00000000000E+00 -0.10000000000E+04  0.10000000000E+04  0.00000000000E+00 0.  1.
    9000005    2    1    2  501    0  0.49544468652E-05  0.52391491039E-05 -0.89455605768E+03  0.11054439422E+04  0.64944266031E+03 0.  0.
         13    1    3    3    0    0 -0.27635125606E+03  0.10489076219E+03 -0.21845630466E+03  0.36755305163E+03  0.00000000000E+00 0.  1.
          1    1    3    3  501    0  0.27635126101E+03 -0.10489075695E+03 -0.67609975302E+03  0.73789089058E+03  0.00000000000E+00 0.  1.
         21    1    1    2  502  501 -0.49544468650E-05 -0.52391490952E-05  0.23844511249E-03  0.23855411734E-03  0.00000000000E+00 0.  1.
<mgrwt>
<rscale>  1 0.64944266E+03</rscale>
<asrwt>0</asrwt>
<pdfrwt beam="1">  1        3 0.38343419E+00 0.64944266E+03</pdfrwt>
<pdfrwt beam="2">0</pdfrwt>
<totfact> 0.72399989E-02</totfact>
</mgrwt>
</event>
<event>
 6    1  0.4392537E-003  0.7246910E+03  0.7818608E-02  0.9675915E-01
          1   -1    0    0  502    0  0.00000000000E+00  0.00000000000E+00  0.13129935516E+03  0.13129935516E+03  0.00000000000E+00 0.  1.
         13   -1    0    0    0    0 -0.00000000000E+00 -0.00000000000E+00 -0.10000000000E+04  0.10000000000E+04  0.00000000000E+00 0.  1.
    9000005    2    1    2  501    0  0.61308167585E-03  0.36262535360E-04 -0.86870573147E+03  0.11312942316E+04  0.72469096209E+03 0.  0.
         13    1    3    3    0    0 -0.27334687939E+03  0.19319195574E+03 -0.65095616679E+03  0.73197375590E+03  0.00000000000E+00 0.  1.
          3    1    3    3  501    0  0.27334749247E+03 -0.19319191948E+03 -0.21774956468E+03  0.39932047569E+03  0.00000000000E+00 0.  1.
         21    1    1    2  502  501 -0.61308167586E-03 -0.36262535342E-04  0.50866279108E-02  0.51235698117E-02  0.00000000000E+00 0.  1.
<mgrwt>
<rscale>  1 0.72469096E+03</rscale>
<asrwt>0</asrwt>
<pdfrwt beam="1">  1        1 0.47745321E+00 0.72469096E+03</pdfrwt>
<pdfrwt beam="2">0</pdfrwt>
<totfact> 0.58280128E-01</totfact>
</mgrwt>
</event>
<event>
 6    1  0.4392537E-003  0.6521528E+03  0.7818608E-02  0.9802748E-01
          1   -1    0    0  502    0  0.00000000000E+00  0.00000000000E+00  0.10632943202E+03  0.10632943202E+03  0.00000000000E+00 0.  1.
         13   -1    0    0    0    0 -0.00000000000E+00 -0.00000000000E+00 -0.10000000000E+04  0.10000000000E+04  0.00000000000E+00 0.  1.
    9000005    2    1    2  501    0 -0.38463209665E-02  0.53728471156E-03 -0.89367301005E+03  0.11063248444E+04  0.65215275232E+03 0.  0.
         13    1    3    3    0    0 -0.28741913317E+03 -0.15345202481E+03 -0.42474972394E+03  0.53532196856E+03  0.00000000000E+00 0.  1.
          1    1    3    3  501    0  0.28741528685E+03  0.15345256210E+03 -0.46892328610E+03  0.57100287581E+03  0.00000000000E+00 0.  1.
         21    1    1    2  502  501  0.38463209664E-02 -0.53728471156E-03  0.24420641950E-02  0.45876505284E-02  0.00000000000E+00 0. -1.
<mgrwt>
<rscale>  1 0.65215275E+03</rscale>
<asrwt>0</asrwt>
<pdfrwt beam="1">  1        1 0.38665330E+00 0.65215275E+03</pdfrwt>
<pdfrwt beam="2">0</pdfrwt>
<totfact> 0.15329341E+00</totfact>
</mgrwt>
</event>
<event>
 6    1  0.4392537E-003  0.6560979E+03  0.7818608E-02  0.9795404E-01
          1   -1    0    0  502    0  0.00000000000E+00  0.00000000000E+00  0.10766531005E+03  0.10766531005E+03  0.00000000000E+00 0.  1.
         13   -1    0    0    0    0 -0.00000000000E+00 -0.00000000000E+00 -0.10000000000E+04  0.10000000000E+04  0.00000000000E+00 0.  1.
    9000005    2    1    2  501    0  0.47422698970E-03 -0.16474958183E-02 -0.89238388388E+03  0.11076160863E+04  0.65609785727E+03 0.  0.
         13    1    3    3    0    0 -0.42564978978E+02  0.41557950709E+02 -0.99081776133E+03  0.99260197304E+03  0.00000000000E+00 0.  1.
          3    1    3    3  501    0  0.42565453205E+02 -0.41559598205E+02  0.98433877452E+02  0.11501411322E+03  0.00000000000E+00 0.  1.
         21    1    1    2  502  501 -0.47422698970E-03  0.16474958183E-02  0.49193929748E-01  0.49223793614E-01  0.00000000000E+00 0. -1.
<mgrwt>
<rscale>  1 0.65609786E+03</rscale>
<asrwt>0</asrwt>
<pdfrwt beam="1">  1        1 0.39151104E+00 0.65609786E+03</pdfrwt>
<pdfrwt beam="2">0</pdfrwt>
<totfact> 0.14577174E+00</totfact>
</mgrwt>
</event>
<event>
 6    1  0.4392537E-003  0.6312903E+03  0.7818608E-02  0.9842534E-01
          3   -1    0    0  502    0  0.00000000000E+00  0.00000000000E+00  0.99632136670E+02  0.99632136670E+02  0.00000000000E+00 0.  1.
         13   -1    0    0    0    0 -0.00000000000E+00 -0.00000000000E+00 -0.10000000000E+04  0.10000000000E+04  0.00000000000E+00 0.  1.
    9000005    2    1    2  501    0  0.59120733056E-05 -0.42513823587E-04 -0.90036814436E+03  0.10996318524E+04  0.63129027825E+03 0.  0.
         13    1    3    3    0    0 -0.91619738121E+02  0.29806517276E+03 -0.53542618886E+03  0.61961135185E+03  0.00000000000E+00 0.  1.
          3    1    3    3  501    0  0.91619744033E+02 -0.29806521527E+03 -0.36494195550E+03  0.48002050054E+03  0.00000000000E+00 0.  1.
         21    1    1    2  502  501 -0.59120733052E-05  0.42513823596E-04  0.28102490216E-03  0.28428396620E-03  0.00000000000E+00 0.  1.
<mgrwt>
<rscale>  1 0.63129028E+03</rscale>
<asrwt>0</asrwt>
<pdfrwt beam="1">  1        3 0.36229944E+00 0.63129028E+03</pdfrwt>
<pdfrwt beam="2">0</pdfrwt>
<totfact> 0.93950680E-02</totfact>
</mgrwt>
</event>
<event>
 6    1  0.4392537E-003  0.6495361E+03  0.7818608E-02  0.9807650E-01
          1   -1    0    0  502    0  0.00000000000E+00  0.00000000000E+00  0.10552513580E+03  0.10552513580E+03  0.00000000000E+00 0.  1.
         13   -1    0    0    0    0 -0.00000000000E+00 -0.00000000000E+00 -0.10000000000E+04  0.10000000000E+04  0.00000000000E+00 0.  1.
    9000005    2    1    2  501    0 -0.32342842041E-01 -0.40880618014E-01 -0.89451049151E+03  0.11054619964E+04  0.64953614468E+03 0.  0.
         13    1    3    3    0    0  0.26216565744E+02 -0.29136917813E+03 -0.68737721880E+03  0.74704132898E+03  0.00000000000E+00 0.  1.
          3    1    3    3  501    0 -0.26248908586E+02  0.29132829751E+03 -0.20713327272E+03  0.35842066737E+03  0.00000000000E+00 0.  1.
         21    1    1    2  502  501  0.32342842041E-01  0.40880618014E-01  0.35627315272E-01  0.63139448477E-01  0.00000000000E+00 0.  1.
<mgrwt>
<rscale>  1 0.64953615E+03</rscale>
<asrwt>0</asrwt>
<pdfrwt beam="1">  1        1 0.38372858E+00 0.64953615E+03</pdfrwt>
<pdfrwt beam="2">0</pdfrwt>
<totfact> 0.15800520E+00</totfact>
</mgrwt>
</event>
<event>
 6    1  0.6347404E-003  0.6465799E+03  0.7818608E-02  0.9813218E-01
          1   -1    0    0  502    0  0.00000000000E+00  0.00000000000E+00  0.10451639660E+03  0.10451639660E+03  0.00000000000E+00 0.  1.
         13   -1    0    0    0    0 -0.00000000000E+00 -0.00000000000E+00 -0.10000000000E+04  0.10000000000E+04  0.00000000000E+00 0.  1.
    9000005    2    1    2  501    0 -0.48915404136E-05 -0.14808657909E-05 -0.89548360426E+03  0.11045163914E+04  0.64657990490E+03 0.  0.
         13    1    3    3    0    0  0.28876447728E+03  0.10096496064E+03 -0.62639462551E+03  0.69710047589E+03  0.00000000000E+00 0.  1.
          3    1    3    3  501    0 -0.28876448218E+03 -0.10096496212E+03 -0.26908897874E+03  0.40741591553E+03  0.00000000000E+00 0.  1.
         21    1    1    2  502  501  0.48915404222E-05  0.14808658004E-05  0.86189418865E-06  0.51829521330E-05  0.00000000000E+00 0.  1.
<mgrwt>
<rscale>  1 0.64657990E+03</rscale>
<asrwt>0</asrwt>
<pdfrwt beam="1">  1        1 0.38006043E+00 0.64657990E+03</pdfrwt>
<pdfrwt beam="2">0</pdfrwt>
<totfact> 0.16409965E+00</totfact>
</mgrwt>
</event>
<event>
 6    1  0.4392537E-003  0.6580698E+03  0.7818608E-02  0.9791754E-01
          1   -1    0    0  502    0  0.00000000000E+00  0.00000000000E+00  0.10826773190E+03  0.10826773190E+03  0.00000000000E+00 0.  1.
         13   -1    0    0    0    0 -0.00000000000E+00 -0.00000000000E+00 -0.10000000000E+04  0.10000000000E+04  0.00000000000E+00 0.  1.
    9000005    2    1    2  501    0  0.10385566309E-02  0.53398631394E-04 -0.89173596953E+03  0.11082638872E+04  0.65806975635E+03 0.  0.
         13    1    3    3    0    0 -0.23585498084E+03 -0.22402935238E+03 -0.36255964934E+03  0.48709980707E+03  0.00000000000E+00 0.  1.
          1    1    3    3  501    0  0.23585601940E+03  0.22402940578E+03 -0.52917632019E+03  0.62116408009E+03  0.00000000000E+00 0.  1.
         21    1    1    2  502  501 -0.10385566309E-02 -0.53398631390E-04  0.37014318466E-02  0.38447430349E-02  0.00000000000E+00 0.  1.
<mgrwt>
<rscale>  1 0.65806976E+03</rscale>
<asrwt>0</asrwt>
<pdfrwt beam="1">  1        1 0.39370167E+00 0.65806976E+03</pdfrwt>
<pdfrwt beam="2">0</pdfrwt>
<totfact> 0.14249040E+00</totfact>
</mgrwt>
</event>
<event>
 6    1  0.4392537E-003  0.6486910E+03  0.7818608E-02  0.9809239E-01
          1   -1    0    0  502    0  0.00000000000E+00  0.00000000000E+00  0.10533454994E+03  0.10533454994E+03  0.00000000000E+00 0.  1.
         13   -1    0    0    0    0 -0.00000000000E+00 -0.00000000000E+00 -0.10000000000E+04  0.10000000000E+04  0.00000000000E+00 0.  1.
    9000005    2    1    2  501    0  0.11353464163E+00  0.36321540084E+00 -0.89437453551E+03  0.11048555439E+04  0.64869084950E+03 0.  0.
         13    1    3    3    0    0  0.13624347558E+03  0.26968790682E+02  0.52050684092E+02  0.14832017402E+03  0.00000000000E+00 0.  1.
          3    1    3    3  501    0 -0.13612994093E+03 -0.26605575281E+02 -0.94642521960E+03  0.95653536984E+03  0.00000000000E+00 0.  1.
         21    1    1    2  502  501 -0.11353464163E+00 -0.36321540084E+00 -0.29091455013E+00  0.47900607276E+00  0.00000000000E+00 0.  1.
<mgrwt>
<rscale>  1 0.64869096E+03</rscale>
<asrwt>0</asrwt>
<pdfrwt beam="1">  1        1 0.38303553E+00 0.64869096E+03</pdfrwt>
<pdfrwt beam="2">0</pdfrwt>
<totfact> 0.15914831E+00</totfact>
</mgrwt>
</event>
<event>
 6    1  0.4392537E-003  0.6409843E+03  0.7818608E-02  0.9823845E-01
          1   -1    0    0  502    0  0.00000000000E+00  0.00000000000E+00  0.11536600885E+03  0.11536600885E+03  0.00000000000E+00 0.  1.
         13   -1    0    0    0    0 -0.00000000000E+00 -0.00000000000E+00 -0.10000000000E+04  0.10000000000E+04  0.00000000000E+00 0.  1.
    9000005    2    1    2  501    0 -0.36812001772E+02  0.82372715034E+01 -0.84558329989E+03  0.10610711417E+04  0.63987332691E+03 0.  0.
         13    1    3    3    0    0  0.44935123171E+02  0.16394177314E+03 -0.86736738778E+03  0.88386778178E+03  0.00000000000E+00 0.  1.
          1    1    3    3  501    0 -0.81747124943E+02 -0.15570450164E+03  0.21784087895E+02  0.17720335988E+03  0.00000000000E+00 0.  1.
         21    1    1    2  502  501  0.36812001772E+02 -0.82372715034E+01 -0.39050691260E+02  0.54294867199E+02  0.00000000000E+00 0.  1.
<mgrwt>
<rscale>  1 0.64098428E+03</rscale>
<asrwt>0</asrwt>
<pdfrwt beam="1">  1        1 0.41951364E+00 0.64098428E+03</pdfrwt>
<pdfrwt beam="2">0</pdfrwt>
<totfact> 0.10957902E+00</totfact>
</mgrwt>
</event>
<event>
 6    1  0.4392537E-003  0.6506511E+03  0.7818608E-02  0.9805558E-01
          1   -1    0    0  502    0  0.00000000000E+00  0.00000000000E+00  0.10583809007E+03  0.10583809007E+03  0.00000000000E+00 0.  1.
         13   -1    0    0    0    0 -0.00000000000E+00 -0.00000000000E+00 -0.10000000000E+04  0.10000000000E+04  0.00000000000E+00 0.  1.
    9000005    2    1    2  501    0 -0.62726297941E-04  0.64845783470E-04 -0.89416328140E+03  0.11058367156E+04  0.65065111070E+03 0.  0.
         13    1    3    3    0    0  0.10691610460E+03 -0.21369394152E+03 -0.82230335043E+03  0.85631708741E+03  0.00000000000E+00 0.  1.
          1    1    3    3  501    0 -0.10691616732E+03  0.21369400636E+03 -0.71859930969E+02  0.24951962823E+03  0.00000000000E+00 0.  1.
         21    1    1    2  502  501  0.62726297938E-04 -0.64845783494E-04  0.13714648539E-02  0.13744291214E-02  0.00000000000E+00 0. -1.
<mgrwt>
<rscale>  1 0.65065111E+03</rscale>
<asrwt>0</asrwt>
<pdfrwt beam="1">  1        1 0.38486659E+00 0.65065111E+03</pdfrwt>
<pdfrwt beam="2">0</pdfrwt>
<totfact> 0.15615292E+00</totfact>
</mgrwt>
</event>
<event>
 6    1  0.4392537E-003  0.6664536E+03  0.7818608E-02  0.9776386E-01
          3   -1    0    0  502    0  0.00000000000E+00  0.00000000000E+00  0.11330567139E+03  0.11330567139E+03  0.00000000000E+00 0.  1.
         13   -1    0    0    0    0 -0.00000000000E+00 -0.00000000000E+00 -0.10000000000E+04  0.10000000000E+04  0.00000000000E+00 0.  1.
    9000005    2    1    2  501    0 -0.30399594698E+00  0.16602169273E+00 -0.88894517699E+03  0.11110283275E+04  0.66645352190E+03 0.  0.
         13    1    3    3    0    0  0.33084985050E+03  0.12327744668E+02 -0.50502498535E+03  0.60387402055E+03  0.00000000000E+00 0.  1.
          3    1    3    3  501    0 -0.33115384644E+03 -0.12161722975E+02 -0.38392019163E+03  0.50715430696E+03  0.00000000000E+00 0.  1.
         21    1    1    2  502  501  0.30399594698E+00 -0.16602169273E+00  0.22508483761E+01  0.22773438806E+01  0.00000000000E+00 0.  1.
<mgrwt>
<rscale>  1 0.66645361E+03</rscale>
<asrwt>0</asrwt>
<pdfrwt beam="1">  1        3 0.41202149E+00 0.66645361E+03</pdfrwt>
<pdfrwt beam="2">0</pdfrwt>
<totfact> 0.51119521E-02</totfact>
</mgrwt>
</event>
<event>
 6    1  0.4392537E-003  0.6517223E+03  0.7818608E-02  0.9803553E-01
          1   -1    0    0  502    0  0.00000000000E+00  0.00000000000E+00  0.10633988968E+03  0.10633988968E+03  0.00000000000E+00 0.  1.
         13   -1    0    0    0    0 -0.00000000000E+00 -0.00000000000E+00 -0.10000000000E+04  0.10000000000E+04  0.00000000000E+00 0.  1.
    9000005    2    1    2  501    0  0.10793079364E-01  0.12811945649E-01 -0.89381400964E+03  0.11061850813E+04  0.65172229514E+03 0.  0.
         13    1    3    3    0    0  0.28110389986E+03  0.16362808525E+03 -0.41309605244E+03  0.52577742567E+03  0.00000000000E+00 0.  1.
          3    1    3    3  501    0 -0.28109310679E+03 -0.16361527330E+03 -0.48071795720E+03  0.58040765563E+03  0.00000000000E+00 0.  1.
         21    1    1    2  502  501 -0.10793079364E-01 -0.12811945649E-01  0.15389931472E+00  0.15480838344E+00  0.00000000000E+00 0.  1.
<mgrwt>
<rscale>  1 0.65172230E+03</rscale>
<asrwt>0</asrwt>
<pdfrwt beam="1">  1        1 0.38669132E+00 0.65172230E+03</pdfrwt>
<pdfrwt beam="2">0</pdfrwt>
<totfact> 0.15324620E+00</totfact>
</mgrwt>
</event>
<event>
 6    1  0.4392537E-003  0.6467284E+03  0.7818608E-02  0.9812938E-01
          1   -1    0    0  502    0  0.00000000000E+00  0.00000000000E+00  0.10464532403E+03  0.10464532403E+03  0.00000000000E+00 0.  1.
         13   -1    0    0    0    0 -0.00000000000E+00 -0.00000000000E+00 -0.10000000000E+04  0.10000000000E+04  0.00000000000E+00 0.  1.
    9000005    2    1    2  501    0 -0.61281325100E-03 -0.49163240457E-02 -0.89543550412E+03  0.11045643442E+04  0.64672841933E+03 0.  0.
         13    1    3    3    0    0 -0.28722035311E+03 -0.59446901863E+02 -0.21519344510E+03  0.36378246824E+03  0.00000000000E+00 0.  1.
          3    1    3    3  501    0  0.28721974030E+03  0.59441985539E+02 -0.68024205902E+03  0.74078187594E+03  0.00000000000E+00 0.  1.
         21    1    1    2  502  501  0.61281325096E-03  0.49163240457E-02  0.80828155727E-01  0.80979852682E-01  0.00000000000E+00 0.  1.
<mgrwt>
<rscale>  1 0.64672842E+03</rscale>
<asrwt>0</asrwt>
<pdfrwt beam="1">  1        1 0.38052925E+00 0.64672842E+03</pdfrwt>
<pdfrwt beam="2">0</pdfrwt>
<totfact> 0.16331532E+00</totfact>
</mgrwt>
</event>
<event>
 6    1  0.4392537E-003  0.5552318E+03  0.7818608E-02  0.1000290E+00
          1   -1    0    0  502    0  0.00000000000E+00  0.00000000000E+00  0.77071023873E+02  0.77071023873E+02  0.00000000000E+00 0.  1.
         13   -1    0    0    0    0 -0.00000000000E+00 -0.00000000000E+00 -0.10000000000E+04  0.10000000000E+04  0.00000000000E+00 0.  1.
    9000005    2    1    2  501    0  0.69021649949E-04  0.37116009210E-04 -0.92292939446E+03  0.10770705983E+04  0.55523184930E+03 0.  0.
         13    1    3    3    0    0  0.25830372138E+03 -0.94037618226E+02 -0.53676344297E+03  0.60305794070E+03  0.00000000000E+00 0.  1.
          3    1    3    3  501    0 -0.25830365236E+03  0.94037655342E+02 -0.38616595149E+03  0.47401265757E+03  0.00000000000E+00 0.  1.
         21    1    1    2  502  501 -0.69021649911E-04 -0.37116009206E-04  0.41833305520E-03  0.42561030459E-03  0.00000000000E+00 0. -1.
<mgrwt>
<rscale>  1 0.55523185E+03</rscale>
<asrwt>0</asrwt>
<pdfrwt beam="1">  1        1 0.28025886E+00 0.55523185E+03</pdfrwt>
<pdfrwt beam="2">0</pdfrwt>
<totfact> 0.45247538E+00</totfact>
</mgrwt>
</event>
<event>
 6    1  0.4392537E-003  0.6087147E+03  0.7818608E-02  0.9887489E-01
          1   -1    0    0  502    0  0.00000000000E+00  0.00000000000E+00  0.92635042153E+02  0.92635042153E+02  0.00000000000E+00 0.  1.
         13   -1    0    0    0    0 -0.00000000000E+00 -0.00000000000E+00 -0.10000000000E+04  0.10000000000E+04  0.00000000000E+00 0.  1.
    9000005    2    1    2  501    0  0.16906411724E-03  0.71379395479E-04 -0.90736659049E+03  0.10926333992E+04  0.60871472429E+03 0.  0.
         13    1    3    3    0    0  0.24012149544E+03  0.17159729356E+03 -0.58715946703E+03  0.65716071356E+03  0.00000000000E+00 0.  1.
          1    1    3    3  501    0 -0.24012132638E+03 -0.17159722218E+03 -0.32020712347E+03  0.43547268566E+03  0.00000000000E+00 0.  1.
         21    1    1    2  502  501 -0.16906411725E-03 -0.71379395479E-04  0.16326452741E-02  0.16429267436E-02  0.00000000000E+00 0.  1.
<mgrwt>
<rscale>  1 0.60871472E+03</rscale>
<asrwt>0</asrwt>
<pdfrwt beam="1">  1        1 0.33685541E+00 0.60871472E+03</pdfrwt>
<pdfrwt beam="2">0</pdfrwt>
<totfact> 0.25526261E+00</totfact>
</mgrwt>
</event>
<event>
 6    1  0.4392537E-003  0.6502451E+03  0.7818608E-02  0.9806319E-01
          1   -1    0    0  502    0  0.00000000000E+00  0.00000000000E+00  0.10577231294E+03  0.10577231294E+03  0.00000000000E+00 0.  1.
         13   -1    0    0    0    0 -0.00000000000E+00 -0.00000000000E+00 -0.10000000000E+04  0.10000000000E+04  0.00000000000E+00 0.  1.
    9000005    2    1    2  501    0  0.21078182219E-02  0.25325640497E-02 -0.89429527682E+03  0.11057046429E+04  0.65024511934E+03 0.  0.
         13    1    3    3    0    0 -0.16621669429E+03 -0.15285157413E+03 -0.84489106067E+03  0.87454702423E+03  0.00000000000E+00 0.  1.
          1    1    3    3  501    0  0.16621880210E+03  0.15285410670E+03 -0.49404216141E+02  0.23115761869E+03  0.00000000000E+00 0.  1.
         21    1    1    2  502  501 -0.21078182219E-02 -0.25325640497E-02  0.67589759920E-01  0.67670026041E-01  0.00000000000E+00 0. -1.
<mgrwt>
<rscale>  1 0.65024512E+03</rscale>
<asrwt>0</asrwt>
<pdfrwt beam="1">  1        1 0.38462740E+00 0.65024512E+03</pdfrwt>
<pdfrwt beam="2">0</pdfrwt>
<totfact> 0.15654547E+00</totfact>
</mgrwt>
</event>
<event>
 6    1  0.4392537E-003  0.6480453E+03  0.7818608E-02  0.9810454E-01
          3   -1    0    0  502    0  0.00000000000E+00  0.00000000000E+00  0.10499078258E+03  0.10499078258E+03  0.00000000000E+00 0.  1.
         13   -1    0    0    0    0 -0.00000000000E+00 -0.00000000000E+00 -0.10000000000E+04  0.10000000000E+04  0.00000000000E+00 0.  1.
    9000005    2    1    2  501    0  0.12868514233E-04  0.89738832401E-05 -0.89500931734E+03  0.11049906814E+04  0.64804531319E+03 0.  0.
         13    1    3    3    0    0 -0.12644022520E+03 -0.23670804081E+03 -0.13788287839E+03  0.30171097973E+03  0.00000000000E+00 0.  1.
          3    1    3    3  501    0  0.12644023807E+03  0.23670804979E+03 -0.75712643894E+03  0.80327970171E+03  0.00000000000E+00 0.  1.
         21    1    1    2  502  501 -0.12868514238E-04 -0.89738832499E-05  0.99919197102E-04  0.10114333981E-03  0.00000000000E+00 0. -1.
<mgrwt>
<rscale>  1 0.64804531E+03</rscale>
<asrwt>0</asrwt>
<pdfrwt beam="1">  1        3 0.38178547E+00 0.64804531E+03</pdfrwt>
<pdfrwt beam="2">0</pdfrwt>
<totfact> 0.73882148E-02</totfact>
</mgrwt>
</event>
<event>
 6    1  0.4392537E-003  0.6447081E+03  0.7818608E-02  0.9816760E-01
          1   -1    0    0  502    0  0.00000000000E+00  0.00000000000E+00  0.10395872490E+03  0.10395872490E+03  0.00000000000E+00 0.  1.
         13   -1    0    0    0    0 -0.00000000000E+00 -0.00000000000E+00 -0.10000000000E+04  0.10000000000E+04  0.00000000000E+00 0.  1.
    9000005    2    1    2  501    0 -0.10359763534E-01 -0.29009905913E-01 -0.89608216629E+03  0.11039075293E+04  0.64470813827E+03 0.  0.
         13    1    3    3    0    0 -0.79457484631E+01 -0.11913178164E+03  0.64658371248E+02  0.13578004746E+03  0.00000000000E+00 0.  1.
          3    1    3    3  501    0  0.79353886996E+01  0.11910277173E+03 -0.96074053754E+03  0.96812748185E+03  0.00000000000E+00 0.  1.
         21    1    1    2  502  501  0.10359763534E-01  0.29009905913E-01  0.40891192754E-01  0.51195595380E-01  0.00000000000E+00 0. -1.
<mgrwt>
<rscale>  1 0.64470814E+03</rscale>
<asrwt>0</asrwt>
<pdfrwt beam="1">  1        1 0.37803252E+00 0.64470814E+03</pdfrwt>
<pdfrwt beam="2">0</pdfrwt>
<totfact> 0.16757159E+00</totfact>
</mgrwt>
</event>
<event>
 6    1  0.4392537E-003  0.6444802E+03  0.7818608E-02  0.9817192E-01
          1   -1    0    0  502    0  0.00000000000E+00  0.00000000000E+00  0.10383869093E+03  0.10383869093E+03  0.00000000000E+00 0.  1.
         13   -1    0    0    0    0 -0.00000000000E+00 -0.00000000000E+00 -0.10000000000E+04  0.10000000000E+04  0.00000000000E+00 0.  1.
    9000005    2    1    2  501    0 -0.10708569675E-06 -0.14925342384E-05 -0.89616131502E+03  0.11038386848E+04  0.64448020878E+03 0.  0.
         13    1    3    3    0    0  0.11451240850E+03 -0.26961289888E+03 -0.21807007628E+03  0.36518319391E+03  0.00000000000E+00 0.  1.
          3    1    3    3  501    0 -0.11451240860E+03  0.26961289739E+03 -0.67809123874E+03  0.73865549088E+03  0.00000000000E+00 0.  1.
         21    1    1    2  502  501  0.10708570052E-06  0.14925342610E-05  0.59492250337E-05  0.61345256026E-05  0.00000000000E+00 0.  1.
<mgrwt>
<rscale>  1 0.64448021E+03</rscale>
<asrwt>0</asrwt>
<pdfrwt beam="1">  1        1 0.37759604E+00 0.64448021E+03</pdfrwt>
<pdfrwt beam="2">0</pdfrwt>
<totfact> 0.16832259E+00</totfact>
</mgrwt>
</event>
<event>
 6    1  0.4392537E-003  0.6611607E+03  0.7818608E-02  0.9786059E-01
          1   -1    0    0  502    0  0.00000000000E+00  0.00000000000E+00  0.10928375733E+03  0.10928375733E+03  0.00000000000E+00 0.  1.
         13   -1    0    0    0    0 -0.00000000000E+00 -0.00000000000E+00 -0.10000000000E+04  0.10000000000E+04  0.00000000000E+00 0.  1.
    9000005    2    1    2  501    0 -0.41134978230E-03 -0.15133422181E-04 -0.89071651165E+03  0.11092832656E+04  0.66116069094E+03 0.  0.
         13    1    3    3    0    0  0.18258205966E+03 -0.20042205359E+03 -0.12800410633E+03  0.29981704306E+03  0.00000000000E+00 0.  1.
          3    1    3    3  501    0 -0.18258247101E+03  0.20042203846E+03 -0.76271240532E+03  0.80946622255E+03  0.00000000000E+00 0.  1.
         21    1    1    2  502  501  0.41134978231E-03  0.15133422189E-04  0.26897910708E-03  0.49171884642E-03  0.00000000000E+00 0. -1.
<mgrwt>
<rscale>  1 0.66116069E+03</rscale>
<asrwt>0</asrwt>
<pdfrwt beam="1">  1        1 0.39739632E+00 0.66116069E+03</pdfrwt>
<pdfrwt beam="2">0</pdfrwt>
<totfact> 0.13712007E+00</totfact>
</mgrwt>
</event>
<event>
 6    1  0.4392537E-003  0.6480142E+03  0.7818608E-02  0.9810512E-01
          1   -1    0    0  502    0  0.00000000000E+00  0.00000000000E+00  0.10683091003E+03  0.10683091003E+03  0.00000000000E+00 0.  1.
         13   -1    0    0    0    0 -0.00000000000E+00 -0.00000000000E+00 -0.10000000000E+04  0.10000000000E+04  0.00000000000E+00 0.  1.
    9000005    2    1    2  501    0  0.16111028202E+01 -0.13699030289E+01 -0.89432701534E+03  0.11044198775E+04  0.64801078942E+03 0.  0.
         13    1    3    3    0    0 -0.69827128994E+02 -0.23378571769E+03 -0.83441272796E+02  0.25786437471E+03  0.00000000000E+00 0.  1.
          1    1    3    3  501    0  0.71438231815E+02  0.23241581467E+03 -0.81088574254E+03  0.84655550281E+03  0.00000000000E+00 0.  1.
         21    1    1    2  502  501 -0.16111028202E+01  0.13699030289E+01  0.11579253734E+01  0.24110325125E+01  0.00000000000E+00 0. -1.
<mgrwt>
<rscale>  1 0.64801424E+03</rscale>
<asrwt>0</asrwt>
<pdfrwt beam="1">  1        1 0.38847686E+00 0.64801424E+03</pdfrwt>
<pdfrwt beam="2">0</pdfrwt>
<totfact> 0.15058484E+00</totfact>
</mgrwt>
</event>
<event>
 6    1  0.4392537E-003  0.6405396E+03  0.7818608E-02  0.9824695E-01
          1   -1    0    0  502    0  0.00000000000E+00  0.00000000000E+00  0.10266948250E+03  0.10266948250E+03  0.00000000000E+00 0.  1.
         13   -1    0    0    0    0 -0.00000000000E+00 -0.00000000000E+00 -0.10000000000E+04  0.10000000000E+04  0.00000000000E+00 0.  1.
    9000005    2    1    2  501    0  0.14585126524E-02 -0.15545263678E-02 -0.89742725717E+03  0.11025727193E+04  0.64053955344E+03 0.  0.
         13    1    3    3    0    0 -0.13642297216E+03 -0.27675528428E+03 -0.30095873480E+03  0.43102305595E+03  0.00000000000E+00 0.  1.
          3    1    3    3  501    0  0.13642443068E+03  0.27675372975E+03 -0.59646852238E+03  0.67154966339E+03  0.00000000000E+00 0.  1.
         21    1    1    2  502  501 -0.14585126524E-02  0.15545263678E-02  0.96739672871E-01  0.96763154757E-01  0.00000000000E+00 0. -1.
<mgrwt>
<rscale>  1 0.64053955E+03</rscale>
<asrwt>0</asrwt>
<pdfrwt beam="1">  1        1 0.37334436E+00 0.64053955E+03</pdfrwt>
<pdfrwt beam="2">0</pdfrwt>
<totfact> 0.17586313E+00</totfact>
</mgrwt>
</event>
<event>
 6    1  0.4392537E-003  0.6514913E+03  0.7818608E-02  0.9803985E-01
          1   -1    0    0  502    0  0.00000000000E+00  0.00000000000E+00  0.10611060676E+03  0.10611060676E+03  0.00000000000E+00 0.  1.
         13   -1    0    0    0    0 -0.00000000000E+00 -0.00000000000E+00 -0.10000000000E+04  0.10000000000E+04  0.00000000000E+00 0.  1.
    9000005    2    1    2  501    0  0.39734831267E-03  0.10588024705E-02 -0.89388841789E+03  0.11061091134E+04  0.65149126396E+03 0.  0.
         13    1    3    3    0    0 -0.68361209577E+02  0.21193044110E+03 -0.43298654547E+02  0.22685356582E+03  0.00000000000E+00 0.  1.
          3    1    3    3  501    0  0.68361606925E+02 -0.21192938229E+03 -0.85058976335E+03  0.87925554755E+03  0.00000000000E+00 0.  1.
         21    1    1    2  502  501 -0.39734831267E-03 -0.10588024705E-02 -0.97534520040E-03  0.14934010222E-02  0.00000000000E+00 0.  1.
<mgrwt>
<rscale>  1 0.65149126E+03</rscale>
<asrwt>0</asrwt>
<pdfrwt beam="1">  1        1 0.38585757E+00 0.65149126E+03</pdfrwt>
<pdfrwt beam="2">0</pdfrwt>
<totfact> 0.15456052E+00</totfact>
</mgrwt>
</event>
<event>
 6    1  0.4392537E-003  0.6528850E+03  0.7818608E-02  0.9801381E-01
          1   -1    0    0  502    0  0.00000000000E+00  0.00000000000E+00  0.10729754620E+03  0.10729754620E+03  0.00000000000E+00 0.  1.
         13   -1    0    0    0    0 -0.00000000000E+00 -0.00000000000E+00 -0.10000000000E+04  0.10000000000E+04  0.00000000000E+00 0.  1.
    9000005    2    1    2  501    0  0.38247918719E-01  0.29214023336E-02 -0.89343475494E+03  0.11065642411E+04  0.65288494917E+03 0.  0.
         13    1    3    3    0    0  0.43296121080E+01  0.30792681251E+03 -0.26316996032E+03  0.40508776261E+03  0.00000000000E+00 0.  1.
          1    1    3    3  501    0 -0.42913641892E+01 -0.30792389111E+03 -0.63026479461E+03  0.70147647847E+03  0.00000000000E+00 0.  1.
         21    1    1    2  502  501 -0.38247918719E-01 -0.29214023336E-02  0.73230113637E+00  0.73330511536E+00  0.00000000000E+00 0.  1.
<mgrwt>
<rscale>  1 0.65288495E+03</rscale>
<asrwt>0</asrwt>
<pdfrwt beam="1">  1        1 0.39017372E+00 0.65288495E+03</pdfrwt>
<pdfrwt beam="2">0</pdfrwt>
<totfact> 0.14786514E+00</totfact>
</mgrwt>
</event>
<event>
 6    1  0.4392537E-003  0.6445029E+03  0.7818608E-02  0.9817149E-01
          1   -1    0    0  502    0  0.00000000000E+00  0.00000000000E+00  0.10384610164E+03  0.10384610164E+03  0.00000000000E+00 0.  1.
         13   -1    0    0    0    0 -0.00000000000E+00 -0.00000000000E+00 -0.10000000000E+04  0.10000000000E+04  0.00000000000E+00 0.  1.
    9000005    2    1    2  501    0  0.41930923445E-05  0.12452126043E-04 -0.89615400361E+03  0.11038459956E+04  0.64450289661E+03 0.  0.
         13    1    3    3    0    0  0.15294949730E+02 -0.15272741836E+03 -0.93337062687E+03  0.94590714497E+03  0.00000000000E+00 0.  1.
          1    1    3    3  501    0 -0.15294945537E+02  0.15272743081E+03  0.37216623258E+02  0.15793885059E+03  0.00000000000E+00 0.  1.
         21    1    1    2  502  501 -0.41930923448E-05 -0.12452126034E-04  0.10525919985E-03  0.10607608882E-03  0.00000000000E+00 0. -1.
<mgrwt>
<rscale>  1 0.64450290E+03</rscale>
<asrwt>0</asrwt>
<pdfrwt beam="1">  1        1 0.37762298E+00 0.64450290E+03</pdfrwt>
<pdfrwt beam="2">0</pdfrwt>
<totfact> 0.16827587E+00</totfact>
</mgrwt>
</event>
<event>
 6    1  0.4392537E-003  0.6473064E+03  0.7818608E-02  0.9811847E-01
          1   -1    0    0  502    0  0.00000000000E+00  0.00000000000E+00  0.10475138859E+03  0.10475138859E+03  0.00000000000E+00 0.  1.
         13   -1    0    0    0    0 -0.00000000000E+00 -0.00000000000E+00 -0.10000000000E+04  0.10000000000E+04  0.00000000000E+00 0.  1.
    9000005    2    1    2  501    0 -0.30316378812E-05  0.40982577332E-05 -0.89524862152E+03  0.11047513773E+04  0.64730635039E+03 0.  0.
         13    1    3    3    0    0 -0.62844473766E+02 -0.88096240774E+02  0.72960957378E+02  0.13051312893E+03  0.00000000000E+00 0.  1.
          3    1    3    3  501    0  0.62844470734E+02  0.88096244872E+02 -0.96820957890E+03  0.97423824834E+03  0.00000000000E+00 0.  1.
         21    1    1    2  502  501  0.30316378856E-05 -0.40982577304E-05  0.10111584602E-04  0.11323898969E-04  0.00000000000E+00 0. -1.
<mgrwt>
<rscale>  1 0.64730635E+03</rscale>
<asrwt>0</asrwt>
<pdfrwt beam="1">  1        1 0.38091494E+00 0.64730635E+03</pdfrwt>
<pdfrwt beam="2">0</pdfrwt>
<totfact> 0.16265911E+00</totfact>
</mgrwt>
</event>
<event>
 6    1  0.4392537E-003  0.6585543E+03  0.7818608E-02  0.9790859E-01
          1   -1    0    0  502    0  0.00000000000E+00  0.00000000000E+00  0.10842959216E+03  0.10842959216E+03  0.00000000000E+00 0.  1.
         13   -1    0    0    0    0 -0.00000000000E+00 -0.00000000000E+00 -0.10000000000E+04  0.10000000000E+04  0.00000000000E+00 0.  1.
    9000005    2    1    2  501    0 -0.69806216523E-02  0.61256438690E-02 -0.89157239858E+03  0.11084200940E+04  0.65855429747E+03 0.  0.
         13    1    3    3    0    0  0.39076874654E+00  0.31409677266E+03 -0.61214103285E+03  0.68802149632E+03  0.00000000000E+00 0.  1.
          1    1    3    3  501    0 -0.39774936819E+00 -0.31409064702E+03 -0.27943136573E+03  0.42039859765E+03  0.00000000000E+00 0.  1.
         21    1    1    2  502  501  0.69806216523E-02 -0.61256438690E-02  0.19907391284E-02  0.94981910772E-02  0.00000000000E+00 0. -1.
<mgrwt>
<rscale>  1 0.65855430E+03</rscale>
<asrwt>0</asrwt>
<pdfrwt beam="1">  1        1 0.39429026E+00 0.65855430E+03</pdfrwt>
<pdfrwt beam="2">0</pdfrwt>
<totfact> 0.14162195E+00</totfact>
</mgrwt>
</event>
<event>
 6    1  0.4392537E-003  0.6540701E+03  0.7818608E-02  0.9799172E-01
          1   -1    0    0  502    0  0.00000000000E+00  0.00000000000E+00  0.10695247296E+03  0.10695247296E+03  0.00000000000E+00 0.  1.
         13   -1    0    0    0    0 -0.00000000000E+00 -0.00000000000E+00 -0.10000000000E+04  0.10000000000E+04  0.00000000000E+00 0.  1.
    9000005    2    1    2  501    0  0.10524208790E-04 -0.26016741401E-05 -0.89304806839E+03  0.11069519315E+04  0.65407012329E+03 0.  0.
         13    1    3    3    0    0  0.26431008311E+03  0.12669850681E+03 -0.69200805225E+03  0.75152343679E+03  0.00000000000E+00 0.  1.
          1    1    3    3  501    0 -0.26431007259E+03 -0.12669850941E+03 -0.20104001614E+03  0.35542849471E+03  0.00000000000E+00 0.  1.
         21    1    1    2  502  501 -0.10524208808E-04  0.26016741360E-05  0.54135393118E-03  0.54146247006E-03  0.00000000000E+00 0.  1.
<mgrwt>
<rscale>  1 0.65407012E+03</rscale>
<asrwt>0</asrwt>
<pdfrwt beam="1">  1        1 0.38891890E+00 0.65407012E+03</pdfrwt>
<pdfrwt beam="2">0</pdfrwt>
<totfact> 0.14973854E+00</totfact>
</mgrwt>
</event>
<event>
 6    1  0.4392537E-003  0.6660592E+03  0.7818608E-02  0.9777103E-01
          1   -1    0    0  502    0  0.00000000000E+00  0.00000000000E+00  0.11094951621E+03  0.11094951621E+03  0.00000000000E+00 0.  1.
         13   -1    0    0    0    0 -0.00000000000E+00 -0.00000000000E+00 -0.10000000000E+04  0.10000000000E+04  0.00000000000E+00 0.  1.
    9000005    2    1    2  501    0 -0.11303488514E-01  0.15676277065E-01 -0.88908874157E+03  0.11109066540E+04  0.66605915883E+03 0.  0.
         13    1    3    3    0    0  0.12986383541E+03  0.25298177641E+03 -0.73365990171E+03  0.78684258039E+03  0.00000000000E+00 0.  1.
          1    1    3    3  501    0 -0.12987513890E+03 -0.25296610013E+03 -0.15542883986E+03  0.32406407357E+03  0.00000000000E+00 0.  1.
         21    1    1    2  502  501  0.11303488514E-01 -0.15676277065E-01  0.38257774700E-01  0.42862242594E-01  0.00000000000E+00 0.  1.
<mgrwt>
<rscale>  1 0.66605916E+03</rscale>
<asrwt>0</asrwt>
<pdfrwt beam="1">  1        1 0.40345364E+00 0.66605916E+03</pdfrwt>
<pdfrwt beam="2">0</pdfrwt>
<totfact> 0.12873141E+00</totfact>
</mgrwt>
</event>
<event>
 6    1  0.4392537E-003  0.6438724E+03  0.7818608E-02  0.9818346E-01
          1   -1    0    0  502    0  0.00000000000E+00  0.00000000000E+00  0.10364294558E+03  0.10364294558E+03  0.00000000000E+00 0.  1.
         13   -1    0    0    0    0 -0.00000000000E+00 -0.00000000000E+00 -0.10000000000E+04  0.10000000000E+04  0.00000000000E+00 0.  1.
    9000005    2    1    2  501    0  0.38413315337E-05  0.22702604525E-05 -0.89635707162E+03  0.11036429278E+04  0.64387243477E+03 0.  0.
         13    1    3    3    0    0 -0.24351181233E+03 -0.36625078808E+02 -0.92726670632E+02  0.26313045165E+03  0.00000000000E+00 0.  1.
          3    1    3    3  501    0  0.24351181617E+03  0.36625081078E+02 -0.80363040099E+03  0.84051247616E+03  0.00000000000E+00 0.  1.
         21    1    1    2  502  501 -0.38413315295E-05 -0.22702604545E-05  0.17197576507E-04  0.17767007294E-04  0.00000000000E+00 0. -1.
<mgrwt>
<rscale>  1 0.64387243E+03</rscale>
<asrwt>0</asrwt>
<pdfrwt beam="1">  1        1 0.37688423E+00 0.64387243E+03</pdfrwt>
<pdfrwt beam="2">0</pdfrwt>
<totfact> 0.16956151E+00</totfact>
</mgrwt>
</event>
<event>
 6    1  0.4392537E-003  0.6535881E+03  0.7818608E-02  0.9800070E-01
          1   -1    0    0  502    0  0.00000000000E+00  0.00000000000E+00  0.10680635655E+03  0.10680635655E+03  0.00000000000E+00 0.  1.
         13   -1    0    0    0    0 -0.00000000000E+00 -0.00000000000E+00 -0.10000000000E+04  0.10000000000E+04  0.00000000000E+00 0.  1.
    9000005    2    1    2  501    0 -0.13193602781E-02  0.27402382864E-02 -0.89320543160E+03  0.11067941824E+04  0.65358811122E+03 0.  0.
         13    1    3    3    0    0  0.20844833950E+02  0.26573966365E+03 -0.12645079434E+03  0.29502860765E+03  0.00000000000E+00 0.  1.
          3    1    3    3  501    0 -0.20846153311E+02 -0.26573692342E+03 -0.76675463726E+03  0.81176557475E+03  0.00000000000E+00 0.  1.
         21    1    1    2  502  501  0.13193602781E-02 -0.27402382864E-02  0.11788146863E-01  0.12174153928E-01  0.00000000000E+00 0.  1.
<mgrwt>
<rscale>  1 0.65358811E+03</rscale>
<asrwt>0</asrwt>
<pdfrwt beam="1">  1        1 0.38838757E+00 0.65358811E+03</pdfrwt>
<pdfrwt beam="2">0</pdfrwt>
<totfact> 0.15056604E+00</totfact>
</mgrwt>
</event>
<event>
 6    1  0.4392537E-003  0.6526244E+03  0.7818608E-02  0.9801867E-01
          1   -1    0    0  502    0  0.00000000000E+00  0.00000000000E+00  0.10654601045E+03  0.10654601045E+03  0.00000000000E+00 0.  1.
         13   -1    0    0    0    0 -0.00000000000E+00 -0.00000000000E+00 -0.10000000000E+04  0.10000000000E+04  0.00000000000E+00 0.  1.
    9000005    2    1    2  501    0 -0.53570604777E-02 -0.32766873955E-02 -0.89352019181E+03  0.11064795110E+04  0.65262437519E+03 0.  0.
         13    1    3    3    0    0 -0.12008263614E+03 -0.18284879379E+03 -0.85727887828E+03  0.88474888869E+03  0.00000000000E+00 0.  1.
          1    1    3    3  501    0  0.12007727908E+03  0.18284551710E+03 -0.36241313533E+02  0.22173062233E+03  0.00000000000E+00 0.  1.
         21    1    1    2  502  501  0.53570604777E-02  0.32766873955E-02  0.66202256136E-01  0.66499424770E-01  0.00000000000E+00 0.  1.
<mgrwt>
<rscale>  1 0.65262438E+03</rscale>
<asrwt>0</asrwt>
<pdfrwt beam="1">  1        1 0.38744085E+00 0.65262438E+03</pdfrwt>
<pdfrwt beam="2">0</pdfrwt>
<totfact> 0.15205418E+00</totfact>
</mgrwt>
</event>
<event>
 6    1  0.4392537E-003  0.6297611E+03  0.7818608E-02  0.9845515E-01
          1   -1    0    0  502    0  0.00000000000E+00  0.00000000000E+00  0.99150183905E+02  0.99150183905E+02  0.00000000000E+00 0.  1.
         13   -1    0    0    0    0 -0.00000000000E+00 -0.00000000000E+00 -0.10000000000E+04  0.10000000000E+04  0.00000000000E+00 0.  1.
    9000005    2    1    2  501    0  0.33001545388E-03 -0.21595118761E-03 -0.90085013440E+03  0.10991496771E+04  0.62976110392E+03 0.  0.
         13    1    3    3    0    0 -0.60067832204E+02 -0.28342440012E+03 -0.23515789687E+03  0.37314443787E+03  0.00000000000E+00 0.  1.
          1    1    3    3  501    0  0.60068162220E+02  0.28342418417E+03 -0.66569223752E+03  0.72600523923E+03  0.00000000000E+00 0.  1.
         21    1    1    2  502  501 -0.33001545388E-03  0.21595118758E-03  0.31830171128E-03  0.50681465510E-03  0.00000000000E+00 0. -1.
<mgrwt>
<rscale>  1 0.62976110E+03</rscale>
<asrwt>0</asrwt>
<pdfrwt beam="1">  1        1 0.36054688E+00 0.62976110E+03</pdfrwt>
<pdfrwt beam="2">0</pdfrwt>
<totfact> 0.20051940E+00</totfact>
</mgrwt>
</event>
<event>
 6    1  0.4392537E-003  0.6541557E+03  0.7818608E-02  0.9799012E-01
          1   -1    0    0  502    0  0.00000000000E+00  0.00000000000E+00  0.10697997620E+03  0.10697997620E+03  0.00000000000E+00 0.  1.
         13   -1    0    0    0    0 -0.00000000000E+00 -0.00000000000E+00 -0.10000000000E+04  0.10000000000E+04  0.00000000000E+00 0.  1.
    9000005    2    1    2  501    0  0.70594545818E-05  0.26003653854E-04 -0.89302007122E+03  0.11069799217E+04  0.65415571493E+03 0.  0.
         13    1    3    3    0    0 -0.63353654685E+02  0.25489664109E+02 -0.98780187177E+03  0.99015955604E+03  0.00000000000E+00 0.  1.
          1    1    3    3  501    0  0.63353661745E+02 -0.25489638105E+02  0.94781800559E+02  0.11682036562E+03  0.00000000000E+00 0.  1.
         21    1    1    2  502  501 -0.70594545793E-05 -0.26003653855E-04  0.47416424274E-04  0.54537539399E-04  0.00000000000E+00 0.  1.
<mgrwt>
<rscale>  1 0.65415571E+03</rscale>
<asrwt>0</asrwt>
<pdfrwt beam="1">  1        1 0.38901892E+00 0.65415571E+03</pdfrwt>
<pdfrwt beam="2">0</pdfrwt>
<totfact> 0.14958340E+00</totfact>
</mgrwt>
</event>
